Title
82307
    1SAPS     N    1   1.243   1.063  11.348 -0.3488  0.5922  0.5505
    1SAPS   HN1    2   1.239   1.074  11.452 -0.1557 -1.1961  0.7643
    1SAPS   HN2    3   1.245   1.162  11.319  0.2244  0.6007  0.6119
    1SAPS   HN3    4   1.161   1.006  11.318  0.5477 -0.5835  0.2734
    1SAPS   C12    5   1.365   0.997  11.286 -0.0910 -1.3318 -0.8215
    1SAPS  H12A    6   1.376   1.024  11.182 -2.1431  0.0668 -0.7195
    1SAPS   C13    7   1.488   1.029  11.374  0.0348  0.2264  0.1073
    1SAPS  O13A    8   1.472   1.059  11.496 -0.1676  0.4464 -0.2632
    1SAPS  O13B    9   1.596   0.977  11.333 -0.0225  0.0457  0.3340
    1SAPS   C11   10   1.325   0.848  11.273  0.1974 -0.5583 -0.2423
    1SAPS  H11A   11   1.314   0.799  11.373  2.1988  1.6663  1.1234
    1SAPS  H11B   12   1.405   0.787  11.225  0.3443 -1.9979  1.7419
    1SAPS     P   13   1.143   0.702  11.141  0.0631 -0.2708 -0.3752
    1SAPS   O13   14   1.235   0.590  11.146 -0.3403 -0.5642  0.1755
    1SAPS   O14   15   0.998   0.682  11.171 -0.0995 -0.1011  0.0627
    1SAPS   O12   16   1.201   0.831  11.212  0.6828 -0.9502 -0.1816
    1SAPS   O11   17   1.148   0.748  10.993 -0.4183 -0.8858  0.3866
    1SAPS    C1   18   1.087   0.857  10.941  0.1435  0.3744  0.4445
    1SAPS    HA   19   0.977   0.841  10.943  0.2544 -1.2745 -3.1516
    1SAPS    HB   20   1.117   0.946  11.000 -0.0412  1.2604 -0.7782
    1SAPS    C2   21   1.131   0.879  10.788  0.4015  0.2785  0.4528
    1SAPS    HS   22   1.087   0.972  10.747 -0.0791 -0.4025 -0.5915
    1SAPS   O21   23   1.098   0.758  10.717  0.0240 -0.1756  0.0058
    1SAPS   C21   24   0.977   0.747  10.681 -0.4272  0.3782  0.1113
    1SAPS   O22   25   0.887   0.824  10.714 -0.3001 -0.6387 -0.4797
    1SAPS   C22   26   0.950   0.630  10.584  0.5570  0.3682 -0.2861
    1SAPS   H2R   27   0.874   0.567  10.635  1.7777 -1.1132 -0.2617
    1SAPS   H2S   28   0.909   0.675  10.491 -1.3368 -0.1861  0.2672
    1SAPS    C3   29   1.288   0.898  10.792  0.7116  0.6110  0.2900
    1SAPS    HX   30   1.345   0.817  10.843  0.1566 -0.1061 -0.2108
    1SAPS    HY   31   1.299   0.994  10.845  0.1144  1.8593 -1.7692
    1SAPS   O31   32   1.340   0.922  10.656  0.3241  0.6945  0.2385
    1SAPS   C31   33   1.375   0.827  10.580 -0.5258  0.2154  0.6621
    1SAPS   O32   34   1.393   0.708  10.614 -0.3226  0.1577  0.5486
    1SAPS   C32   35   1.385   0.886  10.435  0.3746 -0.1679 -0.6700
    1SAPS   H2X   36   1.300   0.957  10.423 -0.2298 -0.9261 -0.9312
    1SAPS   H2Y   37   1.368   0.806  10.360  1.2417  0.0883 -1.1400
    1SAPS   C23   38   1.073   0.547  10.548  0.1598 -0.2817  0.1023
    1SAPS   H3R   39   1.049   0.443  10.579 -2.5664  0.2655 -0.0280
    1SAPS   H3S   40   1.166   0.562  10.607  1.7947 -0.7881 -2.2806
    1SAPS   C24   41   1.096   0.546  10.392 -0.8508 -0.6879  0.4683
    1SAPS   H4R   42   1.078   0.647  10.349 -0.4244 -1.0531 -0.6003
    1SAPS   H4S   43   1.032   0.470  10.342 -1.5518  0.2399 -0.0740
    1SAPS   C25   44   1.240   0.501  10.362 -0.6720  0.0442  0.1101
    1SAPS   H5R   45   1.301   0.462  10.445  0.4721  0.3055 -0.5846
    1SAPS   C26   46   1.298   0.517  10.248 -0.7558 -0.3236 -0.8447
    1SAPS   H6R   47   1.405   0.491  10.243 -0.1468  2.0085 -0.5687
    1SAPS   C27   48   1.232   0.577  10.124 -0.3594 -0.0784 -0.0491
    1SAPS   H7R   49   1.124   0.586  10.150 -0.6257 -1.2940 -0.7062
    1SAPS   H7S   50   1.223   0.500  10.044 -1.0557 -1.7102  1.5809
    1SAPS   C28   51   1.296   0.708  10.080  0.3017  0.3793 -0.1209
    1SAPS   H8R   52   1.285   0.786  10.156 -2.0128 -1.3131  1.3395
    1SAPS   C29   53   1.350   0.741   9.958 -0.1821  0.2055  0.2888
    1SAPS   H9R   54   1.388   0.844   9.954 -2.0929  1.0063  1.9006
    1SAPS  C210   55   1.351   0.655   9.835 -0.6901  0.5736  0.2843
    1SAPS  H10R   56   1.394   0.706   9.747  1.5934 -0.1740  0.9308
    1SAPS  H10S   57   1.242   0.640   9.819 -0.0749 -3.2958 -0.7880
    1SAPS  C211   58   1.423   0.521   9.848  0.2444  0.1598 -0.2569
    1SAPS  H11R   59   1.470   0.508   9.946 -2.0021 -3.2703  0.4860
    1SAPS  C212   60   1.452   0.444   9.743  0.1651  0.2820 -0.8620
    1SAPS  H12R   61   1.504   0.351   9.771  1.3366  0.9388 -0.8235
    1SAPS  C213   62   1.422   0.456   9.599  0.8119  0.0934  0.0035
    1SAPS  H13R   63   1.353   0.543   9.586  1.8159  1.1573  1.6976
    1SAPS  H13S   64   1.353   0.373   9.568  1.3835 -0.0324 -0.9599
    1SAPS  C214   65   1.540   0.468   9.512 -0.0624  0.6698  0.1048
    1SAPS  H14R   66   1.625   0.408   9.547 -0.8555  0.4720  1.7380
    1SAPS  C215   67   1.538   0.540   9.394 -0.2267 -0.4938 -0.5113
    1SAPS  H15R   68   1.638   0.550   9.349 -0.1731 -2.0566 -0.7781
    1SAPS  C216   69   1.422   0.608   9.341  0.4470 -0.4159  0.2291
    1SAPS  H16R   70   1.431   0.710   9.385  0.2540  0.5395 -1.8770
    1SAPS  H16S   71   1.324   0.573   9.379 -0.4193  1.4266 -0.2480
    1SAPS  C217   72   1.418   0.606   9.190  0.7198  0.0373 -0.1344
    1SAPS  H17R   73   1.517   0.623   9.141  0.9845 -1.8093 -0.2795
    1SAPS  H17S   74   1.370   0.702   9.162  0.4951  0.2717  1.0080
    1SAPS  C218   75   1.352   0.487   9.126  0.4471  0.6435 -0.4160
    1SAPS  H18R   76   1.255   0.482   9.181  1.9020 -2.1649  2.0612
    1SAPS  H18S   77   1.394   0.386   9.146  0.7612  0.7730 -0.4175
    1SAPS  C219   78   1.326   0.499   8.979 -0.4283 -0.4930 -0.1056
    1SAPS  H19R   79   1.284   0.597   8.947  0.3198 -0.9697 -2.7130
    1SAPS  H19S   80   1.248   0.431   8.940  2.1009 -3.0141 -0.9297
    1SAPS  C220   81   1.448   0.484   8.889  0.2321 -0.7431  0.2179
    1SAPS  H20R   82   1.429   0.506   8.782 -0.7036  1.3742  0.8034
    1SAPS  H20S   83   1.492   0.382   8.896 -0.1894 -0.8017  2.2753
    1SAPS  H20T   84   1.524   0.555   8.928  1.3203 -2.0834  0.5822
    1SAPS   C33   85   1.516   0.956  10.417  0.2551 -0.2782 -0.2220
    1SAPS   H3X   86   1.514   1.037  10.494 -1.1771  1.0804 -1.6479
    1SAPS   H3Y   87   1.515   1.008  10.319 -0.5109  0.9525  0.4322
    1SAPS   C34   88   1.641   0.870  10.420  0.3800  0.3036 -0.1859
    1SAPS   H4X   89   1.624   0.825  10.520 -1.2745 -1.1767 -1.1176
    1SAPS   H4Y   90   1.737   0.926  10.432  1.2796 -1.2611 -0.0474
    1SAPS   C35   91   1.664   0.760  10.314 -0.5290 -0.8095  0.1623
    1SAPS   H5X   92   1.573   0.701  10.288 -0.4649 -1.4431  1.3364
    1SAPS   H5Y   93   1.729   0.679  10.353  0.5579  1.3105  2.8688
    1SAPS   C36   94   1.727   0.826  10.192 -0.5809  0.2730  0.2254
    1SAPS   H6X   95   1.814   0.888  10.224 -0.8261  0.0636  1.2956
    1SAPS   H6Y   96   1.651   0.892  10.146 -0.1325  0.9825  0.4917
    1SAPS   C37   97   1.773   0.731  10.083  0.7333  0.1089  0.6190
    1SAPS   H7X   98   1.680   0.674  10.063  0.3205  1.1661 -0.5214
    1SAPS   H7Y   99   1.842   0.655  10.126  0.3318 -0.6967 -0.1501
    1SAPS   C38  100   1.815   0.792   9.952  0.3129  1.2703  0.2114
    1SAPS   H8X  101   1.904   0.857   9.968 -0.1621  1.9456  0.1062
    1SAPS   H8Y  102   1.738   0.856   9.905  0.9282  0.7661 -1.5125
    1SAPS   C39  103   1.862   0.686   9.849  0.1125 -0.3180 -0.4952
    1SAPS   H9X  104   1.780   0.611   9.854 -1.2635  1.2101  0.5502
    1SAPS   H9Y  105   1.960   0.638   9.867  0.4320  0.4418 -0.1709
    1SAPS  C310  106   1.875   0.747   9.708  0.4401 -0.3202 -0.0788
    1SAPS  H10X  107   1.951   0.823   9.736  0.1790 -0.3587  0.7416
    1SAPS  H10Y  108   1.780   0.793   9.673 -1.0751 -2.7868  0.6154
    1SAPS  C311  109   1.908   0.662   9.587 -0.3238  0.4538 -0.0089
    1SAPS  H11X  110   1.840   0.574   9.588  0.9012 -0.5520 -1.7241
    1SAPS  H11Y  111   2.016   0.637   9.594 -1.2422 -4.2166 -0.9311
    1SAPS  C312  112   1.893   0.733   9.451  0.2981 -0.1150  0.3477
    1SAPS  H12X  113   1.953   0.826   9.454  0.4681 -0.1818 -0.7925
    1SAPS  H12Y  114   1.784   0.754   9.442  0.4691  0.7496  0.3081
    1SAPS  C313  115   1.949   0.651   9.333 -0.4478 -0.5325 -0.2373
    1SAPS  H13X  116   1.917   0.545   9.344 -0.9839 -0.2678  0.8170
    1SAPS  H13Y  117   2.059   0.657   9.341 -0.4923  1.8372 -0.8557
    1SAPS  C314  118   1.910   0.714   9.202  0.6424  0.1460  0.0538
    1SAPS  H14X  119   1.917   0.825   9.203  0.5186  0.1577 -0.3219
    1SAPS  H14Y  120   1.802   0.695   9.185 -0.0914  1.6759  2.8232
    1SAPS  C315  121   2.007   0.670   9.091  0.4672 -1.0775  0.1305
    1SAPS  H15X  122   1.998   0.559   9.081  3.5798 -1.4347  0.8512
    1SAPS  H15Y  123   2.110   0.686   9.128  0.1566  2.5698 -0.3888
    1SAPS  C316  124   1.992   0.749   8.963 -0.7183  0.5315  0.3673
    1SAPS  H16X  125   2.046   0.846   8.963  1.7790 -0.8120  0.1772
    1SAPS  H16Y  126   1.888   0.775   8.934 -1.5730 -2.1312  0.8917
    1SAPS  C317  127   2.051   0.672   8.845 -0.1870  0.0052  0.1529
    1SAPS  H17X  128   1.992   0.579   8.842  0.4818 -0.4225  0.1081
    1SAPS  H17Y  129   2.159   0.655   8.865 -0.3039  2.8630  3.6634
    1SAPS  C318  130   2.033   0.735   8.710  0.2602  0.5755  0.2704
    1SAPS  H18X  131   2.081   0.835   8.704  1.2193 -0.0035 -2.1253
    1SAPS  H18Y  132   1.927   0.754   8.685  0.5833 -1.0867 -2.5588
    1SAPS  H18Z  133   2.067   0.664   8.632  0.3872 -0.0747  0.9088
    2SAPS     N  134   6.329   0.469  10.881  0.2071  0.3092  0.1686
    2SAPS   HN1  135   6.242   0.464  10.823 -0.8881 -0.1236  1.8123
    2SAPS   HN2  136   6.395   0.411  10.827 -2.1942 -0.7386 -1.7502
    2SAPS   HN3  137   6.300   0.428  10.972  3.6436  0.9818  1.6271
    2SAPS   C12  138   6.372   0.612  10.889 -0.1551  0.0705 -0.4876
    2SAPS  H12A  139   6.287   0.677  10.878  1.1390  1.9815  0.5095
    2SAPS   C13  140   6.425   0.647  11.030  0.5077  0.8833 -0.5729
    2SAPS  O13A  141   6.415   0.562  11.123  0.1914  0.6101 -0.1926
    2SAPS  O13B  142   6.465   0.767  11.055  0.3111 -0.0694 -0.7828
    2SAPS   C11  143   6.474   0.650  10.780  0.4682 -0.3877 -0.3690
    2SAPS  H11A  144   6.488   0.760  10.782 -0.3274 -0.2715 -0.7055
    2SAPS  H11B  145   6.414   0.617  10.691 -0.0858 -1.5603  0.4209
    2SAPS     P  146   6.703   0.578  10.680 -0.1518  0.3322 -0.1818
    2SAPS   O13  147   6.834   0.580  10.749 -0.0391 -0.5433  0.3920
    2SAPS   O14  148   6.671   0.467  10.584 -0.2727  0.7243  0.3877
    2SAPS   O12  149   6.599   0.576  10.797  0.2616  0.4864 -0.7139
    2SAPS   O11  150   6.665   0.713  10.606  0.1209 -0.7046 -0.4914
    2SAPS    C1  151   6.718   0.839  10.638  0.2030 -0.6351  0.5766
    2SAPS    HA  152   6.633   0.909  10.652  2.0619  1.4400  1.8440
    2SAPS    HB  153   6.782   0.838  10.729  1.5329 -0.5121 -0.3411
    2SAPS    C2  154   6.812   0.888  10.524 -0.4663 -0.2988  0.7551
    2SAPS    HS  155   6.828   0.998  10.532 -0.2898 -0.3848  1.6434
    2SAPS   O21  156   6.760   0.844  10.395  0.0839 -0.7809  0.9615
    2SAPS   C21  157   6.681   0.918  10.332  0.7780 -0.3404  1.0330
    2SAPS   O22  158   6.646   1.034  10.362 -0.1967  0.4360  0.3356
    2SAPS   C22  159   6.633   0.845  10.213 -0.4387 -0.0493 -0.5769
    2SAPS   H2R  160   6.662   0.738  10.222 -0.3491  0.0763  0.7450
    2SAPS   H2S  161   6.522   0.852  10.204 -0.2481  1.5744 -1.8682
    2SAPS    C3  162   6.947   0.821  10.538 -0.2098 -0.2326 -0.1006
    2SAPS    HX  163   6.943   0.712  10.520 -0.5484 -0.3327  0.5850
    2SAPS    HY  164   6.965   0.836  10.646 -0.0844 -2.4255  0.1974
    2SAPS   O31  165   7.048   0.878  10.449  0.1220 -0.4003 -0.4395
    2SAPS   C31  166   7.139   0.955  10.507  0.0747  0.2162 -0.5967
    2SAPS   O32  167   7.157   0.974  10.628  0.2366 -0.0677  0.2658
    2SAPS   C32  168   7.234   1.012  10.401 -0.5807 -0.4875  0.1714
    2SAPS   H2X  169   7.333   1.023  10.450 -0.4805  3.0842 -0.6744
    2SAPS   H2Y  170   7.199   1.116  10.383  0.7592  0.0239  0.4690
    2SAPS   C23  171   6.704   0.893  10.087  0.0396  0.1348  0.6264
    2SAPS   H3R  172   6.676   0.998  10.063  0.2136 -0.4614 -2.4294
    2SAPS   H3S  173   6.663   0.843   9.996  0.4445  1.8184 -0.4895
    2SAPS   C24  174   6.862   0.880  10.089  0.3196 -0.5432  0.1067
    2SAPS   H4R  175   6.908   0.948  10.163 -0.9226 -1.3092  1.5921
    2SAPS   H4S  176   6.901   0.918   9.992  1.9940 -0.0114  0.9703
    2SAPS   C25  177   6.904   0.742  10.122 -0.0219 -0.0422  0.4108
    2SAPS   H5R  178   6.922   0.716  10.227 -1.1793 -0.1403  0.5925
    2SAPS   C26  179   6.931   0.648  10.036 -0.3999  0.0506 -0.7171
    2SAPS   H6R  180   6.982   0.555  10.065  1.1447  1.2143  0.4476
    2SAPS   C27  181   6.926   0.659   9.882 -0.6975 -0.0147 -0.0288
    2SAPS   H7R  182   6.860   0.738   9.842  0.8373  0.8731 -0.8449
    2SAPS   H7S  183   6.884   0.570   9.831 -1.8824  1.1163 -1.0568
    2SAPS   C28  184   7.062   0.693   9.822  0.1257 -0.0624 -0.0073
    2SAPS   H8R  185   7.141   0.710   9.896  0.7335 -1.7318 -0.2476
    2SAPS   C29  186   7.090   0.718   9.691  0.1043  0.0406 -0.2469
    2SAPS   H9R  187   7.188   0.747   9.652  0.5442  3.2913  2.9811
    2SAPS  C210  188   6.980   0.704   9.589 -0.2494  0.1069  0.1070
    2SAPS  H10R  189   6.921   0.798   9.581  1.9251  1.4031 -1.1910
    2SAPS  H10S  190   6.908   0.624   9.615 -1.0485 -0.1064 -2.5773
    2SAPS  C211  191   7.024   0.670   9.450  0.2296 -0.0307  0.6234
    2SAPS  H11R  192   7.047   0.563   9.433 -1.6393 -0.5495  1.2519
    2SAPS  C212  193   7.036   0.746   9.338  0.3287 -0.1469  0.0873
    2SAPS  H12R  194   7.061   0.703   9.240  0.5223 -2.2752  1.0511
    2SAPS  C213  195   7.007   0.890   9.337  0.6766 -0.0567  0.3251
    2SAPS  H13R  196   7.007   0.933   9.439 -1.9193 -0.0441  0.3465
    2SAPS  H13S  197   6.900   0.903   9.312  1.0633 -0.3812 -1.5974
    2SAPS  C214  198   7.103   0.965   9.251 -0.8050 -0.4729  0.1135
    2SAPS  H14R  199   7.211   0.958   9.273 -0.0939  2.7769 -1.8946
    2SAPS  C215  200   7.073   1.045   9.146 -0.2777  0.8839  0.0726
    2SAPS  H15R  201   7.159   1.093   9.098  1.7038 -1.2682  1.3803
    2SAPS  C216  202   6.933   1.060   9.091 -0.1569 -0.1948  0.4560
    2SAPS  H16R  203   6.909   1.169   9.087  0.3484 -0.0328  1.7397
    2SAPS  H16S  204   6.850   1.015   9.150 -1.2730 -0.3300 -1.1900
    2SAPS  C217  205   6.906   1.019   8.945 -0.4425  0.0237 -0.0944
    2SAPS  H17R  206   6.977   1.082   8.888 -0.0093  0.5171  0.9811
    2SAPS  H17S  207   6.803   1.051   8.918  0.2577  1.5425 -1.0230
    2SAPS  C218  208   6.934   0.866   8.921 -0.5761 -0.1057 -0.3756
    2SAPS  H18R  209   6.902   0.814   9.015 -0.5780  2.3238  1.0173
    2SAPS  H18S  210   7.044   0.863   8.909 -0.6075 -1.2301 -0.4325
    2SAPS  C219  211   6.873   0.808   8.793  0.1139 -0.3346  0.2147
    2SAPS  H19R  212   6.914   0.705   8.782 -0.3929 -0.4664 -0.4383
    2SAPS  H19S  213   6.905   0.869   8.706 -0.1175  1.0669  1.0992
    2SAPS  C220  214   6.720   0.783   8.796 -0.4019  0.4319  0.2090
    2SAPS  H20R  215   6.693   0.702   8.725  0.8695 -1.2992  1.6577
    2SAPS  H20S  216   6.669   0.876   8.761  0.1546  0.4690 -0.5285
    2SAPS  H20T  217   6.678   0.752   8.894  0.2838  1.5144  0.8603
    2SAPS   C33  218   7.237   0.938  10.269 -0.3390 -0.4284  0.7686
    2SAPS   H3X  219   7.134   0.937  10.228 -0.5840 -0.6773  1.3788
    2SAPS   H3Y  220   7.282   0.837  10.275  0.4493  0.0294  2.9496
    2SAPS   C34  221   7.322   1.012  10.171 -0.1779  0.7827  0.1000
    2SAPS   H4X  222   7.428   1.027  10.201  0.3905  0.2950 -1.6193
    2SAPS   H4Y  223   7.289   1.119  10.173 -2.0361  0.2224  0.4787
    2SAPS   C35  224   7.315   0.958  10.031 -0.0005 -0.1688 -0.4225
    2SAPS   H5X  225   7.206   0.939  10.017 -0.0685 -1.0486  1.1731
    2SAPS   H5Y  226   7.366   0.859  10.026  0.7167  0.1213  0.9646
    2SAPS   C36  227   7.367   1.054   9.924 -0.5610 -0.0383  0.5542
    2SAPS   H6X  228   7.475   1.073   9.945  0.2095  0.6754 -3.5479
    2SAPS   H6Y  229   7.320   1.154   9.938  1.5698  1.0258  0.3363
    2SAPS   C37  230   7.355   1.019   9.775 -0.2801 -0.4456  0.7287
    2SAPS   H7X  231   7.367   1.112   9.715  0.6419 -1.0734 -0.0848
    2SAPS   H7Y  232   7.253   0.976   9.763 -0.4429  0.0094  0.4689
    2SAPS   C38  233   7.466   0.927   9.717 -0.1901 -0.2966 -0.1513
    2SAPS   H8X  234   7.458   0.824   9.759  0.0263 -0.2361  0.0390
    2SAPS   H8Y  235   7.560   0.981   9.744 -0.9724  0.7342  0.5705
    2SAPS   C39  236   7.444   0.910   9.566 -0.4334  0.8538  0.5503
    2SAPS   H9X  237   7.338   0.920   9.535 -0.2977  2.7924  0.6789
    2SAPS   H9Y  238   7.477   0.809   9.534 -0.9193  0.5860  0.8787
    2SAPS  C310  239   7.524   1.019   9.489 -0.2058  0.2253 -0.0590
    2SAPS  H10X  240   7.634   1.012   9.507 -0.3020  0.7059  0.7667
    2SAPS  H10Y  241   7.497   1.124   9.514  2.4774  0.4281  2.3124
    2SAPS  C311  242   7.492   1.014   9.337 -0.3950  0.1811 -0.3375
    2SAPS  H11X  243   7.383   1.035   9.332 -0.6980 -1.2129  0.2190
    2SAPS  H11Y  244   7.506   0.909   9.303 -0.2615  0.3705 -0.8671
    2SAPS  C312  245   7.572   1.099   9.242 -0.4924 -0.2363 -0.4498
    2SAPS  H12X  246   7.680   1.080   9.263 -0.5151  0.0917 -0.0340
    2SAPS  H12Y  247   7.568   1.208   9.263  1.2134 -0.1656 -0.3908
    2SAPS  C313  248   7.521   1.081   9.098  0.2727 -0.0020  0.1779
    2SAPS  H13X  249   7.415   1.112   9.105  0.0686 -0.9482  1.3273
    2SAPS  H13Y  250   7.527   0.973   9.072  1.5286  0.4152 -1.3517
    2SAPS  C314  251   7.584   1.168   8.985 -0.0930 -0.0902  0.5726
    2SAPS  H14X  252   7.678   1.114   8.962  1.0464  1.8931  0.5340
    2SAPS  H14Y  253   7.619   1.267   9.022  0.6121  1.2265 -3.4185
    2SAPS  C315  254   7.498   1.171   8.854 -0.2706 -0.4146 -0.3357
    2SAPS  H15X  255   7.533   1.263   8.802  0.6599  0.1857  1.2874
    2SAPS  H15Y  256   7.393   1.194   8.881 -0.4983 -2.1867  0.3777
    2SAPS  C316  257   7.504   1.039   8.770 -0.1824 -0.0120 -0.3846
    2SAPS  H16X  258   7.432   1.049   8.685  1.2289 -0.0870 -1.6181
    2SAPS  H16Y  259   7.474   0.959   8.840 -2.9243  1.3514  0.0658
    2SAPS  C317  260   7.644   0.992   8.705 -0.2054  0.0002 -0.2061
    2SAPS  H17X  261   7.627   0.905   8.638  2.5028 -0.8526  0.1611
    2SAPS  H17Y  262   7.710   0.963   8.790  1.2392  0.8647 -1.0052
    2SAPS  C318  263   7.711   1.093   8.617 -0.1257  0.2457  0.2096
    2SAPS  H18X  264   7.804   1.046   8.581 -0.3213 -1.1380  1.4371
    2SAPS  H18Y  265   7.736   1.187   8.671 -0.8438  1.3805 -1.4203
    2SAPS  H18Z  266   7.649   1.106   8.526 -0.9148 -0.8077  0.5875
    3SAPS     N  267   0.598   3.456  10.749 -0.5615 -0.3474  0.0055
    3SAPS   HN1  268   0.669   3.525  10.716 -0.5374 -1.0281 -1.4205
    3SAPS   HN2  269   0.582   3.386  10.673  0.2438 -1.3973  0.7833
    3SAPS   HN3  270   0.504   3.499  10.759 -1.5590 -2.0403 -1.7230
    3SAPS   C12  271   0.652   3.379  10.870  0.0522 -0.1649  0.2366
    3SAPS  H12A  272   0.704   3.297  10.823  1.5254 -0.5824  2.5478
    3SAPS   C13  273   0.761   3.446  10.955 -0.0234 -0.0602  0.2035
    3SAPS  O13A  274   0.786   3.569  10.936  0.4537 -0.3219 -0.6562
    3SAPS  O13B  275   0.817   3.386  11.054 -0.5351  0.5993  0.4701
    3SAPS   C11  276   0.535   3.333  10.961 -0.1923  0.3035 -0.8079
    3SAPS  H11A  277   0.472   3.421  10.986  1.3156  1.0388  0.4559
    3SAPS  H11B  278   0.573   3.283  11.053  0.0661  0.3008 -0.9154
    3SAPS     P  279   0.477   3.088  10.916  0.1600  0.2671  0.3111
    3SAPS   O13  280   0.605   3.068  10.987 -0.3132 -0.2994 -0.0565
    3SAPS   O14  281   0.356   3.046  10.992 -0.6272  0.4090  1.0048
    3SAPS   O12  282   0.454   3.237  10.887 -0.0088 -0.1220 -0.1191
    3SAPS   O11  283   0.480   3.024  10.773  0.5215 -0.0299  0.4984
    3SAPS    C1  284   0.588   2.960  10.707  0.1046  0.3104  0.0304
    3SAPS    HA  285   0.654   2.923  10.789  1.6679  0.3959 -1.1547
    3SAPS    HB  286   0.544   2.878  10.646 -1.4616  1.5908 -0.6028
    3SAPS    C2  287   0.669   3.053  10.618  0.4896 -0.0932  0.1613
    3SAPS    HS  288   0.713   3.144  10.664  3.4072 -0.0168 -2.6216
    3SAPS   O21  289   0.598   3.076  10.495  0.8205  0.1012  0.4685
    3SAPS   C21  290   0.524   3.185  10.493 -0.3052  0.0276  0.3415
    3SAPS   O22  291   0.530   3.269  10.579 -0.2673 -0.1059 -0.0724
    3SAPS   C22  292   0.434   3.194  10.363 -0.8143  0.1837  0.4546
    3SAPS   H2R  293   0.505   3.224  10.283 -0.2658 -1.4836  0.2921
    3SAPS   H2S  294   0.398   3.093  10.333 -2.4508  2.0196 -4.2790
    3SAPS    C3  295   0.794   2.977  10.584 -0.3752 -1.0532 -0.5430
    3SAPS    HX  296   0.857   2.959  10.674  0.6822  0.6218 -0.9207
    3SAPS    HY  297   0.853   3.051  10.526 -0.5005 -0.2041  0.4043
    3SAPS   O31  298   0.776   2.847  10.519  0.5081  0.1005 -0.1026
    3SAPS   C31  299   0.844   2.823  10.405  0.6542  0.1700 -0.0897
    3SAPS   O32  300   0.920   2.899  10.349 -0.6098  0.3963  0.2066
    3SAPS   C32  301   0.816   2.689  10.352  0.3162 -0.1833 -0.1100
    3SAPS   H2X  302   0.862   2.621  10.426  1.8288  1.7291  0.7438
    3SAPS   H2Y  303   0.862   2.683  10.251 -0.0075 -0.9798 -0.2111
    3SAPS   C23  304   0.306   3.284  10.360  0.5435 -0.7623  0.2114
    3SAPS   H3R  305   0.324   3.393  10.374 -1.8902 -0.1089 -1.4405
    3SAPS   H3S  306   0.241   3.239  10.437  0.9550 -1.5125  0.1314
    3SAPS   C24  307   0.236   3.273  10.222  0.1995  0.0938 -0.1543
    3SAPS   H4R  308   0.315   3.294  10.147  0.1820 -1.4423 -0.6102
    3SAPS   H4S  309   0.166   3.359  10.217  2.6748  2.1431 -0.6580
    3SAPS   C25  310   0.162   3.147  10.192 -0.4778  0.7420  0.0660
    3SAPS   H5R  311   0.071   3.140  10.254  0.0978 -2.0958  0.6410
    3SAPS   C26  312   0.203   3.048  10.109  0.2413 -0.5506  0.0140
    3SAPS   H6R  313   0.140   2.959  10.098 -1.3600  0.6280 -0.4399
    3SAPS   C27  314   0.332   3.038  10.030 -0.2481  0.5994  0.4621
    3SAPS   H7R  315   0.342   2.930  10.007 -2.8609  0.1823  1.1711
    3SAPS   H7S  316   0.422   3.071  10.087 -0.1937  0.1566  0.6342
    3SAPS   C28  317   0.314   3.126   9.911 -0.3360 -0.0107  0.1151
    3SAPS   H8R  318   0.321   3.235   9.915  0.5765 -0.1510  4.0071
    3SAPS   C29  319   0.265   3.074   9.795 -0.0054  0.6720 -0.3692
    3SAPS   H9R  320   0.262   3.151   9.717 -0.9825  1.3024  0.2722
    3SAPS  C210  321   0.224   2.934   9.756  0.0692 -0.1217  0.7443
    3SAPS  H10R  322   0.113   2.940   9.749  0.1516  0.3739 -0.2816
    3SAPS  H10S  323   0.253   2.855   9.828 -2.0849  1.1059  3.0144
    3SAPS  C211  324   0.279   2.902   9.617  0.3037  0.0319  0.1319
    3SAPS  H11R  325   0.384   2.872   9.622 -0.1565 -1.8439 -0.8524
    3SAPS  C212  326   0.207   2.890   9.505  0.6547  0.4737  0.4301
    3SAPS  H12R  327   0.254   2.872   9.407  0.7065 -0.9232  0.7030
    3SAPS  C213  328   0.057   2.909   9.485  0.3564  0.1017  0.3752
    3SAPS  H13R  329   0.006   2.977   9.556 -0.3306 -0.5580  0.5223
    3SAPS  H13S  330   0.002   2.812   9.495 -1.1543  0.9160  0.1228
    3SAPS  C214  331   0.030   2.963   9.343  0.3830  0.0091  0.2634
    3SAPS  H14R  332   0.026   3.073   9.339 -0.8858 -0.0419 -0.1043
    3SAPS  C215  333   0.045   2.898   9.226 -0.5263 -0.8909  0.2248
    3SAPS  H15R  334   0.023   2.946   9.129  0.2895  0.3616  0.6442
    3SAPS  C216  335   0.091   2.751   9.217 -0.4469 -0.3235  0.1074
    3SAPS  H16R  336   0.007   2.694   9.171 -0.8693 -0.9226  1.5727
    3SAPS  H16S  337   0.105   2.703   9.316  2.8920 -0.3683 -0.3295
    3SAPS  C217  338   0.229   2.752   9.142  0.2129  0.0839  0.1779
    3SAPS  H17R  339   0.299   2.813   9.204 -0.8166  1.6339 -0.1700
    3SAPS  H17S  340   0.210   2.820   9.056 -2.3487  0.4620  1.0031
    3SAPS  C218  341   0.266   2.603   9.115  0.4042  0.4316  0.3317
    3SAPS  H18R  342   0.200   2.570   9.032 -0.2137  3.7031 -0.5427
    3SAPS  H18S  343   0.229   2.534   9.194 -2.3046  2.0553  0.5539
    3SAPS  C219  344   0.410   2.576   9.083  0.2496 -0.0318 -0.4070
    3SAPS  H19R  345   0.422   2.466   9.070 -0.9851 -0.3033  0.7213
    3SAPS  H19S  346   0.476   2.594   9.171 -1.6814 -0.5626  1.1694
    3SAPS  C220  347   0.463   2.648   8.960 -0.6226  0.0726 -0.6775
    3SAPS  H20R  348   0.444   2.586   8.870 -2.4450  0.4300 -0.5511
    3SAPS  H20S  349   0.567   2.685   8.976 -0.2408 -0.6386 -1.4429
    3SAPS  H20T  350   0.398   2.737   8.946 -0.1412  0.6364  0.5561
    3SAPS   C33  351   0.666   2.660  10.344 -0.0250 -0.4326 -0.3676
    3SAPS   H3X  352   0.629   2.655  10.449 -1.6491 -1.4860 -0.9703
    3SAPS   H3Y  353   0.633   2.559  10.313 -1.7454  0.3395 -1.1247
    3SAPS   C34  354   0.576   2.756  10.266  0.5260 -0.2160  0.5596
    3SAPS   H4X  355   0.598   2.860  10.299  2.0410  0.6681 -2.9928
    3SAPS   H4Y  356   0.473   2.732  10.299  1.1890 -3.0593  0.6897
    3SAPS   C35  357   0.568   2.734  10.119  0.0748  0.2056  0.3376
    3SAPS   H5X  358   0.481   2.794  10.084 -0.2036 -0.4864 -0.1574
    3SAPS   H5Y  359   0.569   2.625  10.098 -0.6957  0.0548  1.0778
    3SAPS   C36  360   0.697   2.785  10.042  0.4880 -0.3468 -0.3803
    3SAPS   H6X  361   0.779   2.717  10.075 -0.3969 -1.0239  0.4778
    3SAPS   H6Y  362   0.711   2.880  10.098 -0.0356 -1.2463  1.3082
    3SAPS   C37  363   0.696   2.779   9.885 -0.1428  1.3751 -0.3501
    3SAPS   H7X  364   0.685   2.671   9.860  1.7667  0.7992  1.2216
    3SAPS   H7Y  365   0.796   2.813   9.851 -0.4524  1.5288 -1.1132
    3SAPS   C38  366   0.600   2.872   9.807 -0.2277  0.2881  0.2239
    3SAPS   H8X  367   0.598   2.977   9.841 -1.9492 -0.0459  1.1848
    3SAPS   H8Y  368   0.499   2.825   9.806 -0.3597  0.4448 -3.6939
    3SAPS   C39  369   0.638   2.891   9.661  0.1974  0.2150  0.0452
    3SAPS   H9X  370   0.739   2.937   9.651  1.1237 -1.5876  0.7338
    3SAPS   H9Y  371   0.573   2.965   9.609 -2.1550 -2.7010 -1.3194
    3SAPS  C310  372   0.659   2.759   9.593 -0.7183 -0.1583 -0.0310
    3SAPS  H10X  373   0.568   2.698   9.611  1.3134 -3.3264 -0.0869
    3SAPS  H10Y  374   0.747   2.704   9.632 -0.4100 -1.1984 -2.1074
    3SAPS  C311  375   0.696   2.770   9.443  0.8272  0.1050 -0.4358
    3SAPS  H11X  376   0.778   2.841   9.418  0.3214  1.3310  1.3099
    3SAPS  H11Y  377   0.608   2.812   9.391 -1.2468  0.7641  3.4538
    3SAPS  C312  378   0.719   2.636   9.380  0.1110  0.1386 -0.9434
    3SAPS  H12X  379   0.628   2.573   9.387  0.5779 -0.5447 -0.9705
    3SAPS  H12Y  380   0.802   2.587   9.435  0.0449 -1.0565 -1.8889
    3SAPS  C313  381   0.758   2.645   9.230 -0.2068  0.2976  0.0084
    3SAPS  H13X  382   0.853   2.699   9.212  0.8666 -1.9940 -1.4804
    3SAPS  H13Y  383   0.681   2.706   9.178  0.8407  1.9538  0.3908
    3SAPS  C314  384   0.769   2.504   9.158 -0.8400  0.1282  0.2237
    3SAPS  H14X  385   0.680   2.437   9.165 -0.3245 -0.7068 -1.0344
    3SAPS  H14Y  386   0.846   2.449   9.216 -1.3113  0.5846  1.3060
    3SAPS  C315  387   0.805   2.504   9.009  0.4439  0.0839 -0.0111
    3SAPS  H15X  388   0.912   2.488   8.984  0.5253 -1.4225  1.1867
    3SAPS  H15Y  389   0.788   2.611   8.984 -1.3092  0.0703  1.0341
    3SAPS  C316  390   0.723   2.411   8.913 -0.0815  0.0883  0.2060
    3SAPS  H16X  391   0.621   2.422   8.956  1.0180 -0.3721  3.0134
    3SAPS  H16Y  392   0.742   2.302   8.929 -0.5378 -0.5216 -3.0393
    3SAPS  C317  393   0.719   2.449   8.763  0.4047 -0.5201 -0.6466
    3SAPS  H17X  394   0.821   2.451   8.721  0.9682 -0.4268  0.7160
    3SAPS  H17Y  395   0.670   2.546   8.740  3.2218  1.2154  0.4812
    3SAPS  C318  396   0.632   2.350   8.683  0.3132 -0.9719 -0.0298
    3SAPS  H18X  397   0.628   2.380   8.576 -0.1584 -0.6206  0.0852
    3SAPS  H18Y  398   0.526   2.362   8.715  0.5117  2.0515 -0.3268
    3SAPS  H18Z  399   0.665   2.245   8.693 -0.1756 -1.2065 -0.8429
    4SAPS     N  400   3.276   3.250  10.861 -0.1966 -0.1038  0.0984
    4SAPS   HN1  401   3.302   3.262  10.761 -2.2881 -0.4847 -0.5216
    4SAPS   HN2  402   3.262   3.341  10.909 -2.2092 -0.7163  0.7394
    4SAPS   HN3  403   3.345   3.188  10.907 -0.3747 -0.4423 -0.0890
    4SAPS   C12  404   3.154   3.174  10.871  0.1298 -0.5576  0.1314
    4SAPS  H12A  405   3.176   3.085  10.814 -1.2291 -1.3344  0.8171
    4SAPS   C13  406   3.098   3.137  11.012  0.8080 -0.0059  0.0030
    4SAPS  O13A  407   3.158   3.183  11.114 -0.0038 -0.0443 -0.2572
    4SAPS  O13B  408   3.002   3.062  11.015 -0.0538  1.0121  0.3782
    4SAPS   C11  409   3.039   3.251  10.793 -0.0535 -0.3387 -0.3814
    4SAPS  H11A  410   3.001   3.336  10.855  1.7681 -0.6410  1.2065
    4SAPS  H11B  411   2.952   3.181  10.794  0.4310 -0.9492 -0.8789
    4SAPS     P  412   3.142   3.406  10.594  0.0898  0.0063  0.3798
    4SAPS   O13  413   3.071   3.538  10.616 -0.5593 -0.2308  0.0817
    4SAPS   O14  414   3.278   3.398  10.642  0.5540 -0.2226  0.9842
    4SAPS   O12  415   3.062   3.279  10.654 -0.3829  0.4679  0.1296
    4SAPS   O11  416   3.128   3.370  10.447  0.3483 -0.0943 -0.0043
    4SAPS    C1  417   3.012   3.307  10.390  0.3208  1.3782 -0.0582
    4SAPS    HA  418   3.009   3.198  10.411  0.4806  1.4609  0.4063
    4SAPS    HB  419   2.914   3.338  10.430  0.8187  3.3401 -0.3117
    4SAPS    C2  420   3.007   3.342  10.241  0.0479 -0.0351 -0.5272
    4SAPS    HS  421   2.923   3.278  10.206 -0.1788 -1.2130  2.0666
    4SAPS   O21  422   3.129   3.314  10.173 -0.1209  0.5080 -0.1991
    4SAPS   C21  423   3.194   3.200  10.181  0.1400 -0.1016  0.0262
    4SAPS   O22  424   3.156   3.099  10.240  0.5516  0.6111  0.3103
    4SAPS   C22  425   3.323   3.214  10.107 -0.2716  0.2374  0.3549
    4SAPS   H2R  426   3.337   3.320  10.077 -1.4733  1.2853  3.3725
    4SAPS   H2S  427   3.392   3.198  10.193  0.4490  1.8582  0.0916
    4SAPS    C3  428   2.974   3.496  10.237 -0.7742 -0.0795  0.5158
    4SAPS    HX  429   3.048   3.560  10.289  1.5056 -2.1360 -0.1120
    4SAPS    HY  430   2.885   3.519  10.300 -0.2453 -0.8302  1.5576
    4SAPS   O31  431   2.972   3.529  10.101  0.1945 -0.2738  0.2329
    4SAPS   C31  432   2.863   3.520  10.028  0.0499  0.7632 -0.4154
    4SAPS   O32  433   2.754   3.482  10.067  0.0971  0.0139 -0.0967
    4SAPS   C32  434   2.887   3.574   9.887  0.2418 -1.0839  0.9866
    4SAPS   H2X  435   2.973   3.523   9.839  0.5430  1.7354 -1.5834
    4SAPS   H2Y  436   2.907   3.683   9.888  2.3713 -1.4037 -1.0159
    4SAPS   C23  437   3.350   3.108   9.998  0.2928 -0.2788  0.0871
    4SAPS   H3R  438   3.358   3.002  10.032 -2.2881  0.0176  1.7678
    4SAPS   H3S  439   3.455   3.120   9.964  0.5464 -0.9177  0.6204
    4SAPS   C24  440   3.247   3.106   9.880 -0.4860  0.4641  0.0072
    4SAPS   H4R  441   3.149   3.083   9.927  0.6215 -3.0619  0.7334
    4SAPS   H4S  442   3.260   3.013   9.821 -0.2148  0.3319  0.2726
    4SAPS   C25  443   3.249   3.221   9.783  0.1898  0.3321  0.1796
    4SAPS   H5R  444   3.323   3.299   9.806 -0.3273  0.6231  0.8615
    4SAPS   C26  445   3.173   3.231   9.675 -0.6978 -0.1297  0.2602
    4SAPS   H6R  446   3.190   3.323   9.616 -1.3085  0.6607  1.2920
    4SAPS   C27  447   3.071   3.132   9.629  0.6517 -0.2701  0.5136
    4SAPS   H7R  448   3.065   3.055   9.709  0.0851  0.6471  1.3606
    4SAPS   H7S  449   3.117   3.082   9.542  1.5498  0.3529  0.6193
    4SAPS   C28  450   2.942   3.196   9.592 -0.6770 -0.7160 -0.6607
    4SAPS   H8R  451   2.869   3.202   9.675 -0.0755 -0.0776 -0.1770
    4SAPS   C29  452   2.909   3.240   9.470  0.1551 -0.3859 -0.6618
    4SAPS   H9R  453   2.808   3.281   9.453 -0.9955 -2.8367  0.0334
    4SAPS  C210  454   2.988   3.244   9.343 -0.4395 -0.0978 -0.2293
    4SAPS  H10R  455   2.958   3.173   9.263  2.7171 -1.1700 -0.5596
    4SAPS  H10S  456   3.096   3.218   9.348 -0.4413 -0.1137 -0.2763
    4SAPS  C211  457   2.974   3.385   9.294 -0.9575  0.6267  0.4219
    4SAPS  H11R  458   3.003   3.461   9.368  3.1130  1.9986 -2.4299
    4SAPS  C212  459   2.954   3.423   9.169  0.0188 -0.8106 -0.0057
    4SAPS  H12R  460   2.963   3.531   9.154 -0.9320 -0.9170 -1.5383
    4SAPS  C213  461   2.937   3.330   9.051 -0.6781  0.2782 -0.9031
    4SAPS  H13R  462   2.983   3.231   9.069  2.0961  2.0141  2.1328
    4SAPS  H13S  463   2.982   3.366   8.956  1.1823 -0.0686 -0.1601
    4SAPS  C214  464   2.793   3.303   9.011 -0.5415  1.4242  0.2602
    4SAPS  H14R  465   2.737   3.234   9.075  1.2660 -1.8687 -1.6014
    4SAPS  C215  466   2.726   3.361   8.919  0.0821  0.5007  1.0323
    4SAPS  H15R  467   2.618   3.341   8.915  0.1937  0.0984 -0.4925
    4SAPS  C216  468   2.765   3.465   8.813 -0.1098  0.2933  0.2948
    4SAPS  H16R  469   2.875   3.458   8.798 -0.2717  0.0944 -0.8493
    4SAPS  H16S  470   2.742   3.568   8.847  0.7699  0.6697 -0.2482
    4SAPS  C217  471   2.710   3.428   8.671  0.6458  0.5834 -0.6070
    4SAPS  H17R  472   2.727   3.321   8.647 -0.8414  0.2377 -0.2009
    4SAPS  H17S  473   2.773   3.485   8.599 -0.8852  0.5041 -2.0399
    4SAPS  C218  474   2.557   3.463   8.660 -1.0897  0.3257  0.2206
    4SAPS  H18R  475   2.549   3.568   8.695  0.3452 -0.2806  2.4648
    4SAPS  H18S  476   2.496   3.394   8.722 -2.8128 -0.4277 -2.2289
    4SAPS  C219  477   2.511   3.473   8.520  0.6302 -0.8319 -0.1541
    4SAPS  H19R  478   2.530   3.378   8.467 -1.2357 -2.2395  1.6302
    4SAPS  H19S  479   2.572   3.552   8.472  0.2556  1.7807  3.4775
    4SAPS  C220  480   2.368   3.499   8.502 -0.0554 -0.1559 -0.4881
    4SAPS  H20R  481   2.305   3.408   8.511 -2.2182  1.4336  0.8235
    4SAPS  H20S  482   2.341   3.544   8.404 -3.3842 -1.1414 -0.0817
    4SAPS  H20T  483   2.329   3.569   8.579 -0.1250  0.2954 -0.9282
    4SAPS   C33  484   2.768   3.545   9.794 -0.0886  0.1050 -0.2052
    4SAPS   H3X  485   2.684   3.601   9.840 -0.4565  0.7159 -1.6194
    4SAPS   H3Y  486   2.750   3.436   9.808 -0.2797  0.3553  1.7011
    4SAPS   C34  487   2.800   3.586   9.648  0.2290  0.1627  0.3518
    4SAPS   H4X  488   2.734   3.531   9.578  0.6386 -1.4620  1.2252
    4SAPS   H4Y  489   2.904   3.549   9.630 -0.2720 -1.4346  0.6837
    4SAPS   C35  490   2.780   3.734   9.615 -0.0850 -0.5521  0.7802
    4SAPS   H5X  491   2.844   3.805   9.672 -0.5947 -0.7554  1.5987
    4SAPS   H5Y  492   2.675   3.765   9.634 -0.1239 -0.7400  0.8709
    4SAPS   C36  493   2.807   3.752   9.463 -0.2584  0.2750  0.3753
    4SAPS   H6X  494   2.905   3.706   9.437 -0.5024  0.2329 -0.4854
    4SAPS   H6Y  495   2.817   3.863   9.456  0.5584  0.1280 -0.9894
    4SAPS   C37  496   2.700   3.711   9.370  0.9595 -0.1344  0.6793
    4SAPS   H7X  497   2.601   3.761   9.376  1.2130  0.4289  0.2967
    4SAPS   H7Y  498   2.684   3.601   9.379  3.0374 -0.6417 -1.3220
    4SAPS   C38  499   2.758   3.757   9.230 -0.7154  0.2728  0.6402
    4SAPS   H8X  500   2.857   3.708   9.224 -1.2448 -0.8485  0.8522
    4SAPS   H8Y  501   2.766   3.864   9.202 -0.8622  0.1985  0.3062
    4SAPS   C39  502   2.677   3.693   9.115 -0.8148 -0.3998 -0.3833
    4SAPS   H9X  503   2.644   3.590   9.140  0.4922 -0.1932  2.4048
    4SAPS   H9Y  504   2.755   3.680   9.038  0.8652 -0.7489  1.3222
    4SAPS  C310  505   2.569   3.793   9.075 -0.6280  0.6085 -0.0427
    4SAPS  H10X  506   2.626   3.884   9.045  0.5671  0.5907  2.0662
    4SAPS  H10Y  507   2.518   3.814   9.172 -1.2521 -0.2354 -0.1925
    4SAPS  C311  508   2.478   3.739   8.963  0.7395  0.2126  0.3244
    4SAPS  H11X  509   2.544   3.696   8.885 -0.3443 -1.0198  0.0838
    4SAPS  H11Y  510   2.433   3.831   8.921  0.2648  1.7962  4.1164
    4SAPS  C312  511   2.363   3.645   9.005 -0.1533 -0.0715 -0.0020
    4SAPS  H12X  512   2.298   3.695   9.081  0.1763  0.3385  0.0077
    4SAPS  H12Y  513   2.413   3.566   9.065 -1.3742 -1.7379 -1.1328
    4SAPS  C313  514   2.277   3.594   8.887 -0.2041 -0.9026 -0.1566
    4SAPS  H13X  515   2.213   3.518   8.937  0.6413 -1.6537 -0.2059
    4SAPS  H13Y  516   2.336   3.535   8.814  0.5233  1.0201 -1.1555
    4SAPS  C314  517   2.197   3.704   8.814 -0.5196 -0.1724 -0.1172
    4SAPS  H14X  518   2.263   3.754   8.740  0.6407  0.9944  1.6634
    4SAPS  H14Y  519   2.171   3.777   8.894  2.6730  1.6075 -0.6260
    4SAPS  C315  520   2.070   3.669   8.742  0.5268  0.0147 -0.0972
    4SAPS  H15X  521   1.987   3.636   8.809  0.7842  0.1788  0.2973
    4SAPS  H15Y  522   2.088   3.575   8.685 -0.6390 -0.5154  0.3695
    4SAPS  C316  523   2.027   3.778   8.636  0.1463 -0.2847  0.1060
    4SAPS  H16X  524   2.111   3.826   8.583 -0.4544  0.3848 -0.2522
    4SAPS  H16Y  525   1.968   3.859   8.685 -0.3159 -0.5713  0.0287
    4SAPS  C317  526   1.935   3.721   8.535 -0.5461  0.1242 -0.1173
    4SAPS  H17X  527   1.844   3.689   8.589 -0.3504 -0.8906 -0.3724
    4SAPS  H17Y  528   1.989   3.628   8.508  1.1798  1.0609  0.0069
    4SAPS  C318  529   1.903   3.806   8.413 -0.8168 -0.1088  0.3902
    4SAPS  H18X  530   1.850   3.747   8.334  3.0431  0.2847 -2.6600
    4SAPS  H18Y  531   1.994   3.839   8.359 -0.5831 -0.5665  0.5020
    4SAPS  H18Z  532   1.840   3.889   8.451 -0.1740  0.5423  0.0641
    5SAPS     N  533   0.129   2.908  10.996  0.6949  0.5108  0.1426
    5SAPS   HN1  534   0.055   2.960  10.946 -0.6823  0.0560  1.6535
    5SAPS   HN2  535   0.204   2.981  11.006 -0.4499  1.5410  1.4629
    5SAPS   HN3  536   0.157   2.828  10.936  1.6628  0.3030  0.8535
    5SAPS   C12  537   0.065   2.863  11.124 -0.2282  0.7503  0.6191
    5SAPS  H12A  538   0.123   2.776  11.153 -1.4260 -0.9777 -1.9863
    5SAPS   C13  539   0.053   2.962  11.244  0.9244  0.0294  0.1830
    5SAPS  O13A  540   0.093   3.083  11.233  0.6973 -0.2723  0.4059
    5SAPS  O13B  541   0.006   2.923  11.356 -0.4073 -0.2798  0.8957
    5SAPS   C11  542  -0.078   2.818  11.103 -0.7274  0.6297 -0.2035
    5SAPS  H11A  543  -0.129   2.799  11.200  0.6033  3.7016  1.1284
    5SAPS  H11B  544  -0.077   2.721  11.048 -0.4285  0.9188 -0.7053
    5SAPS     P  545  -0.289   2.888  10.960  0.1121  0.0815 -0.0660
    5SAPS   O13  546  -0.370   2.802  11.050  0.1837  0.1773  0.9002
    5SAPS   O14  547  -0.360   3.012  10.921  1.0152  0.5528  0.4996
    5SAPS   O12  548  -0.151   2.916  11.028 -0.1223 -0.9536  0.0356
    5SAPS   O11  549  -0.252   2.807  10.832 -0.4032 -0.5565  0.3366
    5SAPS    C1  550  -0.137   2.853  10.751  0.0793 -0.1760 -0.8318
    5SAPS    HA  551  -0.132   2.963  10.763  0.3586 -0.1538 -1.1376
    5SAPS    HB  552  -0.046   2.804  10.791  0.8234  2.1637  0.4431
    5SAPS    C2  553  -0.153   2.817  10.602  0.3755  0.1801 -0.4444
    5SAPS    HS  554  -0.092   2.891  10.546  1.4102  0.6817  1.3077
    5SAPS   O21  555  -0.289   2.831  10.566  0.0162 -0.4035  0.8234
    5SAPS   C21  556  -0.332   2.946  10.544 -0.4051  0.0851  0.8077
    5SAPS   O22  557  -0.270   3.048  10.544  0.3759 -0.3039 -0.4002
    5SAPS   C22  558  -0.479   2.931  10.510  0.5667  0.1995  0.6472
    5SAPS   H2R  559  -0.516   2.836  10.555 -2.8275  1.7770  1.3066
    5SAPS   H2S  560  -0.543   3.014  10.546 -0.6599 -0.2479 -0.4378
    5SAPS    C3  561  -0.103   2.669  10.590  0.4338 -0.3243  0.1876
    5SAPS    HX  562  -0.173   2.610  10.654  2.1808 -1.0577  1.4763
    5SAPS    HY  563   0.006   2.665  10.612  0.8330  0.0789 -1.7158
    5SAPS   O31  564  -0.115   2.608  10.456 -0.3774 -0.0012  0.0055
    5SAPS   C31  565  -0.025   2.660  10.369  0.8299  0.0491 -0.5488
    5SAPS   O32  566   0.069   2.736  10.397  0.2713 -0.5405 -0.2637
    5SAPS   C32  567  -0.068   2.610  10.230  0.4987 -0.2205 -1.0226
    5SAPS   H2X  568  -0.153   2.676  10.203  1.6786  2.0654  0.7060
    5SAPS   H2Y  569  -0.096   2.503  10.234  0.0525 -0.1978 -3.1499
    5SAPS   C23  570  -0.508   2.921  10.357  0.8671  0.0413  0.2122
    5SAPS   H3R  571  -0.506   3.026  10.320 -0.9376  0.3125  0.8308
    5SAPS   H3S  572  -0.611   2.881  10.343  0.7495  1.2937 -2.9118
    5SAPS   C24  573  -0.402   2.828  10.296  0.7649  0.3911  0.9095
    5SAPS   H4R  574  -0.419   2.738  10.359  1.1813 -0.1356  0.2804
    5SAPS   H4S  575  -0.297   2.864  10.303  0.9258 -0.1417  1.2108
    5SAPS   C25  576  -0.442   2.791  10.150 -0.2655  0.2090 -0.0450
    5SAPS   H5R  577  -0.523   2.715  10.148 -0.6232  0.5957 -0.4032
    5SAPS   C26  578  -0.380   2.838  10.035 -0.4328 -0.2119  0.8531
    5SAPS   H6R  579  -0.424   2.799   9.943  0.4583 -0.8679  0.6966
    5SAPS   C27  580  -0.257   2.930  10.021 -0.1017 -0.2967 -0.9569
    5SAPS   H7R  581  -0.232   2.943   9.914 -3.0683 -1.3627 -1.8500
    5SAPS   H7S  582  -0.177   2.895  10.089  1.7782  3.0002 -1.3539
    5SAPS   C28  583  -0.276   3.074  10.068  0.2628  0.3962  0.1369
    5SAPS   H8R  584  -0.325   3.083  10.166 -1.5444  0.4366 -0.7382
    5SAPS   C29  585  -0.223   3.184  10.006 -0.3846 -0.1236  0.4968
    5SAPS   H9R  586  -0.248   3.282  10.050  1.3551  0.8633 -0.6792
    5SAPS  C210  587  -0.131   3.183   9.889  0.1299 -0.0907  0.1059
    5SAPS  H10R  588  -0.065   3.098   9.916 -3.2141 -2.1662  2.2053
    5SAPS  H10S  589  -0.080   3.281   9.898 -0.1455 -0.1852  3.2316
    5SAPS  C211  590  -0.184   3.173   9.750 -0.1361 -0.3899  0.1418
    5SAPS  H11R  591  -0.279   3.119   9.739 -0.5967 -0.0397  2.1274
    5SAPS  C212  592  -0.119   3.218   9.635  0.6766  0.2957 -0.0847
    5SAPS  H12R  593  -0.168   3.217   9.536 -2.3419  1.6674  1.3485
    5SAPS  C213  594   0.005   3.302   9.610  0.3455  0.2328  0.7100
    5SAPS  H13R  595   0.081   3.242   9.556 -0.4412  0.1534 -0.3377
    5SAPS  H13S  596   0.057   3.317   9.706  2.6083 -1.0100 -0.2945
    5SAPS  C214  597  -0.038   3.430   9.542  0.5503 -0.1677  0.0635
    5SAPS  H14R  598  -0.129   3.477   9.581 -0.9628 -1.1599 -2.1208
    5SAPS  C215  599   0.009   3.475   9.427  0.4220 -0.1795 -0.3845
    5SAPS  H15R  600  -0.043   3.565   9.390 -0.6876  0.3628  2.3927
    5SAPS  C216  601   0.117   3.425   9.339  0.0250 -0.1951  0.1706
    5SAPS  H16R  602   0.121   3.316   9.361  1.4821  0.1364  1.6868
    5SAPS  H16S  603   0.213   3.476   9.362 -0.5950  1.0334  0.0337
    5SAPS  C217  604   0.100   3.438   9.190 -0.0652 -0.0828 -0.1652
    5SAPS  H17R  605   0.199   3.424   9.141 -0.1612  0.5944 -0.5620
    5SAPS  H17S  606   0.065   3.541   9.168  0.7026  0.1318 -0.4058
    5SAPS  C218  607   0.007   3.331   9.125 -0.0634 -0.4957  0.0926
    5SAPS  H18R  608   0.059   3.234   9.139  0.9919  0.1321  0.6651
    5SAPS  H18S  609  -0.090   3.338   9.179 -0.2696  0.2283 -0.3773
    5SAPS  C219  610  -0.023   3.351   8.980  0.0699 -0.7397 -0.4812
    5SAPS  H19R  611   0.075   3.338   8.929 -0.4329  2.0199 -2.2498
    5SAPS  H19S  612  -0.051   3.457   8.960  1.1198 -0.1210  1.1519
    5SAPS  C220  613  -0.131   3.268   8.917 -0.2339  1.0972  0.0367
    5SAPS  H20R  614  -0.230   3.280   8.966 -0.3954  1.4402 -0.3734
    5SAPS  H20S  615  -0.111   3.159   8.911  0.8116  1.2773  0.1833
    5SAPS  H20T  616  -0.130   3.294   8.809  1.0499 -0.0319 -0.2424
    5SAPS   C33  617   0.033   2.626  10.110 -0.3649  0.1216 -0.2550
    5SAPS   H3X  618   0.129   2.573  10.127  0.4362  0.1248 -4.1542
    5SAPS   H3Y  619   0.065   2.731  10.094 -1.0995  0.0444 -2.3737
    5SAPS   C34  620  -0.024   2.569   9.978 -0.2088  1.2366 -0.5457
    5SAPS   H4X  621  -0.128   2.606   9.965 -0.7414 -0.2012 -0.4149
    5SAPS   H4Y  622  -0.021   2.459   9.996 -0.8178  1.5627  1.7142
    5SAPS   C35  623   0.067   2.595   9.856  0.5002 -0.1882  0.0499
    5SAPS   H5X  624   0.173   2.615   9.885  0.4395 -2.4423  1.9872
    5SAPS   H5Y  625   0.040   2.685   9.798  1.1344  1.1411  1.7589
    5SAPS   C36  626   0.074   2.476   9.760 -0.4784 -0.0757 -0.2656
    5SAPS   H6X  627  -0.002   2.489   9.680 -0.0211  0.3687 -0.6290
    5SAPS   H6Y  628   0.051   2.381   9.813 -0.9840  0.3265  0.2444
    5SAPS   C37  629   0.213   2.465   9.694  0.0413  0.5385 -0.2401
    5SAPS   H7X  630   0.289   2.463   9.775 -2.1762  3.3089  2.0450
    5SAPS   H7Y  631   0.230   2.562   9.643  2.0938  1.6607  2.4946
    5SAPS   C38  632   0.229   2.354   9.585  0.1294  0.2437  0.2826
    5SAPS   H8X  633   0.156   2.371   9.504 -0.8808 -0.4441  1.0277
    5SAPS   H8Y  634   0.182   2.259   9.621 -0.9501  0.4210 -0.6256
    5SAPS   C39  635   0.375   2.325   9.532  0.2239 -0.1863  0.1226
    5SAPS   H9X  636   0.426   2.306   9.629  0.9397 -3.5965 -0.8735
    5SAPS   H9Y  637   0.420   2.416   9.486  1.8947 -1.9111 -1.7522
    5SAPS  C310  638   0.381   2.213   9.427 -0.0648  0.3468  0.9937
    5SAPS  H10X  639   0.325   2.237   9.333  1.9771  0.3049 -0.2594
    5SAPS  H10Y  640   0.339   2.125   9.480 -2.6299  0.9820  0.1098
    5SAPS  C311  641   0.525   2.182   9.392 -0.4844  0.0696  0.7607
    5SAPS  H11X  642   0.580   2.135   9.476 -0.7139 -1.4344  0.0684
    5SAPS  H11Y  643   0.576   2.272   9.350  0.6828  0.2465  2.5109
    5SAPS  C312  644   0.517   2.086   9.269  0.3419 -0.9108  0.3227
    5SAPS  H12X  645   0.475   1.987   9.298  1.5428 -1.2933  0.8187
    5SAPS  H12Y  646   0.616   2.046   9.240 -0.0961 -2.1267  0.4656
    5SAPS  C313  647   0.469   2.154   9.136 -0.0083  0.3415  0.2624
    5SAPS  H13X  648   0.543   2.235   9.118 -1.6572  1.6885 -0.5226
    5SAPS  H13Y  649   0.371   2.204   9.152 -0.0183  0.3533  0.1634
    5SAPS  C314  650   0.467   2.055   9.019  0.1635  0.3553 -0.0105
    5SAPS  H14X  651   0.389   1.979   9.040 -0.8981  0.9749 -1.5953
    5SAPS  H14Y  652   0.562   1.997   9.013 -0.2039 -0.3735  0.9979
    5SAPS  C315  653   0.436   2.117   8.884  0.4091 -0.0716 -0.5820
    5SAPS  H15X  654   0.517   2.190   8.861  0.1550  0.8423  1.2942
    5SAPS  H15Y  655   0.343   2.177   8.873 -0.3450 -1.5915 -2.5588
    5SAPS  C316  656   0.422   2.015   8.767  0.1129 -0.2254 -0.4479
    5SAPS  H16X  657   0.518   1.958   8.762  0.1540 -0.2960  1.0736
    5SAPS  H16Y  658   0.409   2.074   8.674 -2.7387  0.7091  0.5223
    5SAPS  C317  659   0.300   1.924   8.773 -0.6072  0.6205  0.4820
    5SAPS  H17X  660   0.201   1.970   8.753 -0.9134 -1.1346 -2.3586
    5SAPS  H17Y  661   0.306   1.883   8.876  1.3995 -0.7698 -0.1467
    5SAPS  C318  662   0.307   1.806   8.673 -0.1544  0.3159 -0.1656
    5SAPS  H18X  663   0.221   1.736   8.684 -1.5611  2.2080  1.0426
    5SAPS  H18Y  664   0.400   1.745   8.682 -1.3251 -1.3323  1.0073
    5SAPS  H18Z  665   0.294   1.841   8.568 -0.3505  0.4402 -0.0994
    6SAPS     N  666   5.506   2.172  10.778  0.3398  0.0497  0.4532
    6SAPS   HN1  667   5.597   2.142  10.817  1.0727  1.8420  0.1369
    6SAPS   HN2  668   5.535   2.216  10.688  0.0616  2.0399  1.3154
    6SAPS   HN3  669   5.462   2.238  10.845  3.1402 -0.3660  2.7858
    6SAPS   C12  670   5.426   2.045  10.755  1.0534 -0.1226 -0.1989
    6SAPS  H12A  671   5.404   2.000  10.851 -2.4339 -1.1657 -1.4350
    6SAPS   C13  672   5.285   2.060  10.682  0.3153 -0.6363  0.9465
    6SAPS  O13A  673   5.240   2.175  10.653 -0.6732 -0.3373 -0.6031
    6SAPS  O13B  674   5.219   1.953  10.664 -0.5618  0.2379 -0.3108
    6SAPS   C11  675   5.517   1.948  10.672 -0.0318  0.0787 -0.2501
    6SAPS  H11A  676   5.527   1.997  10.573 -1.0108 -1.1814 -0.9849
    6SAPS  H11B  677   5.458   1.855  10.655 -0.4827  0.2718  0.2638
    6SAPS     P  678   5.769   1.975  10.720 -0.4071 -0.0532  0.0432
    6SAPS   O13  679   5.747   2.118  10.681  0.3534 -0.2256 -0.9305
    6SAPS   O14  680   5.848   1.956  10.848 -0.0109 -0.7017  0.1145
    6SAPS   O12  681   5.630   1.902  10.734  0.4627  0.2030  0.1390
    6SAPS   O11  682   5.851   1.899  10.611 -0.2195 -0.1011 -0.1549
    6SAPS    C1  683   5.820   1.762  10.569  0.3854 -0.3449  0.9049
    6SAPS    HA  684   5.915   1.716  10.533 -0.7547 -2.6429  0.7297
    6SAPS    HB  685   5.781   1.701  10.654 -1.3675 -2.6139 -1.4400
    6SAPS    C2  686   5.729   1.752  10.448 -0.4703 -0.4901  0.8359
    6SAPS    HS  687   5.786   1.702  10.367  2.6577 -0.6305  3.0140
    6SAPS   O21  688   5.694   1.888  10.405 -0.3837  0.0110  0.3813
    6SAPS   C21  689   5.784   1.959  10.347 -0.6756  0.2043 -0.3373
    6SAPS   O22  690   5.897   1.916  10.324 -0.0497  0.4172  0.9325
    6SAPS   C22  691   5.731   2.096  10.324 -0.1030  0.3512 -0.3960
    6SAPS   H2R  692   5.626   2.100  10.359 -0.2184  0.4630 -0.7468
    6SAPS   H2S  693   5.793   2.159  10.392 -1.4441 -1.1414  2.2910
    6SAPS    C3  694   5.601   1.669  10.468  0.7257 -0.5271  0.2609
    6SAPS    HX  695   5.548   1.687  10.373 -0.4360  2.4166  1.3998
    6SAPS    HY  696   5.555   1.702  10.564  0.5643 -0.2601  0.0927
    6SAPS   O31  697   5.630   1.526  10.475 -0.3675 -0.0012  0.2711
    6SAPS   C31  698   5.510   1.464  10.493 -0.2455  0.2195  0.7313
    6SAPS   O32  699   5.411   1.521  10.529  0.1410 -0.0294 -0.7729
    6SAPS   C32  700   5.521   1.315  10.455  0.3435 -0.1596 -0.2000
    6SAPS   H2X  701   5.498   1.255  10.546 -0.8405  2.3328  1.2339
    6SAPS   H2Y  702   5.625   1.290  10.426  0.3715 -0.5647  0.2291
    6SAPS   C23  703   5.740   2.148  10.174  0.2088 -0.1841 -0.1833
    6SAPS   H3R  704   5.671   2.092  10.108  1.3131 -0.2253 -1.3172
    6SAPS   H3S  705   5.840   2.111  10.145 -0.3876 -2.1399  0.1485
    6SAPS   C24  706   5.745   2.301  10.157  0.0964  0.1195  0.2643
    6SAPS   H4R  707   5.814   2.316  10.071 -2.4746 -0.0460 -1.9225
    6SAPS   H4S  708   5.783   2.349  10.250 -0.6924 -1.3755  1.3795
    6SAPS   C25  709   5.613   2.359  10.141  0.5760  0.0631 -0.5874
    6SAPS   H5R  710   5.537   2.293  10.184 -0.1778  0.5007 -1.2181
    6SAPS   C26  711   5.578   2.475  10.078 -0.0360  0.0910 -0.0470
    6SAPS   H6R  712   5.473   2.508  10.081  0.3320  1.2262  0.2790
    6SAPS   C27  713   5.665   2.574  10.004 -0.0660 -0.4346  0.2058
    6SAPS   H7R  714   5.758   2.521   9.975  0.0764  1.3107 -2.6754
    6SAPS   H7S  715   5.704   2.650  10.075 -0.2064 -1.3700  1.3103
    6SAPS   C28  716   5.601   2.632   9.883  0.0547 -0.0703  0.2955
    6SAPS   H8R  717   5.524   2.706   9.909 -1.0641 -1.1173  0.0222
    6SAPS   C29  718   5.645   2.641   9.761 -0.1577  0.5582 -0.1931
    6SAPS   H9R  719   5.592   2.699   9.683 -0.0742  3.2920  1.7254
    6SAPS  C210  720   5.773   2.585   9.702  0.2642 -0.5920  0.2130
    6SAPS  H10R  721   5.758   2.549   9.599  0.3500 -0.2770  0.0887
    6SAPS  H10S  722   5.802   2.494   9.759 -0.8268 -3.0404 -2.9952
    6SAPS  C211  723   5.892   2.677   9.712  0.6404 -0.0857 -0.2407
    6SAPS  H11R  724   5.937   2.689   9.812 -1.4688  0.8115  0.6419
    6SAPS  C212  725   5.937   2.744   9.605  0.1564  0.0917 -0.7521
    6SAPS  H12R  726   6.015   2.819   9.627  1.6182 -1.2501 -1.2807
    6SAPS  C213  727   5.881   2.760   9.470  0.7389 -0.1352 -0.1578
    6SAPS  H13R  728   5.884   2.869   9.449  1.0194 -0.0456  0.3519
    6SAPS  H13S  729   5.774   2.729   9.462  0.9518 -0.6971 -0.9805
    6SAPS  C214  730   5.958   2.679   9.369 -0.0297 -0.4111 -0.0737
    6SAPS  H14R  731   6.011   2.589   9.404  0.2436 -0.4717 -0.6391
    6SAPS  C215  732   5.964   2.709   9.236  0.1576 -0.1006 -0.1371
    6SAPS  H15R  733   6.023   2.644   9.171  0.8851 -1.2488  1.6246
    6SAPS  C216  734   5.890   2.827   9.168  0.0081 -0.3195  0.6034
    6SAPS  H16R  735   5.966   2.908   9.171  2.5186 -2.5637  0.4545
    6SAPS  H16S  736   5.799   2.862   9.221  0.9942  3.7112 -0.1739
    6SAPS  C217  737   5.881   2.814   9.014 -0.2371  0.1360 -0.3159
    6SAPS  H17R  738   5.806   2.891   8.985  0.1722  0.1777 -1.3028
    6SAPS  H17S  739   5.847   2.711   8.989  0.6427 -0.3523  0.4542
    6SAPS  C218  740   6.017   2.838   8.945  0.7140 -0.2332  0.0783
    6SAPS  H18R  741   6.099   2.782   8.994  0.6871  0.4193  0.8825
    6SAPS  H18S  742   6.041   2.946   8.958 -2.6494  0.3523  1.9168
    6SAPS  C219  743   6.015   2.801   8.797 -0.1003 -0.1655 -0.2814
    6SAPS  H19R  744   5.923   2.842   8.752 -0.0242  1.2111  0.7798
    6SAPS  H19S  745   6.009   2.690   8.791  2.0537 -0.5888  3.3293
    6SAPS  C220  746   6.136   2.849   8.721 -0.5190  0.0220 -0.3887
    6SAPS  H20R  747   6.129   2.803   8.620  0.0773  1.0922 -0.9433
    6SAPS  H20S  748   6.227   2.817   8.777 -1.5184  0.2808  1.4105
    6SAPS  H20T  749   6.146   2.959   8.707  0.6809 -0.3888 -3.0469
    6SAPS   C33  750   5.416   1.291  10.340 -1.0669  0.3491  0.3208
    6SAPS   H3X  751   5.311   1.312  10.368 -1.4305 -0.2944 -0.5431
    6SAPS   H3Y  752   5.424   1.182  10.320 -0.1071  0.5809 -0.6166
    6SAPS   C34  753   5.471   1.356  10.212  0.4279 -0.1683 -0.5953
    6SAPS   H4X  754   5.566   1.300  10.195  1.6561  0.9385  2.3397
    6SAPS   H4Y  755   5.508   1.461  10.216 -1.0091  0.3342 -0.1251
    6SAPS   C35  756   5.384   1.341  10.088 -0.4463  0.7056  0.0826
    6SAPS   H5X  757   5.278   1.373  10.103 -0.6102  1.1181 -1.7998
    6SAPS   H5Y  758   5.377   1.232  10.068  0.0580  0.8847 -1.1656
    6SAPS   C36  759   5.447   1.412   9.971 -0.0809 -0.2759 -0.2421
    6SAPS   H6X  760   5.554   1.385   9.964  0.2176  1.0100 -0.8239
    6SAPS   H6Y  761   5.445   1.521   9.993  3.1451  0.4017 -2.8581
    6SAPS   C37  762   5.367   1.378   9.841  0.2117 -0.6171 -0.2466
    6SAPS   H7X  763   5.271   1.434   9.848  0.3641 -0.3372 -0.4010
    6SAPS   H7Y  764   5.344   1.269   9.845  1.3365 -0.8810 -0.6545
    6SAPS   C38  765   5.434   1.408   9.704  0.0412  1.0418  0.3074
    6SAPS   H8X  766   5.524   1.344   9.695  0.6790  2.0579 -0.6402
    6SAPS   H8Y  767   5.455   1.517   9.702  1.8615  0.7117  0.9923
    6SAPS   C39  768   5.339   1.384   9.582  0.3715 -0.5391 -0.0256
    6SAPS   H9X  769   5.249   1.446   9.607 -0.0639 -1.8988  1.8819
    6SAPS   H9Y  770   5.312   1.278   9.597  1.0372 -0.3663  2.7050
    6SAPS  C310  771   5.396   1.420   9.448 -0.5143 -0.1769  0.5209
    6SAPS  H10X  772   5.489   1.361   9.431 -0.2548  0.6102 -0.9365
    6SAPS  H10Y  773   5.426   1.528   9.445  3.6500 -1.2639 -2.8814
    6SAPS  C311  774   5.318   1.398   9.315  0.9976 -0.0713 -0.7609
    6SAPS  H11X  775   5.228   1.463   9.308  0.6136 -0.4530  0.4712
    6SAPS  H11Y  776   5.284   1.293   9.321  1.4035 -0.1597  0.0344
    6SAPS  C312  777   5.412   1.417   9.201  0.0028  0.4418  0.0592
    6SAPS  H12X  778   5.497   1.346   9.208 -1.3435 -1.0550  1.6108
    6SAPS  H12Y  779   5.458   1.518   9.202 -1.9610  1.3457  1.4167
    6SAPS  C313  780   5.340   1.404   9.068 -0.6353 -0.2095 -0.0839
    6SAPS  H13X  781   5.282   1.310   9.057 -2.0111  0.3253  2.2462
    6SAPS  H13Y  782   5.416   1.414   8.987 -0.8870  0.9588 -0.1863
    6SAPS  C314  783   5.245   1.517   9.033  0.6746 -0.1291 -0.4582
    6SAPS  H14X  784   5.273   1.617   9.071 -1.8796  1.4464 -2.5701
    6SAPS  H14Y  785   5.150   1.490   9.084  1.1493 -1.0362 -0.0378
    6SAPS  C315  786   5.230   1.523   8.882 -0.1656  0.2152  0.5529
    6SAPS  H15X  787   5.203   1.424   8.838 -1.1206  1.2403 -1.2746
    6SAPS  H15Y  788   5.323   1.546   8.826 -1.3826 -0.2030 -1.7356
    6SAPS  C316  789   5.123   1.616   8.826  0.0909  0.1557  0.4719
    6SAPS  H16X  790   5.031   1.602   8.887  0.0903  2.1915  0.9887
    6SAPS  H16Y  791   5.091   1.584   8.725 -1.3353  1.5722  0.4605
    6SAPS  C317  792   5.178   1.758   8.812  0.1483 -0.1917 -0.0165
    6SAPS  H17X  793   5.259   1.739   8.739 -0.3387 -2.4736  0.0269
    6SAPS  H17Y  794   5.219   1.799   8.907 -0.4872  1.1780 -0.3143
    6SAPS  C318  795   5.077   1.869   8.754 -0.0418 -0.3447 -0.7583
    6SAPS  H18X  796   5.143   1.958   8.758 -1.1737  0.5221 -0.9054
    6SAPS  H18Y  797   4.982   1.875   8.812  0.3266  1.2830 -0.3208
    6SAPS  H18Z  798   5.051   1.831   8.652 -3.2935  0.6246 -0.3502
    7SAPS     N  799   1.080   3.543  10.934  0.1464 -0.2042 -0.0320
    7SAPS   HN1  800   1.117   3.539  11.031  1.4574  1.1121 -0.4531
    7SAPS   HN2  801   0.977   3.545  10.926  0.1589 -0.9902 -0.3565
    7SAPS   HN3  802   1.131   3.471  10.879  2.6409  1.2577  0.2848
    7SAPS   C12  803   1.132   3.674  10.884  0.1251  0.2150 -0.2127
    7SAPS  H12A  804   1.072   3.755  10.923  1.6446  0.1636  2.3228
    7SAPS   C13  805   1.272   3.711  10.919  0.2759 -0.7052 -0.6603
    7SAPS  O13A  806   1.351   3.626  10.973  0.2676 -0.4291 -0.3561
    7SAPS  O13B  807   1.308   3.832  10.901  0.1762 -0.1495  0.3530
    7SAPS   C11  808   1.122   3.677  10.720 -0.0754  0.3148  0.1041
    7SAPS  H11A  809   1.206   3.618  10.678 -0.7260 -0.5184 -0.0508
    7SAPS  H11B  810   1.129   3.785  10.693  0.3453  0.8017  2.0958
    7SAPS     P  811   0.879   3.697  10.633  0.1005 -0.3306  0.0052
    7SAPS   O13  812   0.758   3.612  10.601 -0.4406  0.1530  0.0138
    7SAPS   O14  813   0.846   3.808  10.728 -0.2120  0.5330 -0.3078
    7SAPS   O12  814   0.998   3.611  10.684  0.9188  0.4034 -0.2202
    7SAPS   O11  815   0.957   3.755  10.512 -0.1854  1.0698  0.0774
    7SAPS    C1  816   0.880   3.799  10.395 -0.0845  0.1341  0.1192
    7SAPS    HA  817   0.812   3.714  10.371  2.6712 -1.9935 -0.4797
    7SAPS    HB  818   0.812   3.885  10.415  1.7756  1.2330  1.8316
    7SAPS    C2  819   0.983   3.815  10.276  0.2748  0.1725 -0.8169
    7SAPS    HS  820   1.052   3.900  10.291 -3.0507  2.1917  4.7935
    7SAPS   O21  821   0.914   3.831  10.148  0.5880  0.2610 -0.4018
    7SAPS   C21  822   0.870   3.945  10.101 -0.9029 -0.2734  1.4130
    7SAPS   O22  823   0.875   4.051  10.154  0.5474 -0.6682 -0.6305
    7SAPS   C22  824   0.821   3.918   9.957  0.5174  0.1496 -0.1358
    7SAPS   H2R  825   0.712   3.897   9.970  0.2687  3.1543  3.4666
    7SAPS   H2S  826   0.831   4.013   9.902 -1.2111 -0.1601 -1.0332
    7SAPS    C3  827   1.069   3.685  10.269 -0.3641  0.2872  0.3638
    7SAPS    HX  828   1.005   3.595  10.257 -0.6375  0.5687 -0.3365
    7SAPS    HY  829   1.114   3.660  10.367  2.6901  2.0978 -0.5156
    7SAPS   O31  830   1.164   3.673  10.162  0.5533  0.0741 -0.0444
    7SAPS   C31  831   1.246   3.574  10.167  0.4171 -0.5533 -0.2797
    7SAPS   O32  832   1.247   3.487  10.253 -0.2684 -0.6909  0.7390
    7SAPS   C32  833   1.344   3.590  10.055 -0.0328  0.0995  0.2203
    7SAPS   H2X  834   1.403   3.496  10.053 -1.2666 -0.6946  0.5696
    7SAPS   H2Y  835   1.403   3.682  10.074 -0.4678  0.6098 -0.8679
    7SAPS   C23  836   0.902   3.816   9.880 -0.3547  0.0090 -0.2560
    7SAPS   H3R  837   0.873   3.709   9.883 -2.4048  0.5253 -0.9926
    7SAPS   H3S  838   1.009   3.826   9.909  0.1380 -0.9094 -1.6888
    7SAPS   C24  839   0.910   3.846   9.724  0.5463  0.3270  0.3714
    7SAPS   H4R  840   0.991   3.779   9.688 -0.3051 -0.7063  0.3293
    7SAPS   H4S  841   0.931   3.954   9.711  1.1415  0.1675 -0.0278
    7SAPS   C25  842   0.781   3.811   9.658 -0.0307  0.3468 -0.4512
    7SAPS   H5R  843   0.697   3.831   9.727  0.4048 -1.5053  0.6403
    7SAPS   C26  844   0.764   3.747   9.542 -0.0474 -0.2700  0.3386
    7SAPS   H6R  845   0.664   3.722   9.503  0.9618 -4.5813  0.1860
    7SAPS   C27  846   0.873   3.703   9.445 -0.8091  0.6552 -1.1667
    7SAPS   H7R  847   0.867   3.599   9.406 -1.7675  0.7618 -1.3191
    7SAPS   H7S  848   0.964   3.693   9.508 -1.8140  0.8280  0.3458
    7SAPS   C28  849   0.887   3.805   9.338  0.1900  0.2380  0.0011
    7SAPS   H8R  850   0.865   3.910   9.360  2.8461  1.0923 -1.1643
    7SAPS   C29  851   0.899   3.776   9.203 -0.0972 -0.5707  0.0094
    7SAPS   H9R  852   0.910   3.865   9.138  0.5833 -1.7425 -1.5096
    7SAPS  C210  853   0.905   3.641   9.136 -0.1822 -0.3227 -0.0751
    7SAPS  H10R  854   0.897   3.553   9.203 -0.8039 -0.3623 -0.1945
    7SAPS  H10S  855   1.010   3.633   9.102  0.0759  0.2994  0.5618
    7SAPS  C211  856   0.796   3.626   9.028 -0.4298  0.6846  0.5602
    7SAPS  H11R  857   0.827   3.634   8.923 -0.5112 -1.7178  0.3314
    7SAPS  C212  858   0.665   3.604   9.049  0.1870 -0.5395  1.0416
    7SAPS  H12R  859   0.600   3.585   8.962  0.5234 -0.2840  0.7331
    7SAPS  C213  860   0.589   3.587   9.182  0.2304 -0.4952 -0.1267
    7SAPS  H13R  861   0.629   3.641   9.270  1.6524 -2.2538  0.3296
    7SAPS  H13S  862   0.587   3.481   9.216 -1.6438 -0.4579 -0.0446
    7SAPS  C214  863   0.441   3.614   9.161  0.2927 -0.4534  0.3645
    7SAPS  H14R  864   0.378   3.537   9.114 -0.8587 -0.4173  1.8292
    7SAPS  C215  865   0.375   3.727   9.196 -0.5529 -0.4776 -0.4303
    7SAPS  H15R  866   0.268   3.734   9.172 -0.3166 -1.2513 -1.7613
    7SAPS  C216  867   0.442   3.843   9.266 -0.3882  0.2957  0.8718
    7SAPS  H16R  868   0.413   3.935   9.210  0.1828  0.5367  0.9645
    7SAPS  H16S  869   0.553   3.837   9.268 -0.3780  0.4198  0.7306
    7SAPS  C217  870   0.391   3.870   9.401  0.1271  0.3253 -0.2501
    7SAPS  H17R  871   0.379   3.785   9.471 -1.5615  2.1089  1.6707
    7SAPS  H17S  872   0.292   3.917   9.382 -2.3074 -4.1520  0.8128
    7SAPS  C218  873   0.466   3.984   9.475 -0.6689 -0.5958 -0.3140
    7SAPS  H18R  874   0.456   4.076   9.414 -0.7968  0.7696  1.7184
    7SAPS  H18S  875   0.573   3.957   9.486  0.7622  4.6538 -0.0142
    7SAPS  C219  876   0.406   4.006   9.607  0.5777 -0.7898 -0.3449
    7SAPS  H19R  877   0.296   4.023   9.599  0.3656 -2.3752 -1.1458
    7SAPS  H19S  878   0.452   4.101   9.641 -0.4893 -0.1008 -0.8150
    7SAPS  C220  879   0.415   3.902   9.718  0.5095 -0.1169  0.2838
    7SAPS  H20R  880   0.347   3.945   9.794  1.0674  0.8516  0.2494
    7SAPS  H20S  881   0.519   3.909   9.756  0.2741  1.3899  0.6831
    7SAPS  H20T  882   0.375   3.802   9.693 -0.1048 -0.2100  1.6087
    7SAPS   C33  883   1.281   3.598   9.917  0.1257 -0.6884  0.2503
    7SAPS   H3X  884   1.220   3.691   9.918  1.9814  0.5913  3.3908
    7SAPS   H3Y  885   1.200   3.521   9.908 -1.8051  1.1679  1.1903
    7SAPS   C34  886   1.388   3.583   9.806 -0.4313 -0.0414  0.3338
    7SAPS   H4X  887   1.440   3.485   9.813 -0.4293  0.0138  1.1054
    7SAPS   H4Y  888   1.465   3.662   9.817  0.9154 -1.4018  0.7976
    7SAPS   C35  889   1.328   3.584   9.664  0.0522  0.1316  0.9556
    7SAPS   H5X  890   1.273   3.680   9.657  1.8083  1.1566  1.0707
    7SAPS   H5Y  891   1.256   3.499   9.665  1.1706 -0.8321  1.0604
    7SAPS   C36  892   1.434   3.546   9.562 -0.7019  0.0741  1.0078
    7SAPS   H6X  893   1.467   3.448   9.601 -0.7908  0.1152  1.1895
    7SAPS   H6Y  894   1.513   3.623   9.574 -1.5369  0.7893  2.0834
    7SAPS   C37  895   1.381   3.553   9.424  0.0568 -0.0399 -0.2556
    7SAPS   H7X  896   1.327   3.647   9.400 -0.0892  0.3287  1.4116
    7SAPS   H7Y  897   1.322   3.462   9.399 -2.8621  0.8894  2.8210
    7SAPS   C38  898   1.487   3.549   9.314  0.8627  0.4151  1.3027
    7SAPS   H8X  899   1.543   3.457   9.342 -1.3714  0.0200  4.6823
    7SAPS   H8Y  900   1.553   3.637   9.331 -0.0522  1.6062 -1.0335
    7SAPS   C39  901   1.425   3.553   9.175  0.2041  0.4480  0.3342
    7SAPS   H9X  902   1.362   3.643   9.163 -3.1974 -1.5381  2.5111
    7SAPS   H9Y  903   1.355   3.467   9.166  0.0145  0.4194  2.0231
    7SAPS  C310  904   1.530   3.556   9.055  0.4606 -0.3429 -0.4210
    7SAPS  H10X  905   1.485   3.556   8.954 -0.4495 -0.4633 -0.0156
    7SAPS  H10Y  906   1.590   3.463   9.065 -0.0812 -0.4305  2.3418
    7SAPS  C311  907   1.610   3.681   9.064 -0.6352 -0.3119  0.8283
    7SAPS  H11X  908   1.669   3.681   9.159  0.0824  0.3959  0.3944
    7SAPS  H11Y  909   1.542   3.769   9.073  0.2274  0.3780  0.6576
    7SAPS  C312  910   1.698   3.704   8.945 -0.1621 -0.5828 -0.3783
    7SAPS  H12X  911   1.636   3.703   8.853  0.4554  0.0382 -0.8050
    7SAPS  H12Y  912   1.773   3.623   8.936 -0.7452 -0.9276 -2.2352
    7SAPS  C313  913   1.784   3.837   8.933  1.3583  0.1840 -0.2053
    7SAPS  H13X  914   1.712   3.918   8.957  2.0232  1.0653 -1.1635
    7SAPS  H13Y  915   1.818   3.850   8.829  2.2201 -0.5398 -0.0185
    7SAPS  C314  916   1.900   3.829   9.036 -0.9590  0.3946  0.0319
    7SAPS  H14X  917   1.985   3.786   8.980 -0.0440  2.2261 -0.0187
    7SAPS  H14Y  918   1.880   3.748   9.110  3.0596 -2.1768 -1.5363
    7SAPS  C315  919   1.920   3.950   9.129 -0.6820  0.5645 -0.1023
    7SAPS  H15X  920   1.823   3.995   9.158  0.0270  0.2421  2.8520
    7SAPS  H15Y  921   1.966   4.035   9.073  0.0578  0.3359  0.1437
    7SAPS  C316  922   2.001   3.921   9.247  0.4453 -0.8141 -0.1140
    7SAPS  H16X  923   1.938   3.853   9.308  2.0629 -1.4662  0.8459
    7SAPS  H16Y  924   2.030   4.009   9.307 -2.7855  0.1094  0.2022
    7SAPS  C317  925   2.137   3.849   9.210  0.0573  0.0177  1.0385
    7SAPS  H17X  926   2.176   3.907   9.124  1.2338 -1.1533  0.7711
    7SAPS  H17Y  927   2.105   3.746   9.183  0.6792 -0.6238  2.6971
    7SAPS  C318  928   2.235   3.845   9.330  0.0819  0.0701  0.4131
    7SAPS  H18X  929   2.203   3.777   9.412  2.8205 -1.0185  0.6273
    7SAPS  H18Y  930   2.247   3.951   9.360 -0.7719  0.0593  0.8149
    7SAPS  H18Z  931   2.341   3.816   9.310  0.1868  0.1350  0.8676
    8SAPS     N  932   5.521   4.827  11.102 -0.5546  0.2876  0.3586
    8SAPS   HN1  933   5.536   4.733  11.143  0.6686 -0.3467 -1.4935
    8SAPS   HN2  934   5.446   4.810  11.033 -0.1135  2.8271 -0.7938
    8SAPS   HN3  935   5.599   4.857  11.040 -0.6615  0.4227  0.2910
    8SAPS   C12  936   5.507   4.934  11.207 -0.0878  0.3683  0.3962
    8SAPS  H12A  937   5.411   4.921  11.254 -0.2573  1.3053  0.3229
    8SAPS   C13  938   5.605   4.936  11.324 -0.5070  0.6473 -0.2067
    8SAPS  O13A  939   5.664   4.831  11.350 -0.1829  0.0136  0.3606
    8SAPS  O13B  940   5.584   5.027  11.413  0.3493  0.5264 -0.1782
    8SAPS   C11  941   5.527   5.068  11.133  0.0901 -0.9454 -0.2044
    8SAPS  H11A  942   5.630   5.080  11.091 -0.7759  0.7010 -1.9165
    8SAPS  H11B  943   5.501   5.143  11.211  2.2649 -0.6049  0.2351
    8SAPS     P  944   5.422   5.206  10.944  0.3477 -0.1036 -0.0959
    8SAPS   O13  945   5.289   5.268  10.949 -0.4588 -0.3296 -0.2046
    8SAPS   O14  946   5.529   5.294  10.984  0.3786 -0.4448 -0.1837
    8SAPS   O12  947   5.431   5.079  11.034 -0.4111 -0.3309 -0.3675
    8SAPS   O11  948   5.446   5.159  10.797  0.3532  0.4825  0.0229
    8SAPS    C1  949   5.528   5.051  10.751  0.2277  0.6575 -0.0651
    8SAPS    HA  950   5.582   5.010  10.839  0.2750  2.5062  0.7784
    8SAPS    HB  951   5.467   4.970  10.706  1.1028 -0.9308  1.5133
    8SAPS    C2  952   5.619   5.092  10.640  0.1891 -0.4556  0.2535
    8SAPS    HS  953   5.570   5.080  10.541  0.3021  0.5580  0.0659
    8SAPS   O21  954   5.741   5.015  10.652  0.0529  0.2962  1.7834
    8SAPS   C21  955   5.743   4.897  10.601  0.2065  0.7348 -0.0635
    8SAPS   O22  956   5.644   4.831  10.565 -0.6798  0.5539 -0.3081
    8SAPS   C22  957   5.885   4.836  10.596 -0.6318 -0.0788 -0.3043
    8SAPS   H2R  958   5.959   4.917  10.574  0.0762 -0.6625 -0.0940
    8SAPS   H2S  959   5.919   4.804  10.697  1.0213 -1.6943 -1.3460
    8SAPS    C3  960   5.653   5.244  10.647 -0.1386  0.6237  0.1300
    8SAPS    HX  961   5.695   5.270  10.746 -0.2148  0.8868  0.0924
    8SAPS    HY  962   5.556   5.296  10.634 -0.6424 -0.3523 -0.1208
    8SAPS   O31  963   5.744   5.296  10.546  0.1096 -0.1296 -0.4456
    8SAPS   C31  964   5.869   5.304  10.583 -0.5865  0.5026 -0.3800
    8SAPS   O32  965   5.909   5.275  10.694 -0.5331 -0.5034 -0.2443
    8SAPS   C32  966   5.959   5.361  10.467  0.2693 -0.5417 -0.0408
    8SAPS   H2X  967   5.946   5.298  10.377  0.9579  0.1665 -0.6411
    8SAPS   H2Y  968   6.067   5.341  10.486  0.9634  3.2827  0.4998
    8SAPS   C23  969   5.905   4.716  10.494 -0.7062 -0.4547 -0.5527
    8SAPS   H3R  970   5.826   4.645  10.527 -1.2382  1.3139  2.1067
    8SAPS   H3S  971   6.007   4.678  10.512 -0.5405  0.2205 -0.0552
    8SAPS   C24  972   5.887   4.753  10.345 -0.9517 -0.3765  0.4524
    8SAPS   H4R  973   5.782   4.748  10.308 -0.3908 -0.1081 -1.2024
    8SAPS   H4S  974   5.942   4.673  10.291  1.5469 -0.8565  3.5484
    8SAPS   C25  975   5.951   4.886  10.316 -0.5453  0.0617 -0.1128
    8SAPS   H5R  976   6.058   4.893  10.338 -0.6126  0.6305  0.0408
    8SAPS   C26  977   5.884   4.992  10.272 -0.2507 -0.4505 -0.1748
    8SAPS   H6R  978   5.950   5.073  10.236 -2.8202  1.1186 -1.4911
    8SAPS   C27  979   5.735   5.013  10.235 -0.5035  0.0372 -0.3106
    8SAPS   H7R  980   5.671   4.962  10.310  0.1508 -1.5034 -0.7681
    8SAPS   H7S  981   5.695   4.964  10.144  1.0267 -1.3773 -0.2603
    8SAPS   C28  982   5.701   5.163  10.245 -0.3222  0.5125 -0.3645
    8SAPS   H8R  983   5.751   5.210  10.332  1.7693  0.9995 -1.7915
    8SAPS   C29  984   5.621   5.236  10.167 -0.2391 -0.2218  1.1190
    8SAPS   H9R  985   5.611   5.341  10.197 -2.0018 -0.0066 -0.1529
    8SAPS  C210  986   5.545   5.185  10.048 -0.1151  0.0633 -0.6263
    8SAPS  H10R  987   5.550   5.074  10.050 -3.2479 -0.1289  0.6169
    8SAPS  H10S  988   5.594   5.223   9.956  1.4555  0.4593  0.3756
    8SAPS  C211  989   5.404   5.242  10.059 -0.4778  0.3241  0.2372
    8SAPS  H11R  990   5.370   5.275  10.158 -0.1462  0.2205  0.3874
    8SAPS  C212  991   5.319   5.253   9.959  0.2493 -0.5200 -0.0844
    8SAPS  H12R  992   5.220   5.296   9.978  0.1171 -0.7353 -0.2888
    8SAPS  C213  993   5.354   5.214   9.820  0.1067 -0.2521 -0.2054
    8SAPS  H13R  994   5.442   5.151   9.800  1.1134  0.3592  2.0954
    8SAPS  H13S  995   5.362   5.312   9.768  1.7805 -0.8151 -1.0359
    8SAPS  C214  996   5.250   5.135   9.746 -0.1894  0.7577 -0.3559
    8SAPS  H14R  997   5.224   5.041   9.798 -1.9880  2.3103  1.6233
    8SAPS  C215  998   5.191   5.157   9.625  0.2356 -0.2287 -0.7891
    8SAPS  H15R  999   5.121   5.081   9.586  0.0022 -2.7852  4.1708
    8SAPS  C216 1000   5.204   5.267   9.520  0.1356 -0.3575  0.6928
    8SAPS  H16R 1001   5.300   5.323   9.528 -0.6246  1.0348  0.2533
    8SAPS  H16S 1002   5.114   5.333   9.516  0.3933 -0.0927 -1.4779
    8SAPS  C217 1003   5.206   5.193   9.385  0.2447  0.0627  0.4203
    8SAPS  H17R 1004   5.172   5.277   9.319 -0.6708 -1.5106 -1.1614
    8SAPS  H17S 1005   5.135   5.109   9.375  0.6902 -0.5034  1.9393
    8SAPS  C218 1006   5.352   5.147   9.344  0.2327  0.3962  0.1661
    8SAPS  H18R 1007   5.398   5.099   9.432  0.8383  1.9953  0.7385
    8SAPS  H18S 1008   5.419   5.236   9.344  0.7029  0.0446 -0.3562
    8SAPS  C219 1009   5.354   5.069   9.217 -0.5566  0.4582 -0.4335
    8SAPS  H19R 1010   5.289   5.124   9.146  1.8006  2.3654 -1.1958
    8SAPS  H19S 1011   5.305   4.974   9.247  3.0865 -2.0682 -2.0504
    8SAPS  C220 1012   5.495   5.042   9.157  0.1534  0.0648 -0.6499
    8SAPS  H20R 1013   5.544   4.966   9.221  0.4175  2.2723  1.8851
    8SAPS  H20S 1014   5.556   5.135   9.151  0.4366 -0.1908 -1.8454
    8SAPS  H20T 1015   5.492   4.995   9.057 -0.4040 -0.0346 -0.5865
    8SAPS   C33 1016   5.945   5.516  10.442 -0.7844 -0.0972 -0.4983
    8SAPS   H3X 1017   6.008   5.569  10.517 -1.6814 -2.0645  1.7099
    8SAPS   H3Y 1018   5.843   5.561  10.443  0.2223  2.5619 -4.3362
    8SAPS   C34 1019   5.999   5.550  10.306 -0.4149  0.1823 -0.5261
    8SAPS   H4X 1020   6.095   5.496  10.298 -0.4669 -0.1968  1.1566
    8SAPS   H4Y 1021   6.013   5.661  10.307  0.8049  0.0293 -0.2295
    8SAPS   C35 1022   5.908   5.509  10.198 -0.5663 -0.3716 -0.0002
    8SAPS   H5X 1023   5.801   5.534  10.219 -1.0587 -1.0016 -1.6844
    8SAPS   H5Y 1024   5.914   5.399  10.186  1.1130 -0.4354  1.3266
    8SAPS   C36 1025   5.943   5.574  10.068 -0.3634 -0.3609  0.4255
    8SAPS   H6X 1026   6.051   5.572  10.041  0.4549  1.6254  3.4006
    8SAPS   H6Y 1027   5.918   5.682  10.075 -2.8945 -0.9048  0.4080
    8SAPS   C37 1028   5.853   5.520   9.951 -0.3097  0.0467  0.6129
    8SAPS   H7X 1029   5.753   5.512   9.998 -0.5800  0.9901  0.2171
    8SAPS   H7Y 1030   5.880   5.421   9.909 -1.8255  0.3634 -1.1571
    8SAPS   C38 1031   5.842   5.615   9.829  0.3970 -0.0451 -0.5294
    8SAPS   H8X 1032   5.943   5.632   9.784 -0.5270  0.8132 -2.3409
    8SAPS   H8Y 1033   5.809   5.720   9.848 -0.4019 -0.5853  1.1062
    8SAPS   C39 1034   5.762   5.561   9.717  0.2293  0.7720 -0.7085
    8SAPS   H9X 1035   5.714   5.643   9.661  1.4633  1.4022 -0.8698
    8SAPS   H9Y 1036   5.677   5.495   9.746  0.5504  0.2551 -0.9436
    8SAPS  C310 1037   5.852   5.490   9.611  0.8724 -0.3392 -0.1106
    8SAPS  H10X 1038   5.939   5.447   9.665  1.8497  0.7780 -0.7622
    8SAPS  H10Y 1039   5.888   5.569   9.543  0.0678  1.2018  1.2222
    8SAPS  C311 1040   5.764   5.385   9.539  0.0291 -0.0745  0.0141
    8SAPS  H11X 1041   5.683   5.441   9.486 -0.0399  1.3121  1.5676
    8SAPS  H11Y 1042   5.723   5.315   9.615  2.1891 -1.5872 -0.1786
    8SAPS  C312 1043   5.838   5.313   9.419  0.2379  0.0517  0.1704
    8SAPS  H12X 1044   5.919   5.250   9.463  0.7655 -0.7899 -1.9567
    8SAPS  H12Y 1045   5.887   5.384   9.349  1.1404 -1.2451 -0.5245
    8SAPS  C313 1046   5.748   5.210   9.347 -0.9053  0.3469 -0.4403
    8SAPS  H13X 1047   5.656   5.258   9.306 -1.6017  1.1264  1.9717
    8SAPS  H13Y 1048   5.709   5.135   9.418 -1.0716  0.5543 -0.3155
    8SAPS  C314 1049   5.829   5.142   9.238  0.1651 -0.0109  0.5033
    8SAPS  H14X 1050   5.783   5.044   9.215  0.2081  0.1530 -0.2827
    8SAPS  H14Y 1051   5.930   5.110   9.273 -0.3968 -0.6423  1.5681
    8SAPS  C315 1052   5.856   5.214   9.109  0.7781 -0.6340  0.4731
    8SAPS  H15X 1053   5.925   5.301   9.105  1.3936 -1.2155 -3.5562
    8SAPS  H15Y 1054   5.759   5.225   9.056  0.3938  1.1902  1.5016
    8SAPS  C316 1055   5.937   5.119   9.017  0.9959 -0.4436 -0.8079
    8SAPS  H16X 1056   5.877   5.026   9.003  2.1034 -1.4574  0.9698
    8SAPS  H16Y 1057   6.029   5.112   9.079  1.7469  0.4026 -1.8147
    8SAPS  C317 1058   5.973   5.167   8.876 -0.0263 -0.1621 -0.1697
    8SAPS  H17X 1059   5.885   5.224   8.838  0.4103 -0.0198 -0.9829
    8SAPS  H17Y 1060   6.011   5.097   8.798 -0.3297 -1.2646  0.6620
    8SAPS  C318 1061   6.084   5.270   8.875 -0.2599 -0.0027 -0.6531
    8SAPS  H18X 1062   6.078   5.349   8.953  0.5415 -0.8520  0.2893
    8SAPS  H18Y 1063   6.095   5.325   8.779  0.3545  0.2793 -0.4271
    8SAPS  H18Z 1064   6.187   5.234   8.893  0.0913  1.0780 -0.4897
    9SAPS     N 1065   1.313   0.665   6.089  0.0981  0.4722  0.2797
    9SAPS   HN1 1066   1.304   0.664   5.985  1.6055  2.2735  0.1167
    9SAPS   HN2 1067   1.376   0.591   6.127  0.1725 -0.5297 -1.6822
    9SAPS   HN3 1068   1.219   0.651   6.131 -0.5515  0.6619 -1.0992
    9SAPS   C12 1069   1.384   0.786   6.140 -0.1615 -0.3419  0.4255
    9SAPS  H12A 1070   1.473   0.802   6.082  0.0624 -1.5559  0.4242
    9SAPS   C13 1071   1.304   0.917   6.147 -0.0344 -0.1123  0.3111
    9SAPS  O13A 1072   1.179   0.924   6.114 -0.6970 -0.0782 -0.1114
    9SAPS  O13B 1073   1.371   1.020   6.178  0.2594  0.8604 -0.0691
    9SAPS   C11 1074   1.432   0.755   6.281 -0.4272  0.1029  0.0235
    9SAPS  H11A 1075   1.343   0.762   6.346  1.0250  1.3899  1.9179
    9SAPS  H11B 1076   1.496   0.834   6.325 -0.6570  0.6384 -0.5960
    9SAPS     P 1077   1.663   0.614   6.312 -0.1749  0.0975  0.0647
    9SAPS   O13 1078   1.700   0.474   6.335 -0.3132 -0.0376  0.1948
    9SAPS   O14 1079   1.732   0.685   6.203  0.1202 -0.1011  0.0007
    9SAPS   O12 1080   1.501   0.618   6.282 -0.6532 -0.1650 -0.1210
    9SAPS   O11 1081   1.677   0.693   6.447 -0.0476  0.5460  0.5952
    9SAPS    C1 1082   1.615   0.653   6.570  0.2751  0.5419  0.2245
    9SAPS    HA 1083   1.518   0.602   6.558  0.6147 -0.2447  0.7551
    9SAPS    HB 1084   1.690   0.590   6.622  1.4692  0.0813 -2.0319
    9SAPS    C2 1085   1.580   0.774   6.655 -0.3837 -0.3610  0.5305
    9SAPS    HS 1086   1.497   0.831   6.609 -0.7879 -1.8049 -0.5370
    9SAPS   O21 1087   1.700   0.847   6.674 -0.7827 -0.2870  0.6114
    9SAPS   C21 1088   1.677   0.974   6.682 -0.0067 -1.0768  0.0193
    9SAPS   O22 1089   1.573   1.034   6.669  0.0457  0.1081 -0.5616
    9SAPS   C22 1090   1.813   1.045   6.697  0.1067 -1.0673 -0.2621
    9SAPS   H2R 1091   1.892   0.967   6.704  1.7474  0.6634  1.0656
    9SAPS   H2S 1092   1.818   1.102   6.602 -0.6390  1.2848  1.0782
    9SAPS    C3 1093   1.522   0.713   6.788 -0.5929  0.6142  0.2747
    9SAPS    HX 1094   1.602   0.668   6.850 -1.1205 -0.7578 -0.0363
    9SAPS    HY 1095   1.452   0.631   6.763  1.0060 -0.1115 -1.9785
    9SAPS   O31 1096   1.459   0.818   6.857 -0.1830 -0.2760  0.3228
    9SAPS   C31 1097   1.396   0.774   6.963  0.6507  0.9529 -0.0954
    9SAPS   O32 1098   1.406   0.655   6.996 -0.2139  0.1239  0.7484
    9SAPS   C32 1099   1.307   0.883   7.030  0.3732  0.7498  0.2206
    9SAPS   H2X 1100   1.222   0.902   6.961  0.6198  0.1484 -0.2559
    9SAPS   H2Y 1101   1.376   0.970   7.029  0.9707  0.2755 -0.6762
    9SAPS   C23 1102   1.815   1.143   6.820 -0.4024  0.1595 -0.5438
    9SAPS   H3R 1103   1.755   1.230   6.787  1.6916  0.7223 -3.0292
    9SAPS   H3S 1104   1.919   1.178   6.842  0.2209 -1.8728 -0.2008
    9SAPS   C24 1105   1.756   1.084   6.950 -0.0203  0.0166 -0.5212
    9SAPS   H4R 1106   1.648   1.057   6.952  0.4183 -1.7644  1.7360
    9SAPS   H4S 1107   1.767   1.160   7.031  0.8087  1.7471 -2.2299
    9SAPS   C25 1108   1.816   0.955   6.992 -0.5808 -0.3094  0.0077
    9SAPS   H5R 1109   1.815   0.874   6.918 -0.8915 -2.6767  2.5009
    9SAPS   C26 1110   1.882   0.919   7.107 -0.2822 -0.1164 -0.1171
    9SAPS   H6R 1111   1.903   0.812   7.122 -1.9016 -0.5294 -0.7441
    9SAPS   C27 1112   1.901   1.001   7.227 -0.6028  0.1005 -0.7044
    9SAPS   H7R 1113   1.906   1.103   7.183  1.2939 -0.2180 -1.2766
    9SAPS   H7S 1114   2.001   0.979   7.271 -0.1655 -1.9040 -2.6268
    9SAPS   C28 1115   1.789   1.012   7.330 -0.5206 -0.3082  0.0494
    9SAPS   H8R 1116   1.747   1.114   7.330 -1.6809 -0.7400  2.2160
    9SAPS   C29 1117   1.747   0.932   7.426  0.7948 -0.0308 -0.1921
    9SAPS   H9R 1118   1.674   0.969   7.500  0.5367  0.9889 -0.9483
    9SAPS  C210 1119   1.795   0.788   7.448  0.0415 -0.1808  0.4270
    9SAPS  H10R 1120   1.840   0.757   7.351 -0.6758 -0.4436  0.1739
    9SAPS  H10S 1121   1.702   0.730   7.466 -0.2352  0.7419  2.0816
    9SAPS  C211 1122   1.898   0.773   7.561 -0.0952  0.6437 -0.2383
    9SAPS  H11R 1123   1.948   0.866   7.591  2.3174 -0.8525  0.5054
    9SAPS  C212 1124   1.926   0.659   7.629 -0.1246 -0.7789 -0.5621
    9SAPS  H12R 1125   1.989   0.656   7.719  0.1055  1.3380 -0.6109
    9SAPS  C213 1126   1.857   0.526   7.600  0.3373 -0.4387  0.1462
    9SAPS  H13R 1127   1.908   0.470   7.519 -0.6301 -0.7999 -0.2223
    9SAPS  H13S 1128   1.760   0.547   7.550  0.7868 -0.2749 -0.6842
    9SAPS  C214 1129   1.841   0.432   7.726  0.1780 -0.6229  0.6913
    9SAPS  H14R 1130   1.937   0.414   7.777  0.9826  0.5357 -0.3809
    9SAPS  C215 1131   1.721   0.386   7.769  0.4946 -0.4393  0.0475
    9SAPS  H15R 1132   1.717   0.318   7.856 -2.1892 -2.4581 -1.5441
    9SAPS  C216 1133   1.584   0.410   7.713 -0.5517  0.3719  0.4940
    9SAPS  H16R 1134   1.590   0.448   7.609  2.7574 -2.3604 -0.3911
    9SAPS  H16S 1135   1.519   0.479   7.772 -0.8780  0.9753 -0.5540
    9SAPS  C217 1136   1.511   0.274   7.703  0.4007 -0.3637 -0.3508
    9SAPS  H17R 1137   1.523   0.237   7.807  0.8587 -0.9576 -0.6115
    9SAPS  H17S 1138   1.567   0.207   7.634  1.0331  0.0583 -0.2569
    9SAPS  C218 1139   1.361   0.285   7.684  0.2727  0.7964  0.5083
    9SAPS  H18R 1140   1.325   0.367   7.749 -1.7941 -0.4816  1.0176
    9SAPS  H18S 1141   1.305   0.192   7.705  1.8816 -0.2573  0.2036
    9SAPS  C219 1142   1.339   0.315   7.538 -0.3344  0.2552 -0.5421
    9SAPS  H19R 1143   1.380   0.230   7.478  0.2185  1.2826 -1.6295
    9SAPS  H19S 1144   1.400   0.405   7.517  0.9521 -0.3308  0.5506
    9SAPS  C220 1145   1.195   0.337   7.493  0.1788  0.7382 -0.8587
    9SAPS  H20R 1146   1.134   0.245   7.506  0.2558  0.5184 -1.9696
    9SAPS  H20S 1147   1.198   0.342   7.382 -1.8542  1.3641 -0.9084
    9SAPS  H20T 1148   1.146   0.423   7.542  0.8890  0.5540  0.1822
    9SAPS   C33 1149   1.277   0.835   7.169 -0.5651  0.2647  0.7052
    9SAPS   H3X 1150   1.227   0.735   7.172  0.5018 -0.2848  0.2548
    9SAPS   H3Y 1151   1.197   0.893   7.220  0.6418  0.7801  2.0317
    9SAPS   C34 1152   1.388   0.836   7.269 -0.5370 -0.3420 -0.6102
    9SAPS   H4X 1153   1.464   0.917   7.270  0.4060 -1.1712 -2.2139
    9SAPS   H4Y 1154   1.432   0.735   7.264 -0.1475 -0.0770 -3.2982
    9SAPS   C35 1155   1.349   0.836   7.418 -0.1675  0.6661 -0.0223
    9SAPS   H5X 1156   1.270   0.912   7.434 -0.3149  0.2694  1.2294
    9SAPS   H5Y 1157   1.434   0.870   7.481  1.3497 -1.7080 -0.7093
    9SAPS   C36 1158   1.313   0.699   7.467  0.1681 -0.7820 -1.0805
    9SAPS   H6X 1159   1.378   0.616   7.434  0.0507 -0.5844 -1.8141
    9SAPS   H6Y 1160   1.212   0.673   7.429 -0.3864  1.9175 -1.5540
    9SAPS   C37 1161   1.304   0.688   7.621  0.2707 -0.1750 -0.0747
    9SAPS   H7X 1162   1.396   0.721   7.675 -0.9793  1.6355  1.0336
    9SAPS   H7Y 1163   1.279   0.586   7.657  0.1708 -0.4885 -1.0235
    9SAPS   C38 1164   1.196   0.783   7.679 -0.1906  0.1423 -0.8675
    9SAPS   H8X 1165   1.105   0.748   7.626  0.2394 -2.2896 -0.0921
    9SAPS   H8Y 1166   1.213   0.892   7.667 -0.4329  0.0395 -2.1618
    9SAPS   C39 1167   1.167   0.760   7.831  0.4531  0.4846  0.7770
    9SAPS   H9X 1168   1.136   0.655   7.851 -0.0513  0.1857 -1.4258
    9SAPS   H9Y 1169   1.091   0.835   7.863 -0.5996 -0.4080  0.3852
    9SAPS  C310 1170   1.290   0.787   7.918 -0.3496  0.0789 -0.1884
    9SAPS  H10X 1171   1.336   0.886   7.897  0.7356 -0.6813 -1.4719
    9SAPS  H10Y 1172   1.365   0.707   7.901 -0.1760  0.2215 -0.0997
    9SAPS  C311 1173   1.252   0.777   8.060 -0.7965  0.6479 -0.0868
    9SAPS  H11X 1174   1.213   0.677   8.088  0.5088  0.6918  1.9664
    9SAPS  H11Y 1175   1.175   0.852   8.089 -0.1679  0.6456  1.6546
    9SAPS  C312 1176   1.370   0.808   8.152  0.1833  0.0780 -0.2709
    9SAPS  H12X 1177   1.384   0.918   8.145 -1.1370  0.2343 -0.6123
    9SAPS  H12Y 1178   1.468   0.765   8.120 -0.2178 -0.2149 -1.1262
    9SAPS  C313 1179   1.339   0.788   8.302 -0.2069  0.3202  0.2422
    9SAPS  H13X 1180   1.301   0.686   8.323 -0.1052  0.2063 -0.1240
    9SAPS  H13Y 1181   1.248   0.849   8.322  0.8981  2.1318 -0.1637
    9SAPS  C314 1182   1.459   0.815   8.391  0.3867  0.6904  0.1434
    9SAPS  H14X 1183   1.498   0.919   8.382  3.2531 -0.1893  1.7141
    9SAPS  H14Y 1184   1.539   0.740   8.372 -1.7923 -1.6583  0.0565
    9SAPS  C315 1185   1.409   0.806   8.537 -1.3720  0.4862 -0.5720
    9SAPS  H15X 1186   1.359   0.709   8.555  0.4345 -0.8709 -2.5855
    9SAPS  H15Y 1187   1.333   0.886   8.545 -0.9085  0.7007  2.0379
    9SAPS  C316 1188   1.513   0.827   8.645  0.2868 -0.0217 -0.3103
    9SAPS  H16X 1189   1.567   0.919   8.615  0.8527  0.0883  1.0524
    9SAPS  H16Y 1190   1.591   0.748   8.649  0.8183  0.5207  0.0669
    9SAPS  C317 1191   1.439   0.850   8.782  0.8710  0.2183  0.0336
    9SAPS  H17X 1192   1.388   0.755   8.807 -0.4198  1.1461  0.9669
    9SAPS  H17Y 1193   1.367   0.931   8.760  0.3726  0.4550  2.4858
    9SAPS  C318 1194   1.541   0.884   8.891  0.0004 -0.1517 -0.4517
    9SAPS  H18X 1195   1.617   0.803   8.892 -0.9815 -1.0972 -0.4473
    9SAPS  H18Y 1196   1.499   0.891   8.993 -0.8634 -2.3326 -0.6184
    9SAPS  H18Z 1197   1.591   0.980   8.869  2.4956 -1.2069  0.4485
   10SAPS     N 1198   1.927   6.607   6.030  0.1427  0.3598 -0.9745
   10SAPS   HN1 1199   1.957   6.675   5.957 -0.8048  1.3876 -0.4314
   10SAPS   HN2 1200   1.878   6.665   6.102  0.5025  0.7285 -1.0241
   10SAPS   HN3 1201   2.009   6.567   6.079 -1.2084  0.0776  1.1299
   10SAPS   C12 1202   1.834   6.500   5.980  0.1769 -0.4032  0.2935
   10SAPS  H12A 1203   1.747   6.541   5.931 -0.0300 -1.1108  0.0729
   10SAPS   C13 1204   1.898   6.410   5.874  0.3614 -0.3200 -0.2768
   10SAPS  O13A 1205   2.017   6.433   5.840 -0.4349  0.5306 -0.0716
   10SAPS  O13B 1206   1.832   6.326   5.811 -0.2874 -0.0175  0.2740
   10SAPS   C11 1207   1.788   6.420   6.103  0.1140  0.2803 -0.3242
   10SAPS  H11A 1208   1.877   6.395   6.164 -0.9972  0.0750  1.2530
   10SAPS  H11B 1209   1.735   6.324   6.085  0.4752  0.0004  0.0979
   10SAPS     P 1210   1.711   6.592   6.298  0.1358  0.3391  0.3365
   10SAPS   O13 1211   1.820   6.690   6.260  0.2409 -0.3980  0.0258
   10SAPS   O14 1212   1.578   6.646   6.327  0.6462 -0.1828 -0.4004
   10SAPS   O12 1213   1.691   6.497   6.174  0.4342  0.2642  0.1425
   10SAPS   O11 1214   1.760   6.499   6.406 -0.0129  0.2324 -0.1190
   10SAPS    C1 1215   1.897   6.471   6.430 -0.1673  0.5082  0.5114
   10SAPS    HA 1216   1.922   6.364   6.416  0.6087  0.6176  1.0174
   10SAPS    HB 1217   1.974   6.531   6.376 -0.7783  1.6087  0.8516
   10SAPS    C2 1218   1.936   6.487   6.582 -0.1844  0.2189 -0.6413
   10SAPS    HS 1219   2.039   6.450   6.600 -0.7297 -0.4764  1.1347
   10SAPS   O21 1220   1.848   6.421   6.672 -0.8141  0.4230  0.6253
   10SAPS   C21 1221   1.866   6.292   6.684  0.1887  0.1004  0.2676
   10SAPS   O22 1222   1.952   6.225   6.633 -0.0801  0.1288 -0.1690
   10SAPS   C22 1223   1.760   6.234   6.781 -0.6040 -0.2688  0.7761
   10SAPS   H2R 1224   1.745   6.311   6.860  0.8051  0.4985  0.3049
   10SAPS   H2S 1225   1.659   6.232   6.734 -0.0339  1.4874 -0.5739
   10SAPS    C3 1226   1.949   6.637   6.633 -0.3391  0.1698 -0.0532
   10SAPS    HX 1227   1.852   6.691   6.635 -0.4430 -0.0489  1.2869
   10SAPS    HY 1228   2.014   6.691   6.561  0.1515  0.2299  0.4283
   10SAPS   O31 1229   2.013   6.652   6.762  0.5427 -0.3043 -0.7176
   10SAPS   C31 1230   1.966   6.751   6.842 -0.9744  0.1520 -0.3941
   10SAPS   O32 1231   1.889   6.839   6.809  0.2105  0.0602 -0.4101
   10SAPS   C32 1232   2.048   6.751   6.967  0.3309  0.6459 -0.4544
   10SAPS   H2X 1233   2.155   6.739   6.939  0.5660  0.7066  0.4004
   10SAPS   H2Y 1234   2.014   6.665   7.028  0.7568  2.2495  2.1447
   10SAPS   C23 1235   1.794   6.101   6.850  0.0198  0.3795  0.3630
   10SAPS   H3R 1236   1.898   6.109   6.887  0.4510 -0.9494 -0.4871
   10SAPS   H3S 1237   1.794   6.010   6.785 -2.6121 -0.2547  1.1810
   10SAPS   C24 1238   1.697   6.068   6.963  0.1149  0.3083 -0.2229
   10SAPS   H4R 1239   1.590   6.063   6.935 -0.5959 -1.3318  2.6040
   10SAPS   H4S 1240   1.713   6.146   7.040 -0.0219  1.1052 -0.9948
   10SAPS   C25 1241   1.736   5.931   7.013  0.7765 -0.2078 -0.1766
   10SAPS   H5R 1242   1.767   5.867   6.929 -1.6179 -1.4012 -0.1841
   10SAPS   C26 1243   1.742   5.884   7.136  0.0097  0.4815 -0.3706
   10SAPS   H6R 1244   1.783   5.784   7.158 -0.1966  0.4059 -0.3258
   10SAPS   C27 1245   1.715   5.954   7.260  0.0483 -0.3743  0.6168
   10SAPS   H7R 1246   1.652   6.045   7.250  2.6844  1.5079  0.5940
   10SAPS   H7S 1247   1.812   5.995   7.296  0.3166 -0.6916  0.2559
   10SAPS   C28 1248   1.633   5.869   7.358  0.3904  0.4311  0.7903
   10SAPS   H8R 1249   1.527   5.877   7.332  0.0512 -2.3337  1.1248
   10SAPS   C29 1250   1.679   5.800   7.466  0.3238 -0.2017  0.6836
   10SAPS   H9R 1251   1.616   5.751   7.542 -1.7334  2.2915  0.6566
   10SAPS  C210 1252   1.829   5.789   7.509 -1.0681  0.5039 -0.8562
   10SAPS  H10R 1253   1.889   5.830   7.426  0.8965 -0.7631 -0.1087
   10SAPS  H10S 1254   1.862   5.683   7.520  0.0776  1.0164  0.9858
   10SAPS  C211 1255   1.858   5.868   7.639  0.1142  0.0592  0.1718
   10SAPS  H11R 1256   1.898   5.970   7.625 -0.3620  0.4841  1.7799
   10SAPS  C212 1257   1.834   5.824   7.758  0.6200 -0.1051 -0.2359
   10SAPS  H12R 1258   1.866   5.881   7.847  1.5424 -0.2281 -0.4751
   10SAPS  C213 1259   1.772   5.689   7.785  0.5054 -0.0443 -0.0125
   10SAPS  H13R 1260   1.792   5.607   7.713 -0.3196  0.0078 -0.3074
   10SAPS  H13S 1261   1.663   5.709   7.783  0.3286 -1.0967 -1.8176
   10SAPS  C214 1262   1.821   5.638   7.914  0.4035 -0.5486 -0.5443
   10SAPS  H14R 1263   1.738   5.610   7.981  1.7663 -3.8101 -0.0730
   10SAPS  C215 1264   1.943   5.589   7.943 -0.4492  0.3221 -0.0489
   10SAPS  H15R 1265   1.966   5.563   8.048 -0.8053 -0.9313 -0.2722
   10SAPS  C216 1266   2.066   5.584   7.848  0.2952  0.2685  0.3035
   10SAPS  H16R 1267   2.032   5.590   7.742  0.7503  4.0468  0.3007
   10SAPS  H16S 1268   2.106   5.482   7.863  0.6796  0.1432 -1.5002
   10SAPS  C217 1269   2.180   5.693   7.880 -0.7103  0.2993 -0.1136
   10SAPS  H17R 1270   2.138   5.792   7.909 -3.3286 -0.7308 -0.1748
   10SAPS  H17S 1271   2.237   5.697   7.785 -0.8560 -1.5525 -0.3091
   10SAPS  C218 1272   2.260   5.641   7.999 -0.3686  0.4344  0.5112
   10SAPS  H18R 1273   2.305   5.543   7.972  1.2153  1.1332  0.6042
   10SAPS  H18S 1274   2.188   5.619   8.081 -1.7867 -0.8867 -1.0471
   10SAPS  C219 1275   2.370   5.738   8.038 -0.3272 -0.4197 -0.1660
   10SAPS  H19R 1276   2.410   5.691   8.130 -0.0964  0.4957  0.2127
   10SAPS  H19S 1277   2.320   5.832   8.072 -1.4608 -2.1235  3.0608
   10SAPS  C220 1278   2.481   5.773   7.940 -0.5598  0.4675  0.2496
   10SAPS  H20R 1279   2.434   5.796   7.842 -1.0995 -1.7158 -0.0161
   10SAPS  H20S 1280   2.559   5.696   7.924  0.7209  1.4150  1.7759
   10SAPS  H20T 1281   2.536   5.861   7.979  0.1002  1.0042 -1.8209
   10SAPS   C33 1282   2.027   6.882   7.046 -0.1173  0.1522  0.2460
   10SAPS   H3X 1283   1.921   6.892   7.080 -0.4272  0.2687 -0.7259
   10SAPS   H3Y 1284   2.043   6.965   6.973  1.5914 -0.5717 -0.2278
   10SAPS   C34 1285   2.115   6.898   7.174 -0.9927 -0.5816 -0.0738
   10SAPS   H4X 1286   2.110   7.006   7.198 -0.6800  0.4931 -4.3676
   10SAPS   H4Y 1287   2.221   6.886   7.144 -0.1593 -1.7804  3.2273
   10SAPS   C35 1288   2.065   6.817   7.289 -0.0157  0.5733 -0.0181
   10SAPS   H5X 1289   2.082   6.709   7.270  3.3201  0.5924  2.5226
   10SAPS   H5Y 1290   1.954   6.823   7.288 -0.0738 -0.1831  2.0383
   10SAPS   C36 1291   2.129   6.858   7.425  0.7915 -0.8403  0.2990
   10SAPS   H6X 1292   2.239   6.859   7.410  0.6642 -1.6598 -0.7625
   10SAPS   H6Y 1293   2.116   6.772   7.494 -0.6825 -0.7224  0.1850
   10SAPS   C37 1294   2.068   6.989   7.485 -0.6831 -0.4994  0.6445
   10SAPS   H7X 1295   1.958   6.994   7.480 -0.5598  0.4929 -2.5484
   10SAPS   H7Y 1296   2.106   7.073   7.422 -0.0753 -0.6087  0.8562
   10SAPS   C38 1297   2.114   7.007   7.630  0.9694 -0.2078 -0.7643
   10SAPS   H8X 1298   2.128   7.115   7.652 -2.0321  0.1791 -0.4311
   10SAPS   H8Y 1299   2.217   6.970   7.649  0.6078  0.1016  1.9410
   10SAPS   C39 1300   2.013   6.936   7.727 -0.5959  0.3984 -0.0574
   10SAPS   H9X 1301   2.025   6.826   7.720  0.6003  0.1991  3.8768
   10SAPS   H9Y 1302   1.916   6.975   7.688 -0.7755  0.7061  0.6861
   10SAPS  C310 1303   2.042   6.971   7.874  0.3186  0.0601 -0.6343
   10SAPS  H10X 1304   2.046   7.082   7.880  1.3960 -0.0020 -0.1341
   10SAPS  H10Y 1305   2.132   6.925   7.919 -0.8686 -1.5198  0.1992
   10SAPS  C311 1306   1.926   6.920   7.961  0.3691  0.3681 -0.8593
   10SAPS  H11X 1307   1.833   6.921   7.901  0.8402  1.2471 -1.5857
   10SAPS  H11Y 1308   1.918   7.002   8.036  1.1122  0.1162 -0.5005
   10SAPS  C312 1309   1.950   6.787   8.040 -0.4346 -0.2430 -0.1976
   10SAPS  H12X 1310   2.054   6.794   8.079 -0.6954 -0.0758  0.4620
   10SAPS  H12Y 1311   1.939   6.713   7.958 -1.2800  1.6995 -1.8814
   10SAPS  C313 1312   1.860   6.762   8.159 -0.3698  0.7521  0.5855
   10SAPS  H13X 1313   1.752   6.767   8.133  0.1195  0.9992 -1.4696
   10SAPS  H13Y 1314   1.875   6.843   8.233  1.7939 -0.7692  1.8753
   10SAPS  C314 1315   1.880   6.619   8.221 -0.0689 -0.9511  0.1384
   10SAPS  H14X 1316   1.989   6.614   8.240 -0.2910  0.8623  2.0594
   10SAPS  H14Y 1317   1.850   6.540   8.148 -0.0316  0.0579 -0.9784
   10SAPS  C315 1318   1.813   6.588   8.353 -0.6553 -0.5270 -0.2512
   10SAPS  H15X 1319   1.703   6.601   8.344 -0.3694  2.9686  0.7732
   10SAPS  H15Y 1320   1.857   6.660   8.426 -3.0303  0.2396  0.4513
   10SAPS  C316 1321   1.848   6.447   8.413 -0.5142 -0.8348 -0.0254
   10SAPS  H16X 1322   1.956   6.420   8.421  0.0571  1.4214  0.0909
   10SAPS  H16Y 1323   1.795   6.372   8.351 -1.7671  1.2198 -1.4801
   10SAPS  C317 1324   1.795   6.432   8.561 -0.2390 -0.1538  0.4843
   10SAPS  H17X 1325   1.684   6.437   8.563 -0.1712  1.4452  0.7443
   10SAPS  H17Y 1326   1.833   6.519   8.619 -0.9358 -0.2656  1.1205
   10SAPS  C318 1327   1.854   6.308   8.626  0.0960  0.2262 -0.0097
   10SAPS  H18X 1328   1.825   6.310   8.733 -2.3701 -0.0562 -0.6486
   10SAPS  H18Y 1329   1.965   6.306   8.619  0.0639  1.2631 -1.0339
   10SAPS  H18Z 1330   1.806   6.217   8.585 -1.6517  1.0805  0.0908
   11SAPS     N 1331   3.333   2.971   5.777 -0.1182 -0.3307  0.0003
   11SAPS   HN1 1332   3.420   2.989   5.723  0.2506  1.8250  1.2487
   11SAPS   HN2 1333   3.316   3.038   5.855 -1.0823 -0.9772  0.3574
   11SAPS   HN3 1334   3.346   2.873   5.809 -3.2143  0.1466  2.9642
   11SAPS   C12 1335   3.213   2.968   5.689 -0.3237 -0.9093  0.3592
   11SAPS  H12A 1336   3.189   3.068   5.656 -1.2215 -0.8987  1.0076
   11SAPS   C13 1337   3.219   2.879   5.565  1.0401 -0.3270  0.2597
   11SAPS  O13A 1338   3.318   2.819   5.534 -0.3066  0.0117  0.1351
   11SAPS  O13B 1339   3.110   2.847   5.505 -0.1141  0.0764  0.3642
   11SAPS   C11 1340   3.099   2.926   5.782  0.7210 -0.3489 -0.4785
   11SAPS  H11A 1341   3.119   2.840   5.850 -2.4675 -0.7079  0.0463
   11SAPS  H11B 1342   3.019   2.895   5.712 -1.2551  2.1286  0.6109
   11SAPS     P 1343   2.913   3.027   5.916 -0.2332  0.4044 -0.4752
   11SAPS   O13 1344   2.821   3.133   5.861  0.0906  0.8487  0.1098
   11SAPS   O14 1345   2.857   2.886   5.911  0.0088 -1.0001 -0.2570
   11SAPS   O12 1346   3.052   3.040   5.846  0.2997 -0.5720  0.1193
   11SAPS   O11 1347   2.952   3.050   6.069  0.1959  0.5640 -0.5508
   11SAPS    C1 1348   3.068   2.988   6.130  0.9276  0.5859  0.3617
   11SAPS    HA 1349   3.060   2.877   6.122 -2.1329  0.7666  0.3554
   11SAPS    HB 1350   3.161   3.014   6.074  1.0265 -1.7219 -0.6274
   11SAPS    C2 1351   3.091   3.025   6.276 -0.1226  0.2526  0.2961
   11SAPS    HS 1352   3.180   2.970   6.313  0.6936  2.1854  1.2808
   11SAPS   O21 1353   2.976   2.993   6.361 -0.2630  0.2621 -0.0445
   11SAPS   C21 1354   2.985   2.876   6.421 -0.7048  0.0694 -0.2101
   11SAPS   O22 1355   3.077   2.798   6.408 -0.1326 -0.3503 -0.8292
   11SAPS   C22 1356   2.865   2.845   6.510  0.1000  0.1790 -0.0080
   11SAPS   H2R 1357   2.806   2.939   6.519 -1.0664 -0.7287  2.4648
   11SAPS   H2S 1358   2.809   2.765   6.457 -1.8346 -0.4752  2.8626
   11SAPS    C3 1359   3.121   3.173   6.294 -0.0191  0.1581  0.6623
   11SAPS    HX 1360   3.029   3.229   6.269  0.0449 -1.1277 -2.6742
   11SAPS    HY 1361   3.191   3.203   6.213 -0.8097 -0.8704 -0.4095
   11SAPS   O31 1362   3.151   3.203   6.437 -0.1002  0.3724  0.1337
   11SAPS   C31 1363   3.282   3.198   6.458  0.5869 -0.1103 -0.4696
   11SAPS   O32 1364   3.367   3.179   6.370  0.3978  0.1404 -0.1018
   11SAPS   C32 1365   3.309   3.214   6.602 -0.1294 -0.5417  0.1284
   11SAPS   H2X 1366   3.305   3.323   6.624  0.8163 -0.3711 -0.4814
   11SAPS   H2Y 1367   3.411   3.182   6.635  0.0808  0.5205  0.5260
   11SAPS   C23 1368   2.900   2.776   6.644  0.1913  0.2000  0.2421
   11SAPS   H3R 1369   3.007   2.799   6.661  0.9234 -0.8051 -2.7461
   11SAPS   H3S 1370   2.906   2.667   6.627  1.7275  0.6509 -2.3839
   11SAPS   C24 1371   2.819   2.823   6.769  0.7122  0.2313 -0.1700
   11SAPS   H4R 1372   2.818   2.933   6.782 -2.7020  0.1800  0.6371
   11SAPS   H4S 1373   2.864   2.780   6.861  0.1974 -1.5428 -0.7204
   11SAPS   C25 1374   2.672   2.774   6.753  0.2144 -0.1936 -0.6181
   11SAPS   H5R 1375   2.649   2.743   6.650 -2.7475 -0.8342  0.1989
   11SAPS   C26 1376   2.594   2.736   6.856  0.4833 -0.3479 -0.2003
   11SAPS   H6R 1377   2.488   2.709   6.839  0.2297  0.1266  0.6065
   11SAPS   C27 1378   2.632   2.734   7.001  0.2701  0.3601 -0.0013
   11SAPS   H7R 1379   2.733   2.692   7.020 -0.6321 -1.1590  1.4785
   11SAPS   H7S 1380   2.569   2.671   7.066  1.9911 -0.4490  0.9141
   11SAPS   C28 1381   2.633   2.872   7.057  0.5246  0.1712 -0.0525
   11SAPS   H8R 1382   2.670   2.948   6.987  1.2085 -1.7197 -1.8088
   11SAPS   C29 1383   2.605   2.908   7.186 -0.1296  0.0471 -0.2686
   11SAPS   H9R 1384   2.611   3.014   7.214  0.7560 -0.3113  0.9380
   11SAPS  C210 1385   2.567   2.809   7.291  0.2069  0.6962  0.4228
   11SAPS  H10R 1386   2.539   2.708   7.252 -0.4029  0.9195  0.2771
   11SAPS  H10S 1387   2.485   2.860   7.345  1.4239  0.7963  2.2317
   11SAPS  C211 1388   2.682   2.780   7.391 -0.6055  0.1832  0.6562
   11SAPS  H11R 1389   2.757   2.710   7.353 -1.7023 -1.4028  1.3392
   11SAPS  C212 1390   2.696   2.804   7.523 -0.6451 -0.5707 -0.2761
   11SAPS  H12R 1391   2.787   2.765   7.572 -0.2413  0.9526  0.2266
   11SAPS  C213 1392   2.601   2.887   7.612 -0.1442  0.3184  0.5511
   11SAPS  H13R 1393   2.533   2.946   7.548  0.9786  1.0508  0.0035
   11SAPS  H13S 1394   2.647   2.978   7.657 -0.1047  0.2073  0.7338
   11SAPS  C214 1395   2.531   2.798   7.709 -0.5161 -0.3115  0.2395
   11SAPS  H14R 1396   2.435   2.758   7.673  0.1781 -1.5245 -0.2513
   11SAPS  C215 1397   2.568   2.757   7.830 -0.9501 -0.1499  0.0404
   11SAPS  H15R 1398   2.491   2.710   7.892  0.1906 -2.6099 -0.3803
   11SAPS  C216 1399   2.693   2.788   7.906  0.1050  0.1183 -0.6758
   11SAPS  H16R 1400   2.746   2.876   7.863  1.5079 -0.5144 -0.2344
   11SAPS  H16S 1401   2.763   2.702   7.909 -0.3048 -0.1633  2.2024
   11SAPS  C217 1402   2.654   2.819   8.051  0.2586 -0.3511 -0.8799
   11SAPS  H17R 1403   2.589   2.737   8.088  0.4796  0.3522  1.1024
   11SAPS  H17S 1404   2.584   2.906   8.056 -1.1386 -1.5588  1.4729
   11SAPS  C218 1405   2.784   2.841   8.130 -0.6948  0.1223 -0.2361
   11SAPS  H18R 1406   2.833   2.929   8.083  2.2608  0.0015  2.4820
   11SAPS  H18S 1407   2.848   2.751   8.120 -0.8934  0.0879 -1.2502
   11SAPS  C219 1408   2.762   2.871   8.278  0.1400  0.4711 -0.7128
   11SAPS  H19R 1409   2.857   2.870   8.336  0.0320  0.3604 -0.5404
   11SAPS  H19S 1410   2.725   2.774   8.317 -0.1376  1.3633  1.2734
   11SAPS  C220 1411   2.659   2.978   8.307 -0.4667 -0.1853  0.0920
   11SAPS  H20R 1412   2.684   3.072   8.254  1.1076  0.0295  1.1901
   11SAPS  H20S 1413   2.658   3.007   8.414  4.3271 -1.2296  0.5061
   11SAPS  H20T 1414   2.560   2.949   8.263  0.3251 -1.7974 -0.6850
   11SAPS   C33 1415   3.212   3.125   6.690  0.1519  0.4042  0.4848
   11SAPS   H3X 1416   3.246   3.022   6.667  0.6895  0.6110  0.3449
   11SAPS   H3Y 1417   3.102   3.137   6.678 -0.4562 -4.9750 -0.6650
   11SAPS   C34 1418   3.247   3.150   6.842  0.2358 -0.1336  0.1343
   11SAPS   H4X 1419   3.277   3.256   6.855 -0.9084  0.5774 -2.5739
   11SAPS   H4Y 1420   3.330   3.088   6.879  0.5320  0.2608  0.1306
   11SAPS   C35 1421   3.130   3.126   6.939 -0.3494 -0.4871 -0.7823
   11SAPS   H5X 1422   3.085   3.028   6.913  0.2305 -1.5839  2.1461
   11SAPS   H5Y 1423   3.048   3.201   6.931  0.7539  0.7435 -0.7173
   11SAPS   C36 1424   3.177   3.115   7.082  0.0439  0.0065 -0.2666
   11SAPS   H6X 1425   3.243   3.200   7.110  0.2533 -0.1637 -0.2440
   11SAPS   H6Y 1426   3.243   3.026   7.091  2.7765  1.6828 -2.6480
   11SAPS   C37 1427   3.059   3.107   7.184  0.1072 -0.2111 -0.0097
   11SAPS   H7X 1428   2.984   3.028   7.161  1.2935 -1.5387  0.6065
   11SAPS   H7Y 1429   3.007   3.205   7.178  1.8832  0.9478  2.4928
   11SAPS   C38 1430   3.117   3.089   7.331  0.0318  0.7115  0.5235
   11SAPS   H8X 1431   3.178   3.173   7.371 -0.3430  0.0817  2.4779
   11SAPS   H8Y 1432   3.183   3.000   7.335 -0.2171  0.5591  1.2614
   11SAPS   C39 1433   3.002   3.068   7.438  0.2982 -0.3615  0.1062
   11SAPS   H9X 1434   2.947   2.983   7.393  0.4464 -1.6979  2.4187
   11SAPS   H9Y 1435   2.941   3.160   7.431 -1.7856 -1.7493 -0.2125
   11SAPS  C310 1436   3.042   3.053   7.585 -0.4145  0.1941 -0.0001
   11SAPS  H10X 1437   2.951   3.069   7.646 -0.2120 -1.1196  0.6561
   11SAPS  H10Y 1438   3.114   3.134   7.611  0.2164 -0.3781  0.0686
   11SAPS  C311 1439   3.109   2.916   7.625 -0.1711  0.0466 -0.6530
   11SAPS  H11X 1440   3.216   2.928   7.599 -0.2844  2.1476 -0.2243
   11SAPS  H11Y 1441   3.067   2.828   7.572  1.8550 -0.5077 -1.3931
   11SAPS  C312 1442   3.085   2.902   7.777  1.0043 -0.1412  0.0116
   11SAPS  H12X 1443   2.974   2.899   7.777  1.0251 -2.1111 -1.6687
   11SAPS  H12Y 1444   3.110   2.999   7.825 -1.3398  1.0134 -1.0475
   11SAPS  C313 1445   3.154   2.778   7.827  0.0425 -0.3765 -0.4382
   11SAPS  H13X 1446   3.261   2.780   7.799  0.3020 -0.3340  0.5418
   11SAPS  H13Y 1447   3.110   2.692   7.772  1.2518  0.5615 -2.9887
   11SAPS  C314 1448   3.157   2.753   7.980  0.0025 -0.2938  0.6109
   11SAPS  H14X 1449   3.051   2.748   8.012 -1.1853  1.0692 -2.8522
   11SAPS  H14Y 1450   3.205   2.836   8.036  2.8739 -1.9611  0.7603
   11SAPS  C315 1451   3.245   2.633   8.013 -0.5039  0.1441  0.2831
   11SAPS  H15X 1452   3.344   2.634   7.962  0.2243 -1.6191  1.6113
   11SAPS  H15Y 1453   3.196   2.540   7.976 -3.1201  1.5142  0.1568
   11SAPS  C316 1454   3.258   2.603   8.160 -0.2789  0.1257  0.2763
   11SAPS  H16X 1455   3.154   2.617   8.195 -0.9851  0.4889 -1.8804
   11SAPS  H16Y 1456   3.315   2.677   8.221  1.4376 -1.7437  0.9820
   11SAPS  C317 1457   3.310   2.465   8.192 -0.0481  0.8441 -0.2326
   11SAPS  H17X 1458   3.410   2.456   8.145  0.0667  1.6749 -0.1533
   11SAPS  H17Y 1459   3.236   2.398   8.143  1.3109 -1.9836  1.4710
   11SAPS  C318 1460   3.325   2.436   8.345  0.0374  0.3409  0.1404
   11SAPS  H18X 1461   3.223   2.451   8.386 -0.1112 -0.0947 -0.0725
   11SAPS  H18Y 1462   3.396   2.500   8.401  1.2677 -1.5498  0.7927
   11SAPS  H18Z 1463   3.353   2.330   8.365 -0.5397 -0.0786 -1.2627
   12SAPS     N 1464   3.585   3.944   5.810 -0.1296 -0.0207  0.4173
   12SAPS   HN1 1465   3.592   3.988   5.904  2.5247 -1.1406  0.7731
   12SAPS   HN2 1466   3.606   3.846   5.837 -1.5668  0.0192  1.7507
   12SAPS   HN3 1467   3.663   3.977   5.750 -1.5693  0.4096 -1.2673
   12SAPS   C12 1468   3.454   3.969   5.750  0.2990  0.1503 -0.9673
   12SAPS  H12A 1469   3.447   4.077   5.756 -1.2320 -0.0149  0.4396
   12SAPS   C13 1470   3.435   3.909   5.613  0.4578  0.6038 -0.5940
   12SAPS  O13A 1471   3.534   3.861   5.556 -0.0844  0.0626 -0.1882
   12SAPS  O13B 1472   3.335   3.946   5.550  0.3615  0.3662  0.6724
   12SAPS   C11 1473   3.351   3.907   5.847  0.6586 -0.3488  0.1302
   12SAPS  H11A 1474   3.353   3.797   5.835  0.0079  0.0784 -5.0597
   12SAPS  H11B 1475   3.254   3.946   5.808  0.4385  0.9334  1.8759
   12SAPS     P 1476   3.264   4.032   6.066 -0.3071  0.2751  0.1795
   12SAPS   O13 1477   3.221   4.153   5.997 -0.1129 -0.0638 -0.2085
   12SAPS   O14 1478   3.161   3.932   6.111 -0.6263  0.1235  0.0949
   12SAPS   O12 1479   3.375   3.950   5.979  0.3981  0.5916  0.1967
   12SAPS   O11 1480   3.355   4.061   6.189 -0.6118 -0.0989 -0.4422
   12SAPS    C1 1481   3.418   4.190   6.221  0.6585 -0.0864  0.0872
   12SAPS    HA 1482   3.528   4.179   6.218  0.4236 -2.5497 -0.2020
   12SAPS    HB 1483   3.389   4.271   6.150 -0.2347 -0.1947  0.3199
   12SAPS    C2 1484   3.375   4.243   6.363 -0.5391 -0.1731 -0.1832
   12SAPS    HS 1485   3.440   4.332   6.381 -0.7282 -0.8865  4.7611
   12SAPS   O21 1486   3.382   4.138   6.466  0.6158 -0.5478 -0.6620
   12SAPS   C21 1487   3.500   4.114   6.520 -0.3764 -0.1499  0.5506
   12SAPS   O22 1488   3.597   4.186   6.522 -0.2509 -0.5451  0.5437
   12SAPS   C22 1489   3.490   3.976   6.578  0.4426 -0.1168 -0.4237
   12SAPS   H2R 1490   3.411   3.971   6.655  1.5450  2.1166  0.9000
   12SAPS   H2S 1491   3.457   3.906   6.498 -0.3543 -1.9681  1.4680
   12SAPS    C3 1492   3.227   4.293   6.366  0.5273 -0.6433  1.0686
   12SAPS    HX 1493   3.162   4.218   6.315 -0.5328  1.5934 -0.9562
   12SAPS    HY 1494   3.224   4.390   6.313  0.6958 -0.1536  1.9394
   12SAPS   O31 1495   3.182   4.309   6.494 -0.3972 -0.3632  0.5734
   12SAPS   C31 1496   3.150   4.428   6.543  0.0774  0.1012  0.2660
   12SAPS   O32 1497   3.164   4.542   6.496  0.6369  0.8842  0.2929
   12SAPS   C32 1498   3.085   4.405   6.680 -0.2524 -0.2999 -0.0557
   12SAPS   H2X 1499   3.006   4.330   6.654 -0.6091  0.0433  0.0339
   12SAPS   H2Y 1500   3.042   4.500   6.719 -1.0608 -1.1821  1.2345
   12SAPS   C23 1501   3.625   3.940   6.651  0.2699  0.0273  0.5851
   12SAPS   H3R 1502   3.621   3.997   6.746 -1.3212 -1.2510  1.3049
   12SAPS   H3S 1503   3.725   3.963   6.607 -0.0113 -1.5307 -0.8786
   12SAPS   C24 1504   3.615   3.789   6.673  0.0416 -0.2568  0.5738
   12SAPS   H4R 1505   3.708   3.761   6.727 -0.7063  0.4268  2.2597
   12SAPS   H4S 1506   3.618   3.737   6.575  0.1876  0.5869  0.1221
   12SAPS   C25 1507   3.498   3.740   6.752 -0.3660 -0.3562 -0.1935
   12SAPS   H5R 1508   3.409   3.725   6.689 -0.5109 -1.6059  0.2889
   12SAPS   C26 1509   3.491   3.744   6.885 -0.2226 -0.3715  1.0432
   12SAPS   H6R 1510   3.402   3.702   6.934 -0.5743 -0.0415  0.6942
   12SAPS   C27 1511   3.598   3.794   6.973  0.2356  0.3048 -0.8059
   12SAPS   H7R 1512   3.684   3.825   6.910  0.7934 -2.8159 -1.6729
   12SAPS   H7S 1513   3.640   3.706   7.026  1.5462  1.7680  0.6385
   12SAPS   C28 1514   3.551   3.898   7.069 -0.0710  0.0678 -0.6569
   12SAPS   H8R 1515   3.481   3.973   7.031  1.5535  1.6457 -0.6076
   12SAPS   C29 1516   3.572   3.895   7.198 -0.1117 -0.5422  0.8270
   12SAPS   H9R 1517   3.538   3.984   7.254  0.2159  1.9620 -2.7878
   12SAPS  C210 1518   3.648   3.788   7.260  0.1430 -0.5933  0.9216
   12SAPS  H10R 1519   3.753   3.780   7.225  0.6454 -1.7316  2.6388
   12SAPS  H10S 1520   3.599   3.690   7.242  1.5671 -1.0350 -0.6716
   12SAPS  C211 1521   3.661   3.820   7.407  0.1884  0.0038 -0.1197
   12SAPS  H11R 1522   3.752   3.878   7.426 -0.0714  0.5517 -0.5530
   12SAPS  C212 1523   3.590   3.760   7.501 -0.1092 -0.0023  0.6622
   12SAPS  H12R 1524   3.619   3.785   7.604  2.6262  1.0289 -0.2957
   12SAPS  C213 1525   3.479   3.653   7.491  0.3052 -0.0606 -0.0088
   12SAPS  H13R 1526   3.428   3.667   7.394 -1.3520  2.4164  1.1730
   12SAPS  H13S 1527   3.407   3.676   7.573  1.4674  0.7742  0.7938
   12SAPS  C214 1528   3.519   3.508   7.504  0.3568  0.1856 -0.0278
   12SAPS  H14R 1529   3.502   3.450   7.412  3.5566 -2.5445  1.0022
   12SAPS  C215 1530   3.568   3.452   7.612 -0.0647 -0.1461  0.3776
   12SAPS  H15R 1531   3.599   3.348   7.596  0.2753 -0.1197  0.8612
   12SAPS  C216 1532   3.585   3.506   7.754  0.1761  0.6861 -0.1559
   12SAPS  H16R 1533   3.549   3.611   7.756 -1.7575  0.0535  3.5566
   12SAPS  H16S 1534   3.692   3.508   7.782  0.2343  4.7829 -0.3900
   12SAPS  C217 1535   3.487   3.431   7.857 -0.1425 -0.2076 -0.0533
   12SAPS  H17R 1536   3.514   3.483   7.952 -2.1567  2.5969 -0.9426
   12SAPS  H17S 1537   3.522   3.327   7.871 -1.4026 -0.5860  0.3130
   12SAPS  C218 1538   3.331   3.443   7.826  0.1012  0.5930 -0.4761
   12SAPS  H18R 1539   3.310   3.415   7.720 -0.7958 -1.6751  0.2600
   12SAPS  H18S 1540   3.290   3.545   7.844 -1.1329  0.3283 -1.6100
   12SAPS  C219 1541   3.247   3.353   7.910 -0.3930  0.7030 -0.1743
   12SAPS  H19R 1542   3.141   3.378   7.888 -0.9001 -2.1618 -1.1999
   12SAPS  H19S 1543   3.266   3.378   8.017 -0.0156 -0.0221 -0.0730
   12SAPS  C220 1544   3.269   3.203   7.906 -0.0492  0.4250  0.1969
   12SAPS  H20R 1545   3.282   3.158   7.806 -2.2495  0.0664  0.0477
   12SAPS  H20S 1546   3.193   3.138   7.955  0.3693 -0.6313 -0.5457
   12SAPS  H20T 1547   3.370   3.188   7.950  0.3232  1.4933 -0.2864
   12SAPS   C33 1548   3.182   4.342   6.788 -0.0459 -0.6133  0.1081
   12SAPS   H3X 1549   3.257   4.421   6.808  0.7563 -0.5086 -2.9773
   12SAPS   H3Y 1550   3.240   4.255   6.750 -0.0831 -0.5124 -0.1851
   12SAPS   C34 1551   3.106   4.303   6.916  0.0742 -0.4890  0.3216
   12SAPS   H4X 1552   3.046   4.212   6.892 -1.9595  1.1794 -1.0078
   12SAPS   H4Y 1553   3.025   4.373   6.945  1.6130  0.6155  2.0565
   12SAPS   C35 1554   3.199   4.281   7.036 -0.0518 -0.5112  0.3001
   12SAPS   H5X 1555   3.242   4.375   7.077  1.1770 -1.8234  2.1284
   12SAPS   H5Y 1556   3.281   4.215   6.999 -1.9477 -2.6097 -0.2363
   12SAPS   C36 1557   3.134   4.205   7.152  0.1748  0.4696 -0.4076
   12SAPS   H6X 1558   3.086   4.112   7.116  1.9026 -0.6555  0.1603
   12SAPS   H6Y 1559   3.058   4.270   7.199 -0.0334 -0.7627  0.9894
   12SAPS   C37 1560   3.238   4.179   7.265 -0.0215  0.4020  0.1643
   12SAPS   H7X 1561   3.304   4.268   7.269  1.3350 -0.5194 -1.3329
   12SAPS   H7Y 1562   3.293   4.084   7.247  0.3236  0.8099 -1.0000
   12SAPS   C38 1563   3.182   4.162   7.409 -0.2090 -0.2201 -0.0109
   12SAPS   H8X 1564   3.112   4.245   7.429 -1.2791 -0.6864 -1.6987
   12SAPS   H8Y 1565   3.266   4.166   7.481 -0.6538 -2.2586  0.6685
   12SAPS   C39 1566   3.102   4.028   7.430  0.1179 -1.4492  0.3613
   12SAPS   H9X 1567   3.165   3.938   7.418  0.2677 -0.9780 -2.6103
   12SAPS   H9Y 1568   3.038   4.040   7.340  0.8977 -1.0298 -0.1483
   12SAPS  C310 1569   3.036   4.019   7.563  0.1556 -0.2472 -0.7353
   12SAPS  H10X 1570   2.979   3.924   7.581 -1.0764  0.9017  1.6555
   12SAPS  H10Y 1571   2.958   4.094   7.587 -0.5318 -1.1139 -0.1862
   12SAPS  C311 1572   3.130   4.036   7.685  0.5922 -0.2148 -0.2046
   12SAPS  H11X 1573   3.138   4.140   7.722  0.1269 -0.2292 -0.0719
   12SAPS  H11Y 1574   3.236   4.013   7.659  0.9914  0.9100  0.4261
   12SAPS  C312 1575   3.078   3.946   7.801 -0.4490  0.2792 -0.2164
   12SAPS  H12X 1576   3.054   3.844   7.763 -1.9664  0.8725 -0.8889
   12SAPS  H12Y 1577   2.983   3.996   7.830 -1.0090 -0.2195 -1.1696
   12SAPS  C313 1578   3.164   3.945   7.927 -0.5421 -0.0907  0.3318
   12SAPS  H13X 1579   3.196   4.047   7.961  0.5263 -0.3141  0.0158
   12SAPS  H13Y 1580   3.256   3.889   7.900 -0.6745 -0.6371  0.9938
   12SAPS  C314 1581   3.107   3.856   8.038  0.0434  0.3327  0.0767
   12SAPS  H14X 1582   3.055   3.769   7.992 -0.3973  1.3609 -1.4382
   12SAPS  H14Y 1583   3.034   3.912   8.100 -0.1793  1.5826 -1.2738
   12SAPS  C315 1584   3.218   3.791   8.129 -0.1786 -0.1531  0.2523
   12SAPS  H15X 1585   3.278   3.874   8.173 -1.9159  1.4396 -0.3266
   12SAPS  H15Y 1586   3.281   3.741   8.053 -0.5320 -1.6359  0.9239
   12SAPS  C316 1587   3.165   3.703   8.240  0.2645  0.2384 -0.0803
   12SAPS  H16X 1588   3.079   3.651   8.193  0.8961  1.9708 -3.2541
   12SAPS  H16Y 1589   3.136   3.762   8.330 -1.1783  0.9606 -1.0000
   12SAPS  C317 1590   3.271   3.601   8.284  0.9425 -0.0094 -0.2053
   12SAPS  H17X 1591   3.358   3.645   8.337 -0.0596  0.6319  0.9492
   12SAPS  H17Y 1592   3.314   3.542   8.200 -2.0224 -2.1210 -0.3329
   12SAPS  C318 1593   3.205   3.502   8.382  0.0333  0.4189 -0.0634
   12SAPS  H18X 1594   3.171   3.540   8.481  1.0338  0.5991  0.2128
   12SAPS  H18Y 1595   3.284   3.427   8.403  1.5843  1.3821 -2.2918
   12SAPS  H18Z 1596   3.111   3.461   8.339 -0.5679  1.7193 -0.0229
   13SAPS     N 1597   3.506   0.578   6.205  0.5365  0.0010 -0.0818
   13SAPS   HN1 1598   3.434   0.606   6.274 -0.1237  1.2418 -1.2396
   13SAPS   HN2 1599   3.504   0.475   6.193 -1.2958  0.0951 -0.6220
   13SAPS   HN3 1600   3.596   0.607   6.249  0.1998  0.3091  0.4087
   13SAPS   C12 1601   3.480   0.657   6.083  0.2096  0.3017  0.2680
   13SAPS  H12A 1602   3.569   0.653   6.023 -1.1994 -1.7660 -1.7245
   13SAPS   C13 1603   3.378   0.595   5.996 -0.0423 -0.1015 -0.1834
   13SAPS  O13A 1604   3.327   0.488   6.031  0.5931  0.5458  0.0801
   13SAPS  O13B 1605   3.344   0.659   5.891 -0.2471  0.4803  0.1470
   13SAPS   C11 1606   3.444   0.803   6.110  0.0401 -0.1955  0.1436
   13SAPS  H11A 1607   3.339   0.820   6.140 -0.4234  1.4552 -2.3032
   13SAPS  H11B 1608   3.445   0.861   6.015 -1.4690 -0.8712 -0.3001
   13SAPS     P 1609   3.585   0.999   6.191  0.3889  0.1795  0.1528
   13SAPS   O13 1610   3.699   0.985   6.092  0.2286 -0.4478 -0.0998
   13SAPS   O14 1611   3.470   1.084   6.159 -0.5695  0.1637 -0.0690
   13SAPS   O12 1612   3.540   0.848   6.212  0.6171 -0.3178  0.6099
   13SAPS   O11 1613   3.650   1.032   6.331 -0.6745 -0.1493  0.3667
   13SAPS    C1 1614   3.731   0.940   6.404  0.2599 -0.0729  0.8569
   13SAPS    HA 1615   3.759   0.858   6.334 -0.9344  0.0903  0.1790
   13SAPS    HB 1616   3.818   1.004   6.430  0.6970 -1.7147  3.6415
   13SAPS    C2 1617   3.656   0.870   6.526  0.3653 -1.0404 -0.3767
   13SAPS    HS 1618   3.573   0.813   6.480  1.0867 -1.7629 -0.7858
   13SAPS   O21 1619   3.613   0.973   6.614  0.0788  0.3736  0.1524
   13SAPS   C21 1620   3.486   0.994   6.619 -0.3418 -0.8470  0.2096
   13SAPS   O22 1621   3.400   0.924   6.559  0.8092  0.4522  0.3840
   13SAPS   C22 1622   3.448   1.117   6.698  0.0976 -0.2383  0.0898
   13SAPS   H2R 1623   3.444   1.081   6.803 -0.0979  0.8946  0.4701
   13SAPS   H2S 1624   3.531   1.190   6.698  0.1586 -0.2624  2.5682
   13SAPS    C3 1625   3.741   0.774   6.610 -0.2043 -0.5363  0.5071
   13SAPS    HX 1626   3.791   0.706   6.537  2.4112  1.6099  0.2076
   13SAPS    HY 1627   3.673   0.720   6.679  1.0731 -1.1185  1.3119
   13SAPS   O31 1628   3.853   0.840   6.673  0.5184 -0.4067 -0.0642
   13SAPS   C31 1629   3.831   0.892   6.791 -0.2923 -0.7905  0.6438
   13SAPS   O32 1630   3.731   0.877   6.861  0.3230 -0.7159 -0.4576
   13SAPS   C32 1631   3.958   0.960   6.840 -0.2866  0.0978 -0.2161
   13SAPS   H2X 1632   3.969   1.034   6.759  0.8699  0.8026  0.5827
   13SAPS   H2Y 1633   4.046   0.893   6.831  1.5905  2.5307 -0.4513
   13SAPS   C23 1634   3.314   1.178   6.657  0.1395 -0.2066  0.1059
   13SAPS   H3R 1635   3.235   1.102   6.638 -0.9229  1.2295 -1.3841
   13SAPS   H3S 1636   3.337   1.232   6.562 -2.6622 -0.9166 -1.0377
   13SAPS   C24 1637   3.254   1.281   6.761  0.3957 -0.1408 -0.3802
   13SAPS   H4R 1638   3.156   1.316   6.725 -0.5007 -1.3534  0.8390
   13SAPS   H4S 1639   3.305   1.380   6.770  0.3768 -0.1568 -0.0772
   13SAPS   C25 1640   3.218   1.216   6.889  0.8520  0.0349 -0.4387
   13SAPS   H5R 1641   3.126   1.156   6.880 -0.1627  1.6998 -1.4436
   13SAPS   C26 1642   3.286   1.196   7.002  0.1246  0.3461 -0.0189
   13SAPS   H6R 1643   3.228   1.140   7.076  0.1295 -0.8204 -0.8878
   13SAPS   C27 1644   3.428   1.244   7.033  0.2413  0.3026  0.2681
   13SAPS   H7R 1645   3.420   1.330   7.103 -0.9809  0.6077 -0.2358
   13SAPS   H7S 1646   3.481   1.277   6.941  0.3564  2.5047  1.0831
   13SAPS   C28 1647   3.512   1.130   7.090 -0.2557  0.5263 -0.2252
   13SAPS   H8R 1648   3.516   1.046   7.019  0.3906 -0.1436  0.5955
   13SAPS   C29 1649   3.553   1.105   7.216  0.0286 -0.0617 -0.6123
   13SAPS   H9R 1650   3.590   1.004   7.240  0.8509  0.2623 -0.4964
   13SAPS  C210 1651   3.526   1.199   7.327 -0.1304  0.4873 -1.4255
   13SAPS  H10R 1652   3.415   1.204   7.335  0.0786  2.7807  0.7632
   13SAPS  H10S 1653   3.544   1.306   7.301  1.2635  1.2622  2.2497
   13SAPS  C211 1654   3.590   1.174   7.461  0.4561 -0.4857  0.0081
   13SAPS  H11R 1655   3.689   1.126   7.454  1.3607  1.1699  1.0395
   13SAPS  C212 1656   3.549   1.205   7.586 -0.5950 -1.2146 -0.0644
   13SAPS  H12R 1657   3.622   1.197   7.668 -0.1775  2.3742 -0.0228
   13SAPS  C213 1658   3.421   1.278   7.620  0.2730 -0.3200 -0.1217
   13SAPS  H13R 1659   3.349   1.209   7.669 -1.0176  1.6514  0.8318
   13SAPS  H13S 1660   3.374   1.311   7.525  0.7049 -3.2605 -1.4238
   13SAPS  C214 1661   3.439   1.388   7.712 -1.1213 -0.2100 -0.0513
   13SAPS  H14R 1662   3.484   1.476   7.664 -1.5314 -0.7073 -1.3661
   13SAPS  C215 1663   3.411   1.398   7.839  0.2621  0.0829  0.2956
   13SAPS  H15R 1664   3.439   1.488   7.896 -1.1897 -0.1723  1.4637
   13SAPS  C216 1665   3.337   1.296   7.927 -0.9645  0.2827  0.3232
   13SAPS  H16R 1666   3.352   1.299   8.037 -1.1099 -3.4353  0.4976
   13SAPS  H16S 1667   3.362   1.194   7.893 -1.7229  1.1208 -2.9292
   13SAPS  C217 1668   3.190   1.306   7.912 -0.0767  0.2964 -0.8034
   13SAPS  H17R 1669   3.163   1.267   7.812 -0.6664 -0.7556 -0.2441
   13SAPS  H17S 1670   3.164   1.414   7.917 -0.3588  0.2010 -0.1787
   13SAPS  C218 1671   3.108   1.240   8.028  0.5700  0.2272  0.4702
   13SAPS  H18R 1672   3.007   1.286   8.033  0.1629 -0.7485  1.2735
   13SAPS  H18S 1673   3.151   1.271   8.126  1.8926  0.4441 -0.1614
   13SAPS  C219 1674   3.077   1.094   8.010 -0.1303 -0.6746 -0.0193
   13SAPS  H19R 1675   3.171   1.045   7.977  0.8924  0.7406  0.7031
   13SAPS  H19S 1676   3.010   1.066   7.926 -1.9404 -1.7533  1.7369
   13SAPS  C220 1677   3.025   1.031   8.138 -0.4854 -0.7789 -0.1151
   13SAPS  H20R 1678   2.977   0.936   8.108 -2.6072  0.1596  0.1907
   13SAPS  H20S 1679   2.936   1.088   8.171  0.5129 -0.1758  1.6053
   13SAPS  H20T 1680   3.100   1.010   8.217 -0.5065 -1.2686 -0.2282
   13SAPS   C33 1681   3.947   1.017   6.992  0.2504  0.5849 -0.3035
   13SAPS   H3X 1682   3.840   1.029   7.020  0.2705  1.1865 -0.4745
   13SAPS   H3Y 1683   3.989   1.120   6.991  0.5344  0.5175  1.7734
   13SAPS   C34 1684   4.017   0.934   7.099 -0.3676 -0.5060  0.1129
   13SAPS   H4X 1685   4.127   0.922   7.087 -0.1169  0.8141  0.9007
   13SAPS   H4Y 1686   3.977   0.831   7.106 -1.1052 -0.1561  1.1768
   13SAPS   C35 1687   3.986   0.987   7.243 -0.0427 -0.3881 -0.0871
   13SAPS   H5X 1688   3.875   0.982   7.252  0.1164 -2.3490  1.1697
   13SAPS   H5Y 1689   4.011   1.095   7.251 -0.9722 -0.2442  0.8958
   13SAPS   C36 1690   4.064   0.896   7.345  0.4724 -0.5260 -0.7565
   13SAPS   H6X 1691   4.171   0.895   7.317  0.5554 -4.1155 -0.5687
   13SAPS   H6Y 1692   4.019   0.794   7.349 -1.8162  0.4997  1.2975
   13SAPS   C37 1693   4.057   0.968   7.489 -1.1140  0.3084  0.3748
   13SAPS   H7X 1694   3.948   0.987   7.502 -1.6381 -0.9438 -1.8921
   13SAPS   H7Y 1695   4.118   1.061   7.487  0.1064 -0.5020 -1.2026
   13SAPS   C38 1696   4.116   0.875   7.597 -0.4171 -0.1497 -0.1963
   13SAPS   H8X 1697   4.196   0.813   7.551  0.3094  1.0628 -0.6179
   13SAPS   H8Y 1698   4.029   0.811   7.623 -0.0174 -0.5119  0.2598
   13SAPS   C39 1699   4.182   0.939   7.720  0.6688 -0.1894  0.3352
   13SAPS   H9X 1700   4.204   1.042   7.685  1.4072 -0.8858 -1.3006
   13SAPS   H9Y 1701   4.277   0.885   7.743  0.9721  0.3027  0.2535
   13SAPS  C310 1702   4.093   0.926   7.845  0.4215 -0.7201 -0.3627
   13SAPS  H10X 1703   3.999   0.977   7.815 -0.3098  0.0309  3.0283
   13SAPS  H10Y 1704   4.132   0.999   7.918  0.1464 -0.0944 -0.8385
   13SAPS  C311 1705   4.065   0.786   7.913  0.3349 -0.3095  0.4762
   13SAPS  H11X 1706   4.159   0.730   7.902  1.7726  2.0088  0.6005
   13SAPS  H11Y 1707   3.986   0.734   7.855 -1.3326  2.6613 -0.0497
   13SAPS  C312 1708   3.990   0.802   8.056  0.2332  0.2102 -0.3557
   13SAPS  H12X 1709   3.887   0.833   8.031  0.9116  0.1713 -3.4166
   13SAPS  H12Y 1710   4.038   0.881   8.118  0.5733 -1.8890  2.1266
   13SAPS  C313 1711   3.997   0.678   8.138  0.7299  1.3367 -0.1982
   13SAPS  H13X 1712   4.104   0.650   8.154  0.1186 -0.4087  0.9838
   13SAPS  H13Y 1713   3.960   0.592   8.078 -0.1567  0.7875  1.1068
   13SAPS  C314 1714   3.930   0.697   8.276  0.0590 -0.1612 -0.2886
   13SAPS  H14X 1715   3.828   0.741   8.261 -0.2390 -0.7714 -0.0606
   13SAPS  H14Y 1716   4.000   0.763   8.331 -0.2899 -0.0665  0.0439
   13SAPS  C315 1717   3.930   0.568   8.354  1.0579  0.3045 -0.5848
   13SAPS  H15X 1718   3.909   0.592   8.460  0.6371  1.1138 -0.8490
   13SAPS  H15Y 1719   4.028   0.520   8.337 -0.2551 -1.4172 -3.7014
   13SAPS  C316 1720   3.817   0.473   8.326  0.1758  0.5745  0.2804
   13SAPS  H16X 1721   3.836   0.372   8.367  3.2023  0.4175 -1.3602
   13SAPS  H16Y 1722   3.807   0.454   8.217 -1.3377 -0.2444  0.5485
   13SAPS  C317 1723   3.675   0.513   8.365 -0.2613  0.4132 -0.7123
   13SAPS  H17X 1724   3.613   0.436   8.315  2.4560 -1.4437 -1.3317
   13SAPS  H17Y 1725   3.651   0.610   8.317 -1.2843  0.7295  0.4126
   13SAPS  C318 1726   3.646   0.504   8.516  0.5338  0.4720 -0.0575
   13SAPS  H18X 1727   3.686   0.585   8.581  2.3003  0.6271 -1.2898
   13SAPS  H18Y 1728   3.665   0.401   8.555  0.1651  0.9521  1.4169
   13SAPS  H18Z 1729   3.536   0.517   8.526 -0.1148 -3.7404 -0.4894
   14SAPS     N 1730   3.828   3.246   5.593  0.3673  0.2152 -0.1280
   14SAPS   HN1 1731   3.867   3.235   5.498  1.8427 -0.0220  0.4879
   14SAPS   HN2 1732   3.846   3.339   5.638  0.0168 -0.0812  0.6378
   14SAPS   HN3 1733   3.891   3.182   5.646  1.1353  3.6857  3.4432
   14SAPS   C12 1734   3.686   3.219   5.602  1.1016  0.2386 -0.0968
   14SAPS  H12A 1735   3.634   3.250   5.513 -0.2159 -0.3289  0.4698
   14SAPS   C13 1736   3.667   3.063   5.609  0.6479 -0.5451 -0.4124
   14SAPS  O13A 1737   3.758   2.979   5.593  0.1021  0.0779  0.0171
   14SAPS  O13B 1738   3.550   3.033   5.641  0.6582  0.6274 -0.0005
   14SAPS   C11 1739   3.624   3.293   5.722  0.4374  0.4738  0.5357
   14SAPS  H11A 1740   3.659   3.247   5.817  1.7433  0.5220  0.0888
   14SAPS  H11B 1741   3.516   3.272   5.716  0.5889 -0.0014 -0.7979
   14SAPS     P 1742   3.674   3.516   5.856 -0.4092  0.3991 -0.1674
   14SAPS   O13 1743   3.815   3.495   5.892 -0.0459 -0.4689  0.1238
   14SAPS   O14 1744   3.637   3.658   5.826  0.1448 -0.5337  0.1088
   14SAPS   O12 1745   3.646   3.436   5.721  0.3263  0.5590 -0.1664
   14SAPS   O11 1746   3.571   3.463   5.959 -0.2328  0.4561  0.2504
   14SAPS    C1 1747   3.474   3.542   6.026 -0.3426  0.2718 -0.1737
   14SAPS    HA 1748   3.428   3.624   5.967  2.1909  1.3175 -0.7616
   14SAPS    HB 1749   3.385   3.481   6.051  0.0282  0.1816  0.9295
   14SAPS    C2 1750   3.532   3.603   6.151  0.3695  0.2637 -0.1860
   14SAPS    HS 1751   3.621   3.661   6.119 -0.3956  0.8035 -1.3439
   14SAPS   O21 1752   3.569   3.490   6.231 -0.1126  0.0449  0.2005
   14SAPS   C21 1753   3.640   3.530   6.339 -0.3275 -0.7252 -1.0149
   14SAPS   O22 1754   3.672   3.647   6.354 -0.2524  0.3342  0.4617
   14SAPS   C22 1755   3.676   3.411   6.434 -0.5747 -0.1193  0.2750
   14SAPS   H2R 1756   3.649   3.446   6.536  0.5294 -0.1263  0.5722
   14SAPS   H2S 1757   3.613   3.326   6.400 -1.9247  2.4652 -4.1481
   14SAPS    C3 1758   3.429   3.699   6.223  0.6300 -0.7236 -0.1860
   14SAPS    HX 1759   3.414   3.782   6.151 -2.1918 -1.1054 -0.1271
   14SAPS    HY 1760   3.468   3.749   6.313  1.3227 -0.5923 -0.5605
   14SAPS   O31 1761   3.297   3.644   6.238 -0.5033  0.1865  0.4949
   14SAPS   C31 1762   3.274   3.590   6.358 -0.6641 -0.9362  0.8907
   14SAPS   O32 1763   3.348   3.582   6.453 -0.4505  0.1358  0.5595
   14SAPS   C32 1764   3.132   3.552   6.348  0.3445  0.0259 -0.1024
   14SAPS   H2X 1765   3.119   3.470   6.274 -1.9735 -1.0692  1.4728
   14SAPS   H2Y 1766   3.070   3.638   6.316  0.6303 -0.2913 -1.5260
   14SAPS   C23 1767   3.822   3.382   6.439 -0.6253  0.2277 -0.2300
   14SAPS   H3R 1768   3.873   3.397   6.342 -0.2359  2.9093  0.3399
   14SAPS   H3S 1769   3.836   3.274   6.463  1.0205  0.0032 -2.0297
   14SAPS   C24 1770   3.908   3.459   6.546 -0.2095  0.1407 -0.3859
   14SAPS   H4R 1771   4.002   3.399   6.547  1.7115  3.0701 -0.2784
   14SAPS   H4S 1772   3.870   3.440   6.649  0.0810  0.5387 -0.2053
   14SAPS   C25 1773   3.928   3.609   6.536 -0.2159  0.1086 -0.1168
   14SAPS   H5R 1774   3.880   3.654   6.448  1.4901  2.8131  0.2545
   14SAPS   C26 1775   3.980   3.679   6.639  0.0843 -0.3679  0.2762
   14SAPS   H6R 1776   4.005   3.784   6.617  0.1724  0.3589  3.6216
   14SAPS   C27 1777   4.028   3.642   6.781  0.9092 -0.1055 -0.0319
   14SAPS   H7R 1778   3.937   3.656   6.844  0.0172  1.9830 -1.6846
   14SAPS   H7S 1779   4.089   3.725   6.822 -1.4877  0.7114  2.0361
   14SAPS   C28 1780   4.102   3.512   6.802 -0.1264 -0.3913 -0.1385
   14SAPS   H8R 1781   4.180   3.486   6.729  0.9935  0.9240  0.5617
   14SAPS   C29 1782   4.087   3.429   6.912  0.9343  0.4227 -0.2923
   14SAPS   H9R 1783   4.149   3.338   6.921 -1.3743 -1.1189  0.8341
   14SAPS  C210 1784   3.990   3.450   7.031 -1.3556  0.2239 -0.3066
   14SAPS  H10R 1785   3.989   3.348   7.075  2.2179  0.1778 -0.1942
   14SAPS  H10S 1786   3.886   3.466   6.996 -1.3305 -1.4995 -1.2191
   14SAPS  C211 1787   4.021   3.561   7.141  0.0597  0.3073 -0.0765
   14SAPS  H11R 1788   4.047   3.658   7.095  0.5397 -0.9894 -2.6059
   14SAPS  C212 1789   4.028   3.539   7.273 -0.4078 -0.2739  0.4446
   14SAPS  H12R 1790   4.055   3.615   7.347  1.5173  0.3402 -0.8429
   14SAPS  C213 1791   4.013   3.408   7.341 -0.1360 -0.1704  0.5248
   14SAPS  H13R 1792   4.109   3.354   7.353 -0.2929 -0.5116  0.2512
   14SAPS  H13S 1793   3.953   3.339   7.277 -0.8367 -1.1011  2.1690
   14SAPS  C214 1794   3.944   3.420   7.470 -0.3642  0.0703  0.2508
   14SAPS  H14R 1795   3.861   3.491   7.488 -1.9474 -1.2158 -1.8154
   14SAPS  C215 1796   3.965   3.336   7.578  0.0716 -0.1454 -0.1522
   14SAPS  H15R 1797   3.906   3.348   7.670 -3.4221 -0.2086 -2.3021
   14SAPS  C216 1798   4.057   3.220   7.586 -0.2819  0.0444  0.1876
   14SAPS  H16R 1799   4.122   3.223   7.496  1.1994 -1.1321  1.1883
   14SAPS  H16S 1800   4.004   3.122   7.578  1.3578 -0.7542 -1.2662
   14SAPS  C217 1801   4.148   3.210   7.715 -0.7758  0.5400 -0.3385
   14SAPS  H17R 1802   4.185   3.312   7.740 -0.7628  0.6866 -0.9555
   14SAPS  H17S 1803   4.234   3.146   7.684 -0.2162  2.0224 -1.9276
   14SAPS  C218 1804   4.083   3.139   7.837  0.2288  0.3442 -0.2115
   14SAPS  H18R 1805   4.167   3.124   7.908  0.3271  2.1004  0.0566
   14SAPS  H18S 1806   4.043   3.043   7.798 -0.4961  1.3033 -1.8466
   14SAPS  C219 1807   3.975   3.223   7.909  0.7431  0.1137 -0.7468
   14SAPS  H19R 1808   3.885   3.200   7.847  1.5653 -1.5947 -1.3624
   14SAPS  H19S 1809   3.996   3.332   7.905  1.9949 -0.0935 -0.0187
   14SAPS  C220 1810   3.959   3.182   8.054  0.4357 -0.4332 -0.2961
   14SAPS  H20R 1811   4.049   3.219   8.108  0.2013 -1.1406  0.5965
   14SAPS  H20S 1812   3.959   3.072   8.069  0.1599 -0.3646  0.2165
   14SAPS  H20T 1813   3.872   3.227   8.105 -0.2339 -2.3371  0.2966
   14SAPS   C33 1814   3.065   3.510   6.482  0.6324 -0.3112 -0.2744
   14SAPS   H3X 1815   3.092   3.588   6.557  0.4144  1.1109 -1.6548
   14SAPS   H3Y 1816   3.110   3.416   6.521  1.6950 -0.1316 -1.0228
   14SAPS   C34 1817   2.911   3.506   6.479 -0.3556 -0.4775 -0.3348
   14SAPS   H4X 1818   2.867   3.436   6.405 -0.9005 -0.4368 -0.0548
   14SAPS   H4Y 1819   2.869   3.602   6.442 -2.4877 -1.9665 -1.9885
   14SAPS   C35 1820   2.851   3.486   6.621 -0.3193 -0.2418 -0.2377
   14SAPS   H5X 1821   2.742   3.508   6.625 -0.2403 -0.0982  1.1010
   14SAPS   H5Y 1822   2.891   3.546   6.704 -0.7081  0.5755 -0.6388
   14SAPS   C36 1823   2.864   3.339   6.674  0.1446  0.3749 -0.4498
   14SAPS   H6X 1824   2.970   3.325   6.706 -0.0241 -0.5301 -0.2777
   14SAPS   H6Y 1825   2.836   3.267   6.595  1.0093 -1.5172  0.9181
   14SAPS   C37 1826   2.760   3.316   6.791 -0.5676  0.1885 -0.9078
   14SAPS   H7X 1827   2.770   3.206   6.804 -0.8701  0.2432 -0.2308
   14SAPS   H7Y 1828   2.663   3.340   6.742 -0.5378  3.6195  0.5876
   14SAPS   C38 1829   2.768   3.385   6.929 -0.3725  0.0654  0.4469
   14SAPS   H8X 1830   2.745   3.493   6.917  2.1447  0.4524 -1.3373
   14SAPS   H8Y 1831   2.874   3.361   6.954 -1.0672 -1.4704  2.0212
   14SAPS   C39 1832   2.678   3.328   7.033 -0.2104  0.2987 -0.8466
   14SAPS   H9X 1833   2.714   3.352   7.135 -1.0871  2.1100 -0.9366
   14SAPS   H9Y 1834   2.659   3.219   7.020  4.1211 -0.5376 -0.7296
   14SAPS  C310 1835   2.539   3.399   7.024 -0.1250  0.9023  0.2800
   14SAPS  H10X 1836   2.508   3.408   6.918  0.7503  1.8688  0.1052
   14SAPS  H10Y 1837   2.543   3.500   7.070 -1.3047  1.7840 -1.5122
   14SAPS  C311 1838   2.433   3.314   7.092  0.6886  0.7847  0.1679
   14SAPS  H11X 1839   2.427   3.211   7.050 -0.3536  0.9663 -0.1394
   14SAPS  H11Y 1840   2.341   3.371   7.071  0.0393 -0.4012 -0.2879
   14SAPS  C312 1841   2.455   3.303   7.244 -0.0601 -0.4020 -0.5767
   14SAPS  H12X 1842   2.506   3.391   7.289 -1.9120  1.3551 -1.8162
   14SAPS  H12Y 1843   2.513   3.212   7.267 -1.7825 -1.1626  0.9487
   14SAPS  C313 1844   2.325   3.285   7.319  0.8895  0.3478 -0.9767
   14SAPS  H13X 1845   2.271   3.204   7.266 -1.3750  1.4712 -0.4472
   14SAPS  H13Y 1846   2.275   3.382   7.300 -1.1858 -0.4474  0.2693
   14SAPS  C314 1847   2.342   3.268   7.473 -0.0684  0.7853 -0.3308
   14SAPS  H14X 1848   2.393   3.356   7.518 -0.2396  1.0120 -0.5809
   14SAPS  H14Y 1849   2.403   3.180   7.505 -0.3777  0.6715 -0.0482
   14SAPS  C315 1850   2.196   3.258   7.537 -0.2465  0.2784  0.1704
   14SAPS  H15X 1851   2.164   3.159   7.500 -0.1706  0.7468 -1.1530
   14SAPS  H15Y 1852   2.135   3.333   7.483  0.7734  0.7209 -0.3684
   14SAPS  C316 1853   2.179   3.277   7.681  0.5411  0.2576 -0.0105
   14SAPS  H16X 1854   2.237   3.363   7.721  0.9541 -0.5888  1.2302
   14SAPS  H16Y 1855   2.214   3.187   7.734 -0.6124  0.6813  1.4955
   14SAPS  C317 1856   2.027   3.293   7.719 -0.4711  0.0408  0.6214
   14SAPS  H17X 1857   1.974   3.197   7.710 -0.4677  0.1017 -0.0392
   14SAPS  H17Y 1858   1.983   3.361   7.643  0.4250 -1.4463 -1.2633
   14SAPS  C318 1859   1.998   3.367   7.854  0.3393  0.5758  0.3947
   14SAPS  H18X 1860   2.040   3.470   7.847  0.4498  0.4444 -0.9913
   14SAPS  H18Y 1861   2.060   3.315   7.930 -0.1559 -1.0016 -0.2671
   14SAPS  H18Z 1862   1.891   3.367   7.887 -0.1292  0.5033 -1.1010
   15SAPS     N 1863   4.233   3.278   5.707  0.0310 -0.0395 -0.2227
   15SAPS   HN1 1864   4.254   3.380   5.711 -0.9706  0.1882 -0.5408
   15SAPS   HN2 1865   4.215   3.251   5.608  2.4540  0.7276 -0.9010
   15SAPS   HN3 1866   4.147   3.265   5.765 -0.3493  0.1404 -0.7451
   15SAPS   C12 1867   4.347   3.179   5.750  0.2610 -0.0509  0.1571
   15SAPS  H12A 1868   4.324   3.078   5.719  0.3147  0.0816 -0.3184
   15SAPS   C13 1869   4.484   3.203   5.678 -0.2796  0.8121 -0.1972
   15SAPS  O13A 1870   4.486   3.289   5.590 -0.0656 -0.0350 -0.2256
   15SAPS  O13B 1871   4.577   3.125   5.703 -0.3555 -0.5298 -0.2337
   15SAPS   C11 1872   4.361   3.179   5.902 -0.8294  0.1426 -0.0346
   15SAPS  H11A 1873   4.262   3.206   5.943 -0.2238  1.9027  0.3090
   15SAPS  H11B 1874   4.425   3.259   5.946  1.1825 -1.2392 -0.3693
   15SAPS     P 1875   4.338   2.919   5.975 -0.2843 -0.1721  0.0519
   15SAPS   O13 1876   4.316   2.861   5.840 -0.1136  0.0199  0.6373
   15SAPS   O14 1877   4.414   2.841   6.076 -0.3384 -0.6024 -0.9066
   15SAPS   O12 1878   4.414   3.053   5.951  0.5997  0.4706  0.2908
   15SAPS   O11 1879   4.199   2.977   6.029 -0.8148  0.1125 -0.1535
   15SAPS    C1 1880   4.186   3.060   6.149  0.6656  0.6236  0.2952
   15SAPS    HA 1881   4.283   3.108   6.172  0.7981  0.8537 -0.6939
   15SAPS    HB 1882   4.113   3.140   6.121  1.7007  2.1541  1.9305
   15SAPS    C2 1883   4.137   2.987   6.274  0.2936 -0.5940 -0.0309
   15SAPS    HS 1884   4.175   2.884   6.254  0.7829 -0.7920  1.8140
   15SAPS   O21 1885   3.995   2.991   6.275 -0.6243 -0.4997 -0.0362
   15SAPS   C21 1886   3.929   2.888   6.342 -0.2592 -0.3908  0.1783
   15SAPS   O22 1887   3.988   2.796   6.395  0.4114  0.0685  0.1492
   15SAPS   C22 1888   3.775   2.907   6.323  0.4635 -0.4086 -0.5540
   15SAPS   H2R 1889   3.759   3.009   6.282 -1.5104  0.1927  1.6398
   15SAPS   H2S 1890   3.755   2.832   6.244 -1.4459 -1.0822  0.5534
   15SAPS    C3 1891   4.190   3.046   6.404 -0.4885  0.4679 -0.5339
   15SAPS    HX 1892   4.142   3.146   6.413 -0.2344  0.4409  1.3325
   15SAPS    HY 1893   4.296   3.077   6.393 -0.5048  0.6553 -0.1551
   15SAPS   O31 1894   4.175   2.973   6.531  0.3416  0.0980  0.1338
   15SAPS   C31 1895   4.127   3.043   6.637 -0.7667 -0.2716  0.5170
   15SAPS   O32 1896   4.104   3.162   6.640 -0.5122 -0.1274 -0.2926
   15SAPS   C32 1897   4.094   2.944   6.744  0.2254  0.5994  0.6161
   15SAPS   H2X 1898   4.173   2.866   6.741 -1.5353 -1.1643 -1.9278
   15SAPS   H2Y 1899   4.000   2.897   6.711 -0.3327  2.0765  0.0438
   15SAPS   C23 1900   3.687   2.881   6.448 -0.6594  0.9837 -0.5744
   15SAPS   H3R 1901   3.736   2.815   6.523 -0.8913  0.0214 -1.2520
   15SAPS   H3S 1902   3.584   2.844   6.424 -1.1078  0.1429  2.4340
   15SAPS   C24 1903   3.656   3.007   6.528  0.1511 -0.3365 -0.4651
   15SAPS   H4R 1904   3.614   3.082   6.458 -3.2788  1.1570  3.0403
   15SAPS   H4S 1905   3.748   3.065   6.549 -0.4372  0.3509  0.2090
   15SAPS   C25 1906   3.570   2.973   6.648 -0.0958  0.4237 -0.1340
   15SAPS   H5R 1907   3.474   2.922   6.631  1.1559 -1.7216 -0.9937
   15SAPS   C26 1908   3.601   2.988   6.773  0.1027  0.8005  1.2846
   15SAPS   H6R 1909   3.528   2.968   6.853  1.4844 -1.9479  1.9130
   15SAPS   C27 1910   3.732   3.034   6.829  0.7553 -0.2888  0.2217
   15SAPS   H7R 1911   3.814   2.980   6.777 -0.4229 -0.2797 -1.7036
   15SAPS   H7S 1912   3.743   3.020   6.938  1.4589  1.0204  0.3348
   15SAPS   C28 1913   3.760   3.178   6.807 -0.7140 -0.2721  0.4173
   15SAPS   H8R 1914   3.800   3.206   6.708 -1.7275 -0.6172 -0.1042
   15SAPS   C29 1915   3.701   3.284   6.870  0.2538  0.4147  0.5471
   15SAPS   H9R 1916   3.718   3.386   6.832  1.5224  1.0217  2.6857
   15SAPS  C210 1917   3.598   3.292   6.987 -0.6568  0.1489  0.6496
   15SAPS  H10R 1918   3.547   3.194   6.996  0.2045 -0.2880  0.7971
   15SAPS  H10S 1919   3.518   3.361   6.955 -2.3044 -1.8767  0.2797
   15SAPS  C211 1920   3.651   3.316   7.127  0.3329 -0.4924  0.3016
   15SAPS  H11R 1921   3.713   3.407   7.128 -1.7769  1.1187 -3.0881
   15SAPS  C212 1922   3.629   3.251   7.246  0.2274  0.1119 -0.6851
   15SAPS  H12R 1923   3.682   3.282   7.337 -0.7955  1.5107 -0.5506
   15SAPS  C213 1924   3.541   3.126   7.264  0.1037  0.9901 -0.2775
   15SAPS  H13R 1925   3.605   3.040   7.234 -0.1149  1.9446 -3.7575
   15SAPS  H13S 1926   3.455   3.130   7.194 -1.3428 -1.9275  1.2067
   15SAPS  C214 1927   3.490   3.110   7.402 -0.1290  0.0792  0.1177
   15SAPS  H14R 1928   3.399   3.168   7.427  0.7429  1.2410  0.6258
   15SAPS  C215 1929   3.549   3.042   7.507 -0.1035 -0.2784  0.0813
   15SAPS  H15R 1930   3.499   3.038   7.604  0.7152  1.3167  0.5894
   15SAPS  C216 1931   3.684   2.968   7.508 -0.0068 -0.4127  0.3620
   15SAPS  H16R 1932   3.762   3.042   7.535 -0.4513  1.2603 -2.7028
   15SAPS  H16S 1933   3.719   2.938   7.407 -0.3097  2.0742 -0.5008
   15SAPS  C217 1934   3.693   2.843   7.601  1.1245 -0.2920  0.5082
   15SAPS  H17R 1935   3.780   2.782   7.568 -1.1175 -1.4051 -3.6908
   15SAPS  H17S 1936   3.601   2.783   7.585 -1.1599  3.0443  0.5812
   15SAPS  C218 1937   3.689   2.882   7.749 -0.0603 -0.0858  0.5567
   15SAPS  H18R 1938   3.596   2.940   7.769 -0.1727  1.1176 -3.0199
   15SAPS  H18S 1939   3.772   2.955   7.760 -0.4631  0.3232  0.8832
   15SAPS  C219 1940   3.679   2.774   7.852 -0.1502  0.3250  0.3284
   15SAPS  H19R 1941   3.766   2.706   7.851 -1.2608 -1.1297 -1.9627
   15SAPS  H19S 1942   3.602   2.701   7.819 -0.1326 -0.2754  1.6157
   15SAPS  C220 1943   3.658   2.825   7.990  0.2789 -0.8482 -0.1819
   15SAPS  H20R 1944   3.560   2.878   8.002 -0.2423 -1.9914  0.6735
   15SAPS  H20S 1945   3.731   2.897   8.031  2.1517 -3.7370  1.6439
   15SAPS  H20T 1946   3.650   2.737   8.056  0.2670 -1.4357 -0.9540
   15SAPS   C33 1947   4.081   3.024   6.880 -0.1024 -0.0362 -0.0470
   15SAPS   H3X 1948   3.982   3.073   6.870 -0.2777 -0.6522 -1.4976
   15SAPS   H3Y 1949   4.156   3.104   6.897  2.0995 -2.0756  0.0711
   15SAPS   C34 1950   4.074   2.942   7.011 -0.5768  0.3935 -0.1396
   15SAPS   H4X 1951   4.170   2.891   7.036 -2.0479 -1.8528  1.1293
   15SAPS   H4Y 1952   3.995   2.864   7.007 -0.4915  0.3326 -0.7707
   15SAPS   C35 1953   4.021   3.029   7.128  0.6026  0.1901  0.1412
   15SAPS   H5X 1954   3.927   3.081   7.100 -0.6898 -2.0157  0.2448
   15SAPS   H5Y 1955   4.092   3.111   7.154 -0.4688  0.8203  1.1010
   15SAPS   C36 1956   3.990   2.945   7.257  0.3946  0.3872 -0.2627
   15SAPS   H6X 1957   3.908   2.873   7.239  0.0487  0.3986  1.1694
   15SAPS   H6Y 1958   3.948   3.014   7.333  0.9693 -0.5338  0.9164
   15SAPS   C37 1959   4.112   2.880   7.322  0.1856 -0.4019  0.4629
   15SAPS   H7X 1960   4.195   2.953   7.314  0.1218 -0.3024  0.7326
   15SAPS   H7Y 1961   4.146   2.796   7.257  2.4226  0.5020  0.4127
   15SAPS   C38 1962   4.075   2.828   7.459 -0.3628  0.0089 -0.0776
   15SAPS   H8X 1963   4.019   2.732   7.453 -1.7935  0.7869  0.5066
   15SAPS   H8Y 1964   4.019   2.898   7.525  2.6202  2.4802 -0.0496
   15SAPS   C39 1965   4.210   2.788   7.525 -0.1582  0.1759  0.7135
   15SAPS   H9X 1966   4.289   2.866   7.512 -1.0606  1.2022  1.2930
   15SAPS   H9Y 1967   4.258   2.705   7.469 -0.3333  0.2776  0.4125
   15SAPS  C310 1968   4.185   2.753   7.671 -0.5605  0.4715 -0.1286
   15SAPS  H10X 1969   4.095   2.690   7.689 -1.0271  1.0587 -0.3900
   15SAPS  H10Y 1970   4.182   2.840   7.741  0.9282 -0.4329  1.0910
   15SAPS  C311 1971   4.309   2.681   7.725 -0.1310 -0.1644 -0.4170
   15SAPS  H11X 1972   4.381   2.763   7.743 -0.6719 -0.1825  2.0194
   15SAPS  H11Y 1973   4.356   2.599   7.665  0.8571 -1.0468  1.4944
   15SAPS  C312 1974   4.284   2.622   7.867  0.1167  0.4188  0.4621
   15SAPS  H12X 1975   4.194   2.557   7.856 -0.3384  0.8883  1.3767
   15SAPS  H12Y 1976   4.262   2.699   7.944  1.1822  1.4809 -0.2813
   15SAPS  C313 1977   4.397   2.533   7.913 -0.2592  0.4740  0.3991
   15SAPS  H13X 1978   4.494   2.586   7.918 -0.5426  1.2335 -1.7288
   15SAPS  H13Y 1979   4.402   2.443   7.847  0.3752 -0.6142  1.8992
   15SAPS  C314 1980   4.383   2.481   8.054 -0.1290 -0.1118 -0.3260
   15SAPS  H14X 1981   4.275   2.457   8.069 -0.2340  0.2491 -0.5060
   15SAPS  H14Y 1982   4.398   2.570   8.118  1.9638 -0.0216 -0.9340
   15SAPS  C315 1983   4.473   2.364   8.085  0.4614  0.1399 -0.1651
   15SAPS  H15X 1984   4.577   2.401   8.082  0.4367  0.1569 -0.8499
   15SAPS  H15Y 1985   4.445   2.279   8.019 -0.2623  1.1624 -1.1824
   15SAPS  C316 1986   4.446   2.326   8.236  0.5377  0.3038 -0.2405
   15SAPS  H16X 1987   4.342   2.304   8.265  1.5442 -0.9606  2.5549
   15SAPS  H16Y 1988   4.472   2.418   8.293  2.0561 -0.3813  0.1891
   15SAPS  C317 1989   4.520   2.197   8.281 -0.1376  0.0265 -0.0063
   15SAPS  H17X 1990   4.625   2.220   8.253 -0.4593  0.9600 -0.4744
   15SAPS  H17Y 1991   4.486   2.109   8.222 -1.4193  0.3501  0.2364
   15SAPS  C318 1992   4.517   2.171   8.431  0.2239 -0.1819 -0.0774
   15SAPS  H18X 1993   4.409   2.162   8.455 -0.0832 -0.1763 -1.4078
   15SAPS  H18Y 1994   4.550   2.268   8.475  1.1116 -0.7879  0.5894
   15SAPS  H18Z 1995   4.579   2.085   8.462 -1.1238 -0.8277  0.8982
   16SAPS     N 1996   5.920   4.927   6.609  0.7502  0.2551  0.0382
   16SAPS   HN1 1997   5.881   5.005   6.666 -0.2366 -0.5803  0.5142
   16SAPS   HN2 1998   5.850   4.891   6.542 -0.0197  0.8153  0.5364
   16SAPS   HN3 1999   5.956   4.852   6.672 -0.0490  2.2490  3.0063
   16SAPS   C12 2000   6.022   4.981   6.512 -0.4987 -0.4723  0.5839
   16SAPS  H12A 2001   6.099   4.911   6.483  0.6887  0.7475  0.7460
   16SAPS   C13 2002   5.955   5.029   6.375  0.1879 -0.1680 -0.2859
   16SAPS  O13A 2003   5.826   5.024   6.370 -0.7450 -0.3484 -0.2781
   16SAPS  O13B 2004   6.025   5.036   6.271  0.0605 -0.1225  0.1216
   16SAPS   C11 2005   6.076   5.121   6.572 -0.7310 -0.5608  0.4338
   16SAPS  H11A 2006   5.991   5.190   6.591  0.1097  0.1927  1.4982
   16SAPS  H11B 2007   6.137   5.165   6.490  1.0171 -0.7908  1.5864
   16SAPS     P 2008   6.192   5.214   6.797  0.0999  0.3340 -0.2205
   16SAPS   O13 2009   6.337   5.215   6.821  0.3038 -0.4963  0.1782
   16SAPS   O14 2010   6.127   5.339   6.750 -0.2203 -0.4207 -0.1749
   16SAPS   O12 2011   6.159   5.106   6.684  0.2804  0.2174 -0.3773
   16SAPS   O11 2012   6.117   5.160   6.922 -0.0274 -0.0950  0.1086
   16SAPS    C1 2013   6.088   5.249   7.033 -0.6112  0.0181 -0.1408
   16SAPS    HA 2014   6.179   5.265   7.094 -0.0766 -4.0046  0.2830
   16SAPS    HB 2015   6.050   5.347   6.998 -1.2480 -0.1968 -0.0692
   16SAPS    C2 2016   5.961   5.212   7.133  0.6651 -0.8028  0.9193
   16SAPS    HS 2017   5.958   5.304   7.196  1.1511  0.2022 -0.4852
   16SAPS   O21 2018   6.001   5.088   7.201 -0.1105 -0.0372  0.1719
   16SAPS   C21 2019   5.945   5.073   7.318  0.2586  0.5597 -0.8066
   16SAPS   O22 2020   5.888   5.155   7.386  0.2556 -0.1952  0.2691
   16SAPS   C22 2021   5.952   4.931   7.357 -0.5457 -0.3030  0.3910
   16SAPS   H2R 2022   5.924   4.875   7.266  1.5422  0.2187 -0.5938
   16SAPS   H2S 2023   6.057   4.911   7.388 -0.4488 -2.2890 -1.1213
   16SAPS    C3 2024   5.830   5.204   7.048 -0.4325  0.1462 -0.0333
   16SAPS    HX 2025   5.844   5.116   6.982  1.7598  0.0064  0.5723
   16SAPS    HY 2026   5.824   5.294   6.984  0.4971  0.1512 -0.1163
   16SAPS   O31 2027   5.715   5.178   7.140  0.2493 -0.6509  0.2475
   16SAPS   C31 2028   5.670   5.277   7.202  0.0977 -0.4671 -0.4399
   16SAPS   O32 2029   5.688   5.397   7.167 -0.5202  0.2316 -0.1389
   16SAPS   C32 2030   5.578   5.226   7.315 -0.6006  0.3972 -0.5158
   16SAPS   H2X 2031   5.624   5.251   7.413  1.0406 -1.9832 -0.6143
   16SAPS   H2Y 2032   5.579   5.115   7.311 -3.4711  0.3601 -0.7669
   16SAPS   C23 2033   5.856   4.891   7.483 -0.0664  0.5002 -0.6755
   16SAPS   H3R 2034   5.749   4.874   7.458 -0.2831 -0.7706  1.0319
   16SAPS   H3S 2035   5.863   4.979   7.550 -0.8141 -0.8425  1.1914
   16SAPS   C24 2036   5.926   4.774   7.555  0.4138 -0.3375  0.7829
   16SAPS   H4R 2037   6.036   4.776   7.564  0.5778  1.5164 -1.1562
   16SAPS   H4S 2038   5.908   4.690   7.484 -2.5930  2.3574 -1.8124
   16SAPS   C25 2039   5.860   4.749   7.683  0.6893  0.3750 -0.1286
   16SAPS   H5R 2040   5.759   4.708   7.675  1.4786 -1.3455 -1.6558
   16SAPS   C26 2041   5.912   4.767   7.806  0.2880  0.4519  0.3116
   16SAPS   H6R 2042   5.857   4.731   7.894  2.2160  2.3442  2.3466
   16SAPS   C27 2043   6.047   4.822   7.837 -0.2351 -0.0300  0.2814
   16SAPS   H7R 2044   6.031   4.924   7.878  0.0455  0.3659 -0.5651
   16SAPS   H7S 2045   6.109   4.851   7.748  2.4917 -4.9254  0.4221
   16SAPS   C28 2046   6.132   4.737   7.924  0.7862 -0.2551  0.3681
   16SAPS   H8R 2047   6.112   4.738   8.032 -1.0638  0.5264  0.0394
   16SAPS   C29 2048   6.246   4.673   7.888 -0.5135 -0.5230  0.6948
   16SAPS   H9R 2049   6.306   4.615   7.961  0.1759 -0.6126  0.0664
   16SAPS  C210 2050   6.308   4.670   7.749  0.1206 -0.3011 -0.4593
   16SAPS  H10R 2051   6.416   4.647   7.760  0.5633  2.1672  0.9056
   16SAPS  H10S 2052   6.313   4.772   7.704 -0.8013  1.2183  2.7574
   16SAPS  C211 2053   6.236   4.581   7.644  0.6843  0.5075  0.4346
   16SAPS  H11R 2054   6.136   4.549   7.676 -0.1235 -0.0518 -2.5515
   16SAPS  C212 2055   6.281   4.534   7.527  0.1871  0.3911 -0.6457
   16SAPS  H12R 2056   6.222   4.468   7.462  1.1063  1.6017 -2.7817
   16SAPS  C213 2057   6.422   4.546   7.463  0.0776 -0.4572  0.2060
   16SAPS  H13R 2058   6.461   4.443   7.450  0.3370 -0.3485  0.1355
   16SAPS  H13S 2059   6.492   4.590   7.538  0.3015 -2.1086  0.9833
   16SAPS  C214 2060   6.428   4.649   7.354 -0.5361  0.5038 -0.1782
   16SAPS  H14R 2061   6.487   4.735   7.389 -0.6815  0.8382 -0.7548
   16SAPS  C215 2062   6.369   4.663   7.235 -0.2599 -0.3675 -0.1127
   16SAPS  H15R 2063   6.375   4.758   7.179 -1.6511 -0.3027 -0.1808
   16SAPS  C216 2064   6.270   4.561   7.179  0.8567 -0.2112 -0.1197
   16SAPS  H16R 2065   6.271   4.466   7.235 -1.3289 -1.0535 -1.4593
   16SAPS  H16S 2066   6.311   4.533   7.079  4.9609  1.9173  0.8538
   16SAPS  C217 2067   6.126   4.620   7.184  0.0371  0.0984  0.5387
   16SAPS  H17R 2068   6.135   4.723   7.144 -0.4200  0.2914  0.9267
   16SAPS  H17S 2069   6.081   4.640   7.284 -2.7370 -1.6424 -0.3311
   16SAPS  C218 2070   6.027   4.547   7.089 -0.0761 -0.2514  0.1200
   16SAPS  H18R 2071   6.024   4.439   7.117  0.4174 -0.2522  0.1716
   16SAPS  H18S 2072   6.060   4.562   6.984 -4.2216  2.3431 -0.9274
   16SAPS  C219 2073   5.888   4.605   7.081  0.5998  0.5394 -0.7999
   16SAPS  H19R 2074   5.892   4.705   7.034 -0.3929  1.9203  1.9123
   16SAPS  H19S 2075   5.851   4.640   7.180 -2.1188  2.2703 -2.3465
   16SAPS  C220 2076   5.793   4.506   7.011  0.6607 -1.0361 -0.2910
   16SAPS  H20R 2077   5.838   4.470   6.916 -3.0304 -2.6119 -1.5400
   16SAPS  H20S 2078   5.697   4.554   6.979  0.0389 -0.7836  1.8865
   16SAPS  H20T 2079   5.766   4.419   7.075 -3.1322  0.2453  0.0147
   16SAPS   C33 2080   5.435   5.270   7.292 -0.4350 -0.0445 -0.2824
   16SAPS   H3X 2081   5.375   5.212   7.366  0.9116  2.6497  3.0266
   16SAPS   H3Y 2082   5.407   5.233   7.190 -0.7952 -0.0532 -0.1812
   16SAPS   C34 2083   5.413   5.421   7.323  1.0751 -0.3994 -0.2878
   16SAPS   H4X 2084   5.304   5.444   7.314  0.4890 -2.3057  1.5668
   16SAPS   H4Y 2085   5.461   5.470   7.236 -1.4974  0.9363 -1.0253
   16SAPS   C35 2086   5.462   5.476   7.460  0.1795 -0.5153  0.1000
   16SAPS   H5X 2087   5.448   5.586   7.471  0.7598 -0.5086  0.8162
   16SAPS   H5Y 2088   5.570   5.453   7.468  0.0077 -0.7271  2.0171
   16SAPS   C36 2089   5.400   5.410   7.581 -0.0316 -0.1385  0.9815
   16SAPS   H6X 2090   5.405   5.301   7.560 -1.0010  0.1563 -0.9042
   16SAPS   H6Y 2091   5.292   5.435   7.585  0.1384  0.5216  1.4651
   16SAPS   C37 2092   5.458   5.446   7.714 -0.7910  0.0133 -0.3387
   16SAPS   H7X 2093   5.469   5.555   7.729 -1.7101  0.0013  0.4385
   16SAPS   H7Y 2094   5.561   5.404   7.712 -0.9240 -0.3405  0.1323
   16SAPS   C38 2095   5.384   5.378   7.834 -0.5585 -0.1317 -0.0794
   16SAPS   H8X 2096   5.403   5.268   7.839  0.2180 -0.0203 -0.4763
   16SAPS   H8Y 2097   5.277   5.382   7.806 -0.1272  1.7194 -1.5383
   16SAPS   C39 2098   5.415   5.445   7.974 -0.1692 -0.3974  0.9902
   16SAPS   H9X 2099   5.350   5.401   8.052 -1.5457  1.0841  0.7022
   16SAPS   H9Y 2100   5.379   5.550   7.962 -1.9589 -1.1057  0.0037
   16SAPS  C310 2101   5.561   5.452   8.010 -0.4868  0.0520  0.3118
   16SAPS  H10X 2102   5.625   5.502   7.934  0.7824 -0.7576  0.8156
   16SAPS  H10Y 2103   5.590   5.345   8.023  1.3804  0.3499 -1.1124
   16SAPS  C311 2104   5.569   5.533   8.133 -0.1087 -0.4762  0.6024
   16SAPS  H11X 2105   5.502   5.495   8.212 -1.3772  1.2037  0.3554
   16SAPS  H11Y 2106   5.550   5.640   8.110 -1.9367 -1.7628 -4.7531
   16SAPS  C312 2107   5.704   5.525   8.208  0.2319  1.0342  0.2207
   16SAPS  H12X 2108   5.755   5.622   8.192 -0.9635  2.0341  2.2430
   16SAPS  H12Y 2109   5.760   5.443   8.157 -1.4386  0.2726 -0.4157
   16SAPS  C313 2110   5.703   5.512   8.360 -0.3633  0.3618 -0.3170
   16SAPS  H13X 2111   5.637   5.430   8.397  1.6344  0.1015  2.8358
   16SAPS  H13Y 2112   5.667   5.608   8.404 -0.9842 -0.1973  0.4189
   16SAPS  C314 2113   5.848   5.492   8.422 -0.3734  0.3722  0.3436
   16SAPS  H14X 2114   5.866   5.383   8.423 -1.3020  0.1243 -3.2721
   16SAPS  H14Y 2115   5.833   5.525   8.527  0.5821  0.3765  0.4787
   16SAPS  C315 2116   5.959   5.558   8.338  0.1535 -0.4609 -0.4774
   16SAPS  H15X 2117   5.938   5.667   8.330  2.3451  0.0915  0.7687
   16SAPS  H15Y 2118   5.966   5.507   8.240  0.4179 -1.9092  0.2789
   16SAPS  C316 2119   6.099   5.559   8.388 -0.2084  0.4790 -0.0308
   16SAPS  H16X 2120   6.166   5.633   8.339  0.4978 -0.1007  0.0385
   16SAPS  H16Y 2121   6.152   5.465   8.361  2.7498  2.3520 -1.0322
   16SAPS  C317 2122   6.112   5.576   8.540  0.0124  0.9208 -0.9279
   16SAPS  H17X 2123   6.066   5.487   8.588 -0.0877  1.4587 -0.0065
   16SAPS  H17Y 2124   6.053   5.665   8.573 -0.9436 -0.4869  1.3002
   16SAPS  C318 2125   6.263   5.592   8.582 -0.0741  0.5875 -0.3254
   16SAPS  H18X 2126   6.330   5.518   8.535  1.0363  2.6480 -2.0755
   16SAPS  H18Y 2127   6.277   5.583   8.692  0.9076  0.5631 -0.4479
   16SAPS  H18Z 2128   6.305   5.693   8.563  0.3255 -0.1266 -3.5082
   17SAPC     N 2129   3.320   1.716  10.292 -0.3539 -0.2271  0.1370
   17SAPC   C12 2130   3.427   1.674  10.194  0.3610  0.3074 -0.7037
   17SAPC  H12A 2131   3.383   1.667  10.096  1.3622  1.6691 -1.2595
   17SAPC  H12B 2132   3.454   1.574  10.225 -1.2293 -0.4495 -1.6666
   17SAPC   C13 2133   3.208   1.619  10.283 -0.1336 -0.5664 -0.0019
   17SAPC  H13A 2134   3.194   1.578  10.184  1.6717 -2.3982  0.4707
   17SAPC  H13B 2135   3.224   1.531  10.345 -2.5229 -0.6195  0.5817
   17SAPC  H13C 2136   3.119   1.665  10.324 -0.3916 -1.0173 -0.0497
   17SAPC   C14 2137   3.373   1.718  10.427  0.0848 -0.5797 -0.2370
   17SAPC  H14A 2138   3.295   1.746  10.496  0.9944  1.1328  0.1300
   17SAPC  H14B 2139   3.402   1.616  10.445 -1.5713 -1.5145 -2.5913
   17SAPC  H14C 2140   3.459   1.784  10.424 -0.0316 -0.4539 -0.8039
   17SAPC   C15 2141   3.277   1.852  10.248  0.1666  0.6408  0.8158
   17SAPC  H15A 2142   3.365   1.915  10.246  0.8327 -0.2830 -3.4905
   17SAPC  H15B 2143   3.219   1.853  10.157  2.0118  0.4605 -0.4012
   17SAPC  H15C 2144   3.217   1.904  10.322 -1.0591  3.5042 -2.0766
   17SAPC   C11 2145   3.559   1.754  10.183 -1.1526  0.3003  1.0340
   17SAPC  H11A 2146   3.523   1.855  10.155 -0.4139  0.0595 -0.8558
   17SAPC  H11B 2147   3.625   1.719  10.101 -0.0660  2.6627  0.8509
   17SAPC     P 2148   3.728   1.635  10.344 -0.1796 -0.5971  0.3419
   17SAPC   O13 2149   3.865   1.689  10.373 -0.3765  0.6385  0.8453
   17SAPC   O14 2150   3.661   1.559  10.451 -0.4936 -0.0290  0.3839
   17SAPC   O12 2151   3.637   1.760  10.305 -0.1045 -0.1475 -0.0435
   17SAPC   O11 2152   3.737   1.549  10.208  0.3820 -0.7124 -0.6127
   17SAPC    C1 2153   3.667   1.421  10.211 -0.0507 -0.3127  0.7411
   17SAPC    HA 2154   3.587   1.412  10.287 -1.2825 -3.4893 -0.8257
   17SAPC    HB 2155   3.628   1.403  10.108 -0.9756  0.6354  0.9193
   17SAPC    C2 2156   3.766   1.301  10.226  0.4321 -0.0995 -1.1875
   17SAPC    HS 2157   3.790   1.311  10.334  0.5108  0.9587 -1.2976
   17SAPC   O21 2158   3.879   1.318  10.134 -0.2097 -0.2144  0.2546
   17SAPC   C21 2159   3.989   1.275  10.185 -0.1471  0.3439 -0.4430
   17SAPC   O22 2160   3.999   1.229  10.297  0.0079 -0.0633 -0.2344
   17SAPC   C22 2161   4.101   1.301  10.090 -0.0273 -0.3992 -0.9401
   17SAPC   H2R 2162   4.113   1.202  10.040 -1.6517 -2.4349  2.4397
   17SAPC   H2S 2163   4.080   1.385  10.021 -0.4492 -0.5330 -0.9766
   17SAPC    C3 2164   3.697   1.156  10.197 -0.3964 -0.5281  0.5634
   17SAPC    HX 2165   3.620   1.140  10.275 -0.9814  0.3217  0.1671
   17SAPC    HY 2166   3.778   1.081  10.210  1.9455  0.9948 -3.8260
   17SAPC   O31 2167   3.646   1.145  10.067  0.0515  0.3190 -0.2150
   17SAPC   C31 2168   3.730   1.123   9.966  0.3336  0.4078  0.1168
   17SAPC   O32 2169   3.851   1.098   9.979 -0.2352 -0.1035  0.2025
   17SAPC   C32 2170   3.652   1.140   9.839 -0.4625 -0.4375  0.2525
   17SAPC   H2X 2171   3.641   1.249   9.821  1.0245 -0.1269  1.1803
   17SAPC   H2Y 2172   3.556   1.085   9.847 -1.0509  0.9534  3.2654
   17SAPC   C23 2173   4.239   1.337  10.155  1.3105  0.3091  0.7285
   17SAPC   H3R 2174   4.278   1.260  10.225  1.1031 -0.7210 -0.2732
   17SAPC   H3S 2175   4.228   1.427  10.220 -1.6008  2.5722 -2.6957
   17SAPC   C24 2176   4.341   1.354  10.034 -0.0042  0.0610 -0.0575
   17SAPC   H4R 2177   4.435   1.395  10.076 -0.6057  0.3190  1.0654
   17SAPC   H4S 2178   4.301   1.428   9.961 -1.4573 -1.0469 -0.4167
   17SAPC   C25 2179   4.367   1.222   9.973 -0.0683 -0.5943 -0.6477
   17SAPC   H5R 2180   4.424   1.156  10.039 -1.5545 -1.3991 -0.1697
   17SAPC   C26 2181   4.345   1.184   9.841 -0.5389 -0.1909  0.3339
   17SAPC   H6R 2182   4.361   1.077   9.823  3.7283  0.1423  1.5230
   17SAPC   C27 2183   4.281   1.268   9.730 -0.7861  0.1634 -0.3406
   17SAPC   H7R 2184   4.341   1.276   9.637 -0.0106  0.3037  0.1641
   17SAPC   H7S 2185   4.275   1.374   9.762  1.9698  0.2170  0.1499
   17SAPC   C28 2186   4.145   1.221   9.714  0.8164 -0.2914 -0.2035
   17SAPC   H8R 2187   4.096   1.167   9.796 -0.5112  2.0176  0.5758
   17SAPC   C29 2188   4.065   1.250   9.610  0.4861  0.2758  0.0913
   17SAPC   H9R 2189   3.961   1.213   9.614  1.1261 -1.4682  0.9747
   17SAPC  C210 2190   4.109   1.324   9.485  0.5028 -0.3819  0.0011
   17SAPC  H10R 2191   4.127   1.253   9.402  3.1152 -0.7938  0.8849
   17SAPC  H10S 2192   4.201   1.384   9.503  2.1541 -3.0713  0.7884
   17SAPC  C211 2193   4.002   1.433   9.447  0.2315 -0.4938 -0.0383
   17SAPC  H11R 2194   4.004   1.523   9.509 -0.2484 -2.2552  2.6151
   17SAPC  C212 2195   3.942   1.443   9.325  0.0677 -0.4792 -0.0328
   17SAPC  H12R 2196   3.887   1.536   9.302  0.2878 -0.5580 -0.9079
   17SAPC  C213 2197   3.942   1.355   9.201 -0.1464 -0.1818 -0.4054
   17SAPC  H13R 2198   3.841   1.311   9.188 -0.3006 -0.3501  1.2998
   17SAPC  H13S 2199   4.026   1.283   9.209 -0.0696 -0.0741 -0.2549
   17SAPC  C214 2200   3.974   1.443   9.079  0.0983 -0.2366  0.2370
   17SAPC  H14R 2201   4.076   1.483   9.093  0.4351 -0.5309 -1.2288
   17SAPC  C215 2202   3.908   1.458   8.964 -0.0017  0.3341 -0.3280
   17SAPC  H15R 2203   3.944   1.527   8.886 -1.9445  0.7206 -0.9158
   17SAPC  C216 2204   3.782   1.386   8.913 -0.1876 -0.4049 -0.7655
   17SAPC  H16R 2205   3.698   1.458   8.902  0.5128  0.6295  0.4606
   17SAPC  H16S 2206   3.748   1.306   8.982  0.5249 -1.2887 -1.4368
   17SAPC  C217 2207   3.789   1.324   8.772  0.7181  0.1153 -0.6262
   17SAPC  H17R 2208   3.692   1.275   8.747  0.7311 -1.6274  2.4600
   17SAPC  H17S 2209   3.867   1.249   8.750  0.4380 -0.6457  0.9419
   17SAPC  C218 2210   3.790   1.435   8.661  0.4237  0.8056  0.8722
   17SAPC  H18R 2211   3.881   1.499   8.671  0.1845  1.0392  1.6126
   17SAPC  H18S 2212   3.697   1.494   8.678  1.5329  3.1150 -0.7026
   17SAPC  C219 2213   3.788   1.384   8.522 -0.6383  0.3651 -0.5579
   17SAPC  H19R 2214   3.769   1.475   8.461  0.5680  0.1796 -1.2400
   17SAPC  H19S 2215   3.709   1.310   8.497 -1.5471  1.2942 -0.4836
   17SAPC  C220 2216   3.917   1.335   8.467 -0.4382 -0.3805  0.7790
   17SAPC  H20R 2217   3.997   1.411   8.456 -1.8537  1.1672  0.9277
   17SAPC  H20S 2218   3.894   1.308   8.362 -1.9217  1.5189  0.5851
   17SAPC  H20T 2219   3.965   1.245   8.510 -0.3971 -0.5684  0.3476
   17SAPC   C33 2220   3.734   1.097   9.717  0.0211 -0.2397 -0.1581
   17SAPC   H3X 2221   3.728   0.987   9.697  0.4612 -0.2314 -0.3355
   17SAPC   H3Y 2222   3.836   1.136   9.732 -0.4773  1.0666 -0.1457
   17SAPC   C34 2223   3.678   1.159   9.592 -0.2073 -0.0464  0.0034
   17SAPC   H4X 2224   3.763   1.149   9.521  1.3979  0.9465  1.7155
   17SAPC   H4Y 2225   3.655   1.266   9.612 -0.4353  0.1983 -1.5238
   17SAPC   C35 2226   3.553   1.082   9.539 -0.0047 -1.0025 -0.6152
   17SAPC   H5X 2227   3.462   1.102   9.600 -0.2894  2.2851 -1.9895
   17SAPC   H5Y 2228   3.573   0.973   9.543 -2.0293 -1.4018 -0.6229
   17SAPC   C36 2229   3.519   1.112   9.390  0.0241 -0.4069  0.4510
   17SAPC   H6X 2230   3.455   1.028   9.353 -0.2267  0.5835 -1.4162
   17SAPC   H6Y 2231   3.612   1.099   9.330 -1.3042  1.5909 -2.1554
   17SAPC   C37 2232   3.453   1.251   9.363  0.1388  0.3369  0.5335
   17SAPC   H7X 2233   3.526   1.324   9.403  1.9181 -1.0544 -0.0921
   17SAPC   H7Y 2234   3.352   1.249   9.410 -0.2063  0.2102 -0.2004
   17SAPC   C38 2235   3.433   1.264   9.214 -0.3063  0.9022  0.7803
   17SAPC   H8X 2236   3.534   1.279   9.171 -0.1580 -1.4756  0.2382
   17SAPC   H8Y 2237   3.389   1.365   9.197 -0.5277  0.9660  1.7212
   17SAPC   C39 2238   3.358   1.147   9.143 -0.0611 -0.1828  0.2733
   17SAPC   H9X 2239   3.273   1.124   9.211 -0.9987  1.1794 -0.4059
   17SAPC   H9Y 2240   3.427   1.062   9.126  0.7020  0.8736 -2.1543
   17SAPC  C310 2241   3.311   1.191   9.002  0.7144 -0.6440 -0.0453
   17SAPC  H10X 2242   3.259   1.289   9.015  0.0666 -1.0395  0.3939
   17SAPC  H10Y 2243   3.240   1.117   8.959  2.1164 -2.3422  0.5019
   17SAPC  C311 2244   3.413   1.212   8.892 -0.6266 -0.1080  0.3217
   17SAPC  H11X 2245   3.477   1.122   8.881 -0.7206 -0.0188 -0.9452
   17SAPC  H11Y 2246   3.482   1.291   8.928 -0.2227  0.0253 -0.7403
   17SAPC  C312 2247   3.338   1.243   8.761 -0.2097  0.2759 -0.0173
   17SAPC  H12X 2248   3.274   1.332   8.777 -1.7431 -0.6862 -0.6737
   17SAPC  H12Y 2249   3.269   1.157   8.753 -0.6006  0.4631  1.2925
   17SAPC  C313 2250   3.419   1.279   8.636 -0.1428  0.1698  0.4426
   17SAPC  H13X 2251   3.497   1.200   8.626 -0.2898  0.0689  0.0922
   17SAPC  H13Y 2252   3.467   1.377   8.656 -0.6414  0.7191 -0.9974
   17SAPC  C314 2253   3.344   1.286   8.498  0.2774  0.3760  0.5292
   17SAPC  H14X 2254   3.294   1.187   8.501  1.2760 -0.1408  0.4467
   17SAPC  H14Y 2255   3.409   1.306   8.410 -2.1239 -2.6628 -2.0386
   17SAPC  C315 2256   3.230   1.387   8.503  0.2777 -0.8866  0.0170
   17SAPC  H15X 2257   3.282   1.484   8.518  1.5572 -1.9394  2.7177
   17SAPC  H15Y 2258   3.154   1.362   8.579 -2.1010 -2.1043 -2.6831
   17SAPC  C316 2259   3.156   1.385   8.375  0.2141  0.0165  0.2946
   17SAPC  H16X 2260   3.103   1.288   8.362 -0.2808  0.2354  0.6845
   17SAPC  H16Y 2261   3.235   1.387   8.296 -0.2389  1.3985 -0.1257
   17SAPC  C317 2262   3.056   1.497   8.368  0.2137 -0.5877  0.3772
   17SAPC  H17X 2263   3.103   1.594   8.345  0.4175 -0.3397  1.8670
   17SAPC  H17Y 2264   3.016   1.518   8.469 -0.4015 -1.8678  0.4229
   17SAPC  C318 2265   2.939   1.470   8.273  0.3281 -0.1382 -0.8307
   17SAPC  H18X 2266   2.859   1.417   8.330  1.2716  0.8445  1.4652
   17SAPC  H18Y 2267   2.899   1.561   8.225 -0.0008 -0.7530 -1.7336
   17SAPC  H18Z 2268   2.974   1.395   8.199 -0.2863 -3.8814  2.4988
   18SAPC     N 2269   4.071   0.496  10.939 -0.1839  0.5466 -0.0971
   18SAPC   C12 2270   4.100   0.644  10.937  0.3517 -0.9976 -0.3040
   18SAPC  H12A 2271   4.204   0.652  10.965 -0.5217 -0.4079  2.9168
   18SAPC  H12B 2272   4.045   0.696  11.014  1.9367  0.5122 -0.1694
   18SAPC   C13 2273   4.160   0.429  10.839 -0.1467 -0.2566 -0.8662
   18SAPC  H13A 2274   4.264   0.458  10.846 -0.0823 -0.5935 -0.3397
   18SAPC  H13B 2275   4.145   0.322  10.832  2.6973 -0.6750 -1.2389
   18SAPC  H13C 2276   4.122   0.463  10.744 -1.3789  2.8478  0.6796
   18SAPC   C14 2277   4.100   0.440  11.072 -0.9139  0.2392  0.3696
   18SAPC  H14A 2278   4.036   0.485  11.146  1.0243 -0.4087  2.5065
   18SAPC  H14B 2279   4.081   0.334  11.081  1.8943 -0.2455  1.2827
   18SAPC  H14C 2280   4.197   0.463  11.114  0.0638  0.9634 -2.2111
   18SAPC   C15 2281   3.932   0.470  10.912  0.1976  0.0907  0.1642
   18SAPC  H15A 2282   3.906   0.496  10.810  1.2400 -1.9507 -0.6431
   18SAPC  H15B 2283   3.906   0.368  10.932 -2.3333  0.8501  0.9664
   18SAPC  H15C 2284   3.866   0.528  10.975  1.7475  0.7677  1.1846
   18SAPC   C11 2285   4.080   0.718  10.806 -0.6562  1.2224 -0.9798
   18SAPC  H11A 2286   4.086   0.827  10.825 -0.6326  1.4864 -2.3959
   18SAPC  H11B 2287   3.977   0.693  10.770 -1.0648 -0.3683  1.1739
   18SAPC     P 2288   4.159   0.645  10.570 -0.0440  0.1997 -0.0991
   18SAPC   O13 2289   4.261   0.561  10.503 -0.1150 -0.1350 -0.3070
   18SAPC   O14 2290   4.021   0.585  10.568  0.6423  0.0370  0.3385
   18SAPC   O12 2291   4.189   0.677  10.717  0.0935 -0.2049 -0.6619
   18SAPC   O11 2292   4.162   0.787  10.505  0.0021 -0.0099 -0.2646
   18SAPC    C1 2293   4.054   0.879  10.495 -0.0029 -0.0616 -0.3014
   18SAPC    HA 2294   3.958   0.850  10.541 -0.5032  1.4286 -0.3924
   18SAPC    HB 2295   4.082   0.979  10.536 -0.8639  0.0050  0.1276
   18SAPC    C2 2296   4.029   0.901  10.339  0.5149 -0.2891  0.4544
   18SAPC    HS 2297   3.948   0.977  10.329 -0.1793 -0.9494  0.9386
   18SAPC   O21 2298   3.989   0.776  10.289  0.7061 -0.4263 -0.5945
   18SAPC   C21 2299   3.862   0.745  10.296  0.0665  0.3113  0.2018
   18SAPC   O22 2300   3.768   0.807  10.346  0.2286  0.0379 -0.4253
   18SAPC   C22 2301   3.844   0.602  10.239  0.0879 -0.0222 -0.1310
   18SAPC   H2R 2302   3.925   0.592  10.164  1.2118 -2.5501  1.3647
   18SAPC   H2S 2303   3.867   0.533  10.323 -1.8442  0.4607  0.8296
   18SAPC    C3 2304   4.150   0.946  10.253  0.4019  0.5184 -0.4228
   18SAPC    HX 2305   4.225   0.871  10.286  0.2846  1.0545  1.0946
   18SAPC    HY 2306   4.182   1.051  10.272 -0.4901  0.4491  1.6048
   18SAPC   O31 2307   4.123   0.938  10.111  0.5561 -0.2919  0.4908
   18SAPC   C31 2308   4.166   0.826  10.052  0.3587 -0.7048  0.1400
   18SAPC   O32 2309   4.229   0.733  10.106  0.2802  0.0784 -0.0009
   18SAPC   C32 2310   4.120   0.832   9.913  1.0904  0.2012 -0.3228
   18SAPC   H2X 2311   4.163   0.924   9.868 -0.0138  0.9453  0.1273
   18SAPC   H2Y 2312   4.012   0.854   9.915  1.1726  0.4827  2.2356
   18SAPC   C23 2313   3.712   0.576  10.159  0.1763 -0.4354 -0.3868
   18SAPC   H3R 2314   3.634   0.545  10.233  1.2497  2.0208  1.8738
   18SAPC   H3S 2315   3.732   0.487  10.096 -0.1396  0.1616 -1.3420
   18SAPC   C24 2316   3.659   0.695  10.080 -1.1858  0.3620 -0.2263
   18SAPC   H4R 2317   3.649   0.783  10.147  1.2530 -1.2494  2.3422
   18SAPC   H4S 2318   3.557   0.679  10.040 -1.0153  1.1925 -1.0254
   18SAPC   C25 2319   3.742   0.727   9.956 -0.4292  0.6457  0.2529
   18SAPC   H5R 2320   3.840   0.768   9.983  0.4124 -1.1069 -0.0858
   18SAPC   C26 2321   3.706   0.702   9.825 -0.1500 -0.1889  0.2488
   18SAPC   H6R 2322   3.770   0.721   9.738  0.3024 -0.2387  0.5702
   18SAPC   C27 2323   3.574   0.644   9.788  0.3045 -0.6189 -0.2510
   18SAPC   H7R 2324   3.510   0.711   9.726  0.5289  0.4468  0.6570
   18SAPC   H7S 2325   3.513   0.606   9.873 -0.9578 -0.9492 -1.2838
   18SAPC   C28 2326   3.600   0.521   9.703  0.2195 -0.3765  0.0063
   18SAPC   H8R 2327   3.582   0.426   9.756  1.5278 -1.5002 -1.5320
   18SAPC   C29 2328   3.627   0.513   9.569 -0.6887  0.2004 -0.5524
   18SAPC   H9R 2329   3.633   0.413   9.522  1.2611  1.0035 -2.0771
   18SAPC  C210 2330   3.647   0.633   9.472  0.0228  0.2178  0.0176
   18SAPC  H10R 2331   3.679   0.727   9.521 -3.2765  1.9645 -1.0517
   18SAPC  H10S 2332   3.551   0.663   9.424  0.1267 -0.4150 -0.5982
   18SAPC  C211 2333   3.742   0.590   9.361 -0.0301  0.5883 -0.2372
   18SAPC  H11R 2334   3.811   0.505   9.377  0.3471  1.0293  0.4920
   18SAPC  C212 2335   3.748   0.640   9.237 -0.0433  0.6628 -0.5323
   18SAPC  H12R 2336   3.820   0.598   9.166 -1.4670 -1.5084 -0.7389
   18SAPC  C213 2337   3.674   0.760   9.179 -0.1659  0.4358 -0.2118
   18SAPC  H13R 2338   3.578   0.781   9.231 -0.7812 -1.7645 -0.4180
   18SAPC  H13S 2339   3.643   0.747   9.073 -0.1185 -0.2212 -0.1453
   18SAPC  C214 2340   3.770   0.873   9.194 -0.3508  0.9397 -0.3076
   18SAPC  H14R 2341   3.807   0.893   9.296 -0.6050 -0.3032  0.0385
   18SAPC  C215 2342   3.806   0.964   9.103  0.5861 -0.2035  0.5288
   18SAPC  H15R 2343   3.883   1.039   9.128  1.3319 -1.0679  0.8446
   18SAPC  C216 2344   3.765   0.976   8.958  0.2554 -0.9742 -0.4768
   18SAPC  H16R 2345   3.709   1.067   8.928  1.4476 -0.0486  0.0494
   18SAPC  H16S 2346   3.691   0.894   8.948 -0.6915 -0.1833 -0.0429
   18SAPC  C217 2347   3.882   0.944   8.860 -0.0781 -0.4425  0.9521
   18SAPC  H17R 2348   3.969   0.889   8.901 -1.2018 -0.9400  2.7251
   18SAPC  H17S 2349   3.924   1.044   8.833 -2.3136  0.3466  0.2536
   18SAPC  C218 2350   3.832   0.867   8.742  0.5483  0.5770  0.2641
   18SAPC  H18R 2351   3.771   0.782   8.780  0.9385 -0.8155 -2.1528
   18SAPC  H18S 2352   3.913   0.822   8.681  0.2549  1.3498 -0.7105
   18SAPC  C219 2353   3.748   0.947   8.646 -0.3099 -0.1867 -0.3505
   18SAPC  H19R 2354   3.806   1.034   8.607 -0.2562 -0.6386 -1.3089
   18SAPC  H19S 2355   3.651   0.981   8.689 -0.4792 -1.3441  0.2069
   18SAPC  C220 2356   3.692   0.874   8.523 -0.1591 -0.0219 -0.0791
   18SAPC  H20R 2357   3.671   0.957   8.452  0.3474  0.0819 -0.1059
   18SAPC  H20S 2358   3.601   0.817   8.552  0.6998 -0.3822  2.0181
   18SAPC  H20T 2359   3.773   0.808   8.487 -1.9549 -1.1486 -2.1784
   18SAPC   C33 2360   4.152   0.702   9.834  1.0664 -0.0435 -1.0188
   18SAPC   H3X 2361   4.086   0.624   9.875  0.1296  2.0117  1.5143
   18SAPC   H3Y 2362   4.255   0.663   9.852  1.2764  0.6033 -0.8154
   18SAPC   C34 2363   4.118   0.719   9.681  0.4465  0.3607  0.2008
   18SAPC   H4X 2364   4.011   0.746   9.672  1.0023  2.0759 -1.3592
   18SAPC   H4Y 2365   4.127   0.620   9.632 -0.9004 -0.4584  1.5516
   18SAPC   C35 2366   4.209   0.822   9.609  0.6355  0.4948  0.2964
   18SAPC   H5X 2367   4.315   0.790   9.618  0.5271  0.4826  1.7462
   18SAPC   H5Y 2368   4.207   0.909   9.678  0.0849  0.2829  0.5530
   18SAPC   C36 2369   4.180   0.839   9.460  0.2380  0.9710 -0.4299
   18SAPC   H6X 2370   4.069   0.831   9.453  0.3406  1.2031 -2.7279
   18SAPC   H6Y 2371   4.224   0.753   9.405  0.6427  0.4045  0.7779
   18SAPC   C37 2372   4.218   0.978   9.400  0.1698 -0.6726 -0.6618
   18SAPC   H7X 2373   4.325   0.988   9.428  0.6728 -0.6799 -2.5396
   18SAPC   H7Y 2374   4.152   1.052   9.450 -0.1211 -1.5846  0.3336
   18SAPC   C38 2375   4.186   0.973   9.252 -0.1122 -0.6822 -0.5808
   18SAPC   H8X 2376   4.077   0.968   9.235 -0.0625 -0.6422 -0.9235
   18SAPC   H8Y 2377   4.230   0.883   9.205  0.3628 -0.9796  0.4084
   18SAPC   C39 2378   4.225   1.099   9.175 -0.2867 -0.4927  0.4252
   18SAPC   H9X 2379   4.336   1.102   9.183 -0.3285  2.6993  0.6248
   18SAPC   H9Y 2380   4.203   1.189   9.237 -0.8735 -0.4171  0.1012
   18SAPC  C310 2381   4.168   1.101   9.026 -0.1354 -0.5914 -0.2357
   18SAPC  H10X 2382   4.064   1.142   9.025  0.0189  0.1618  3.5852
   18SAPC  H10Y 2383   4.164   0.995   8.994  0.1880 -0.8528  0.5573
   18SAPC  C311 2384   4.263   1.179   8.946 -0.2611  0.0701 -0.1790
   18SAPC  H11X 2385   4.370   1.154   8.961 -0.1019  0.2486 -1.0099
   18SAPC  H11Y 2386   4.249   1.280   8.991 -1.8775 -0.5169  0.7018
   18SAPC  C312 2387   4.226   1.178   8.798  0.4705  0.3559  0.3191
   18SAPC  H12X 2388   4.120   1.203   8.778  0.9407 -0.4156 -3.6581
   18SAPC  H12Y 2389   4.242   1.070   8.776 -2.0316 -0.1559  0.9017
   18SAPC  C313 2390   4.304   1.288   8.728  0.3884  0.1413 -0.5495
   18SAPC  H13X 2391   4.300   1.267   8.619  1.3453  1.8607 -0.9376
   18SAPC  H13Y 2392   4.407   1.291   8.768  0.4014 -2.7900 -0.2537
   18SAPC  C314 2393   4.224   1.418   8.748  0.2467  0.5778 -0.9172
   18SAPC  H14X 2394   4.199   1.437   8.854  1.5769 -4.1423  0.3515
   18SAPC  H14Y 2395   4.132   1.405   8.686 -0.3763 -0.2187  0.1737
   18SAPC  C315 2396   4.299   1.540   8.690 -0.4037 -0.5693 -0.3868
   18SAPC  H15X 2397   4.354   1.504   8.601 -2.1323 -1.6391 -1.0545
   18SAPC  H15Y 2398   4.390   1.567   8.748  0.4852  1.5165 -2.6689
   18SAPC  C316 2399   4.209   1.654   8.641 -0.0186  0.4132 -0.1602
   18SAPC  H16X 2400   4.132   1.684   8.716 -0.1526 -1.1136  0.3219
   18SAPC  H16Y 2401   4.149   1.611   8.558  0.4389  0.4394 -0.5084
   18SAPC  C317 2402   4.296   1.771   8.606  0.5750 -0.9329 -0.1519
   18SAPC  H17X 2403   4.372   1.741   8.531  1.3223 -0.9296  0.5922
   18SAPC  H17Y 2404   4.346   1.809   8.698  0.2716  4.1201 -1.9094
   18SAPC  C318 2405   4.223   1.874   8.525  0.0607  0.2320  0.1956
   18SAPC  H18X 2406   4.170   1.824   8.441  2.2064  0.9848 -1.6741
   18SAPC  H18Y 2407   4.275   1.964   8.487 -1.3766  1.3391  0.8193
   18SAPC  H18Z 2408   4.141   1.917   8.586  0.6927  1.0037  0.5059
   19SAPC     N 2409   3.730   2.309  10.559  0.1908  1.1031  0.3566
   19SAPC   C12 2410   3.634   2.346  10.671 -0.3439 -0.0425  0.1557
   19SAPC  H12A 2411   3.653   2.448  10.701 -0.5910 -0.6349  2.4606
   19SAPC  H12B 2412   3.673   2.291  10.756  0.3611 -0.6799 -0.5715
   19SAPC   C13 2413   3.725   2.403  10.444  0.4026  0.1506  0.0201
   19SAPC  H13A 2414   3.771   2.356  10.358 -0.9493 -0.9757 -0.1009
   19SAPC  H13B 2415   3.625   2.440  10.426  0.0380 -1.1893 -0.8069
   19SAPC  H13C 2416   3.789   2.488  10.458  0.0897 -0.0237  2.7180
   19SAPC   C14 2417   3.871   2.289  10.623 -0.0400 -0.2520 -0.0135
   19SAPC  H14A 2418   3.937   2.243  10.551  0.5518  1.6287 -0.6850
   19SAPC  H14B 2419   3.915   2.376  10.670 -6.3654  0.8434  4.4998
   19SAPC  H14C 2420   3.860   2.217  10.702 -1.1799 -1.2634 -1.0662
   19SAPC   C15 2421   3.667   2.181  10.501 -0.3031 -0.6223 -0.2379
   19SAPC  H15A 2422   3.565   2.209  10.479  0.7370  1.3918 -2.7107
   19SAPC  H15B 2423   3.728   2.139  10.422  1.0939 -0.0131  0.5088
   19SAPC  H15C 2424   3.670   2.107  10.580  0.6027 -2.7008 -2.1569
   19SAPC   C11 2425   3.487   2.342  10.633  0.3756 -0.1934  0.1933
   19SAPC  H11A 2426   3.430   2.383  10.719 -1.6077 -0.9982 -0.7286
   19SAPC  H11B 2427   3.454   2.236  10.628 -0.8810  0.1555  0.9470
   19SAPC     P 2428   3.329   2.396  10.439 -0.1024  0.0031  0.0036
   19SAPC   O13 2429   3.315   2.256  10.399  0.2129  0.6907 -0.7226
   19SAPC   O14 2430   3.218   2.458  10.516  0.7819  0.2685  0.4145
   19SAPC   O12 2431   3.459   2.419  10.517 -0.0107  0.4286  0.0982
   19SAPC   O11 2432   3.359   2.493  10.311 -0.6659  0.0673 -0.3315
   19SAPC    C1 2433   3.399   2.621  10.330 -0.3262 -0.1851  0.0820
   19SAPC    HA 2434   3.312   2.680  10.369 -1.6028 -0.6717 -1.9526
   19SAPC    HB 2435   3.482   2.637  10.402 -1.7631 -1.1710  2.0295
   19SAPC    C2 2436   3.439   2.687  10.189 -0.3631  0.4276 -0.1388
   19SAPC    HS 2437   3.437   2.798  10.197  0.4790  0.4000  0.5066
   19SAPC   O21 2438   3.344   2.640  10.096  0.2557 -0.2633  0.2787
   19SAPC   C21 2439   3.236   2.704  10.085 -0.0050  0.0542 -0.1150
   19SAPC   O22 2440   3.196   2.805  10.149  0.1364 -0.0268 -0.3365
   19SAPC   C22 2441   3.159   2.640   9.968 -0.5898 -0.6144  0.0494
   19SAPC   H2R 2442   3.171   2.530   9.979  2.1352 -0.4778 -1.1190
   19SAPC   H2S 2443   3.052   2.657   9.993  0.1641  1.3821  2.1254
   19SAPC    C3 2444   3.581   2.658  10.143  0.1413  0.2404 -0.0003
   19SAPC    HX 2445   3.577   2.549  10.126 -0.9470  0.3832 -0.7196
   19SAPC    HY 2446   3.651   2.681  10.227 -0.5949  1.8087  0.2166
   19SAPC   O31 2447   3.614   2.710  10.011 -0.3792  0.1841 -0.6557
   19SAPC   C31 2448   3.632   2.845  10.009 -0.3759  0.7124  0.3180
   19SAPC   O32 2449   3.604   2.923  10.101  1.4396  0.1926  0.3658
   19SAPC   C32 2450   3.719   2.885   9.887  0.0943 -0.9251  0.6659
   19SAPC   H2X 2451   3.807   2.823   9.913 -0.7205 -2.4351 -0.1534
   19SAPC   H2Y 2452   3.747   2.993   9.891 -0.3826 -0.7928  0.5128
   19SAPC   C23 2453   3.208   2.697   9.839 -0.1195  0.3226  0.5784
   19SAPC   H3R 2454   3.267   2.618   9.786  1.5233 -0.3134  3.2312
   19SAPC   H3S 2455   3.273   2.786   9.854 -0.3073  0.6617 -0.5722
   19SAPC   C24 2456   3.091   2.753   9.749 -0.0279 -0.4382  0.2587
   19SAPC   H4R 2457   3.117   2.842   9.689 -0.9120 -1.4757 -1.7137
   19SAPC   H4S 2458   3.020   2.802   9.819  0.4239  1.4482 -0.6024
   19SAPC   C25 2459   3.026   2.643   9.671 -0.4464  0.1274 -0.5646
   19SAPC   H5R 2460   2.997   2.553   9.726  1.7912 -0.1573  0.1960
   19SAPC   C26 2461   3.000   2.650   9.545 -0.5950 -0.8158  0.6270
   19SAPC   H6R 2462   2.947   2.565   9.499  1.5131 -2.6626  1.5317
   19SAPC   C27 2463   3.015   2.774   9.457  0.6867  0.3046 -0.4377
   19SAPC   H7R 2464   3.115   2.823   9.462  0.6636  0.3510 -0.4348
   19SAPC   H7S 2465   2.951   2.854   9.500 -0.9015 -0.6231 -1.0279
   19SAPC   C28 2466   2.989   2.743   9.314  0.5264  0.0114 -0.2689
   19SAPC   H8R 2467   3.087   2.721   9.268  0.8805  0.5427  0.2304
   19SAPC   C29 2468   2.868   2.755   9.248  0.0541 -0.6847 -0.2566
   19SAPC   H9R 2469   2.858   2.723   9.144 -3.6716  3.4782 -1.3245
   19SAPC  C210 2470   2.737   2.802   9.302  0.8675 -0.4630  0.0513
   19SAPC  H10R 2471   2.742   2.808   9.413  0.7079 -2.0703  0.1518
   19SAPC  H10S 2472   2.651   2.737   9.276  0.4002 -0.9667  2.6628
   19SAPC  C211 2473   2.696   2.937   9.253 -0.4114  0.4084 -0.5572
   19SAPC  H11R 2474   2.766   3.011   9.296 -0.4882  0.5607 -0.6915
   19SAPC  C212 2475   2.605   2.965   9.165 -0.1151 -0.2918 -0.5137
   19SAPC  H12R 2476   2.589   3.073   9.148  0.2051  0.4227  3.2353
   19SAPC  C213 2477   2.504   2.873   9.099  0.6756 -0.2576  0.0620
   19SAPC  H13R 2478   2.439   2.933   9.032  2.2360  0.6686 -0.6623
   19SAPC  H13S 2479   2.449   2.832   9.187  0.7313 -0.0177  0.2092
   19SAPC  C214 2480   2.565   2.760   9.018  0.3157 -0.3952 -0.5299
   19SAPC  H14R 2481   2.582   2.668   9.076 -0.8574  0.2389  0.8443
   19SAPC  C215 2482   2.609   2.761   8.889  0.1055  0.3681  0.2583
   19SAPC  H15R 2483   2.660   2.670   8.855 -3.2484 -1.8111  0.7777
   19SAPC  C216 2484   2.602   2.879   8.796  0.2179 -0.2993 -0.8871
   19SAPC  H16R 2485   2.587   2.975   8.850  1.2640  0.2784 -1.6026
   19SAPC  H16S 2486   2.527   2.868   8.715 -0.1315  0.8285 -0.7361
   19SAPC  C217 2487   2.739   2.902   8.725  0.4223  0.3901  0.2216
   19SAPC  H17R 2488   2.729   2.956   8.628  3.6368  3.1476  1.3146
   19SAPC  H17S 2489   2.781   2.806   8.688  1.7367  0.5804  1.1613
   19SAPC  C218 2490   2.829   2.974   8.820 -0.5354  0.1384 -0.3165
   19SAPC  H18R 2491   2.858   2.898   8.895 -2.3018 -0.5154 -0.2851
   19SAPC  H18S 2492   2.773   3.052   8.877  0.9368  0.9880  0.0121
   19SAPC  C219 2493   2.964   3.027   8.759  0.4534  0.5034 -0.3835
   19SAPC  H19R 2494   3.013   2.954   8.692 -0.7695 -1.4838  0.8268
   19SAPC  H19S 2495   3.030   3.049   8.845  1.9499 -1.4922 -0.9920
   19SAPC  C220 2496   2.940   3.163   8.695 -0.2639  0.1403  0.0731
   19SAPC  H20R 2497   2.919   3.243   8.769  0.5796 -1.0069  1.5754
   19SAPC  H20S 2498   2.863   3.151   8.615  0.2982 -1.0264 -0.3039
   19SAPC  H20T 2499   3.030   3.191   8.636 -0.6107 -1.0973 -1.0706
   19SAPC   C33 2500   3.663   2.850   9.751 -0.1558  0.6103 -0.1916
   19SAPC   H3X 2501   3.610   2.754   9.771  1.1566 -0.2204 -0.6861
   19SAPC   H3Y 2502   3.749   2.833   9.682  2.1234 -3.0481  3.3566
   19SAPC   C34 2503   3.562   2.946   9.700 -0.0598 -0.1611  0.0452
   19SAPC   H4X 2504   3.609   3.046   9.695  3.1603 -1.5686  1.3473
   19SAPC   H4Y 2505   3.469   2.952   9.761 -0.0459 -0.0017  0.0503
   19SAPC   C35 2506   3.519   2.899   9.561  0.5985  0.3642  0.5299
   19SAPC   H5X 2507   3.466   2.802   9.569  1.8038 -0.4766 -1.2569
   19SAPC   H5Y 2508   3.606   2.890   9.491  0.0634  2.1372 -0.4039
   19SAPC   C36 2509   3.420   3.002   9.504 -0.2060 -0.2343 -0.1769
   19SAPC   H6X 2510   3.474   3.099   9.493  0.4574 -0.2740  2.4220
   19SAPC   H6Y 2511   3.328   3.019   9.565  0.5809  1.4221  0.5824
   19SAPC   C37 2512   3.357   2.943   9.374  0.2615  0.0711 -0.0841
   19SAPC   H7X 2513   3.262   2.988   9.340 -0.5387 -0.0904  1.8918
   19SAPC   H7Y 2514   3.337   2.836   9.397 -0.4544  0.1560 -0.3205
   19SAPC   C38 2515   3.451   2.954   9.255 -0.0268  0.9356  0.0913
   19SAPC   H8X 2516   3.550   2.905   9.271  0.1751  1.0336 -0.8306
   19SAPC   H8Y 2517   3.478   3.056   9.220  0.0242  1.0328  0.4134
   19SAPC   C39 2518   3.380   2.879   9.137 -0.3143  0.5884 -0.6436
   19SAPC   H9X 2519   3.283   2.928   9.115 -0.8439  0.7192  1.7940
   19SAPC   H9Y 2520   3.347   2.779   9.171  1.6780  0.2831  0.4933
   19SAPC  C310 2521   3.476   2.868   9.013 -0.3156  0.4740 -0.4411
   19SAPC  H10X 2522   3.429   2.814   8.928 -0.5883  1.1849 -0.7439
   19SAPC  H10Y 2523   3.568   2.819   9.051 -1.5363 -1.0961  0.5419
   19SAPC  C311 2524   3.505   3.001   8.953  0.1554 -0.4510 -0.0253
   19SAPC  H11X 2525   3.556   3.077   9.016  0.0192  0.5605 -1.1136
   19SAPC  H11Y 2526   3.411   3.055   8.930  0.6967  0.3639 -0.3745
   19SAPC  C312 2527   3.580   3.003   8.812 -0.1689 -0.0787 -0.6555
   19SAPC  H12X 2528   3.539   2.932   8.737  0.9659 -1.5820  0.1173
   19SAPC  H12Y 2529   3.680   2.963   8.837 -0.8213 -1.1014  0.3658
   19SAPC  C313 2530   3.575   3.141   8.759  0.2429 -0.5347  0.1633
   19SAPC  H13X 2531   3.600   3.215   8.839 -0.0186 -1.1800  0.8551
   19SAPC  H13Y 2532   3.474   3.174   8.729 -0.3060 -2.1858  0.1537
   19SAPC  C314 2533   3.664   3.166   8.639 -1.0083 -0.1563 -0.8094
   19SAPC  H14X 2534   3.673   3.078   8.572 -0.1028 -0.4324 -0.3405
   19SAPC  H14Y 2535   3.770   3.164   8.672 -2.1154 -2.2007  2.9694
   19SAPC  C315 2536   3.631   3.298   8.573 -0.2389  0.6609 -1.0091
   19SAPC  H15X 2537   3.623   3.384   8.644 -1.2003  0.1752 -0.5145
   19SAPC  H15Y 2538   3.524   3.290   8.544 -0.5191  1.0334 -0.0949
   19SAPC  C316 2539   3.711   3.326   8.444 -0.2058 -0.0315 -0.2514
   19SAPC  H16X 2540   3.707   3.237   8.378  3.9589  0.3725 -1.2112
   19SAPC  H16Y 2541   3.820   3.344   8.460 -0.7697  1.7901  1.8665
   19SAPC  C317 2542   3.652   3.437   8.364  0.5443 -0.2776  0.1009
   19SAPC  H17X 2543   3.543   3.425   8.347  1.1075 -2.5541 -2.3501
   19SAPC  H17Y 2544   3.699   3.450   8.264 -1.0905  0.3654 -0.6016
   19SAPC  C318 2545   3.658   3.565   8.454  0.3968  0.0229 -0.8113
   19SAPC  H18X 2546   3.612   3.657   8.411  0.0373  1.5080  2.5683
   19SAPC  H18Y 2547   3.766   3.583   8.471  0.9179  0.1441 -3.9336
   19SAPC  H18Z 2548   3.610   3.560   8.554  1.2276 -0.6980 -0.4544
   20SAPC     N 2549   3.438   5.874  11.056  0.3747  0.1192  0.0818
   20SAPC   C12 2550   3.417   5.773  10.940  0.0375  0.3129  0.5567
   20SAPC  H12A 2551   3.324   5.720  10.956  0.0357 -0.3932 -1.5871
   20SAPC  H12B 2552   3.491   5.695  10.937  0.3200  0.6426 -2.9372
   20SAPC   C13 2553   3.339   5.989  11.060  0.0836  0.1443 -0.0801
   20SAPC  H13A 2554   3.238   5.960  11.087 -0.9551  1.9278 -1.8121
   20SAPC  H13B 2555   3.369   6.071  11.124 -0.3073 -0.8046  1.3411
   20SAPC  H13C 2556   3.330   6.023  10.958 -0.2618  4.1612  1.2040
   20SAPC   C14 2557   3.441   5.801  11.189 -0.1405 -0.3499  0.5074
   20SAPC  H14A 2558   3.506   5.714  11.185  0.7798  0.3138  0.6636
   20SAPC  H14B 2559   3.473   5.875  11.261  0.7383 -1.6600  1.4802
   20SAPC  H14C 2560   3.347   5.768  11.228  0.4770  0.1732  2.5015
   20SAPC   C15 2561   3.578   5.930  11.031 -0.1174 -0.6248 -0.3269
   20SAPC  H15A 2562   3.659   5.860  11.020 -0.6830 -1.4559  0.7265
   20SAPC  H15B 2563   3.583   5.993  10.943  0.9675 -0.1470  0.0728
   20SAPC  H15C 2564   3.598   5.986  11.121 -2.4918 -1.6367  0.8744
   20SAPC   C11 2565   3.405   5.822  10.795  0.0068 -0.4565 -1.2006
   20SAPC  H11A 2566   3.374   5.729  10.743  1.0924  0.1582 -3.0081
   20SAPC  H11B 2567   3.505   5.858  10.762  0.4379  0.2004  0.7289
   20SAPC     P 2568   3.153   5.892  10.732 -0.0201  0.0373  0.3570
   20SAPC   O13 2569   3.126   5.746  10.729  0.4365  0.0450  0.2294
   20SAPC   O14 2570   3.060   5.961  10.823  0.2411 -0.4587 -0.0385
   20SAPC   O12 2571   3.299   5.921  10.786  0.5476 -0.4866  0.2965
   20SAPC   O11 2572   3.150   5.949  10.590  0.7309 -0.0933  0.0390
   20SAPC    C1 2573   3.218   6.075  10.557 -0.4368  0.5104  0.0445
   20SAPC    HA 2574   3.317   6.080  10.608 -0.0710  1.2044 -0.7287
   20SAPC    HB 2575   3.250   6.070  10.451  1.1016  0.1556  0.5063
   20SAPC    C2 2576   3.140   6.206  10.561 -0.7396 -0.2996 -0.2362
   20SAPC    HS 2577   3.115   6.243  10.663 -1.2525 -0.4800 -0.2986
   20SAPC   O21 2578   3.015   6.190  10.490  0.0450 -0.1678  0.3147
   20SAPC   C21 2579   2.918   6.272  10.524  0.4395  0.0935  0.2325
   20SAPC   O22 2580   2.918   6.351  10.618 -0.0264  0.0657 -0.1108
   20SAPC   C22 2581   2.807   6.259  10.413  0.2724  0.0980  0.6525
   20SAPC   H2R 2582   2.850   6.326  10.336  2.0314 -0.5285  1.0768
   20SAPC   H2S 2583   2.792   6.151  10.394  0.1613 -0.3178  2.8971
   20SAPC    C3 2584   3.231   6.322  10.497 -0.4080  0.3545  0.1878
   20SAPC    HX 2585   3.327   6.331  10.552  0.8090 -2.1741 -1.4230
   20SAPC    HY 2586   3.184   6.423  10.504 -1.0392  0.1963 -1.4628
   20SAPC   O31 2587   3.263   6.293  10.362 -0.3304  0.6945  0.4910
   20SAPC   C31 2588   3.377   6.346  10.322  0.1705 -0.8298 -0.1112
   20SAPC   O32 2589   3.445   6.422  10.385 -0.2342 -0.0731 -0.5252
   20SAPC   C32 2590   3.413   6.303  10.185 -0.1371 -0.7815  1.0564
   20SAPC   H2X 2591   3.404   6.192  10.180  3.7765 -1.1153 -0.0013
   20SAPC   H2Y 2592   3.515   6.337  10.156 -0.5834  0.7833  1.2760
   20SAPC   C23 2593   2.666   6.327  10.453  0.6008  0.3426  0.6700
   20SAPC   H3R 2594   2.626   6.296  10.552  1.2101 -1.3025  0.4288
   20SAPC   H3S 2595   2.600   6.278  10.378 -0.3765  1.0800  1.0488
   20SAPC   C24 2596   2.651   6.476  10.427 -0.3430  0.8791 -0.4773
   20SAPC   H4R 2597   2.713   6.502  10.339 -0.9779 -1.5952 -1.7109
   20SAPC   H4S 2598   2.704   6.527  10.511  0.4337  0.7952 -0.9064
   20SAPC   C25 2599   2.511   6.532  10.421 -0.4202  0.3956 -0.2475
   20SAPC   H5R 2600   2.458   6.536  10.517 -0.0078  2.1097 -0.0777
   20SAPC   C26 2601   2.451   6.591  10.317 -0.2824  0.0958  0.4516
   20SAPC   H6R 2602   2.360   6.652  10.330  0.4025  1.2677 -0.0997
   20SAPC   C27 2603   2.506   6.612  10.177  0.5194  0.5177 -0.5611
   20SAPC   H7R 2604   2.426   6.593  10.102 -0.9619 -1.3448  1.4272
   20SAPC   H7S 2605   2.578   6.534  10.145  0.7895  1.3515 -2.0260
   20SAPC   C28 2606   2.575   6.745  10.160  0.7948  0.4249  0.7798
   20SAPC   H8R 2607   2.617   6.779  10.256 -0.7152  1.2605  1.1717
   20SAPC   C29 2608   2.597   6.809  10.046  0.0194 -0.4755 -0.2511
   20SAPC   H9R 2609   2.658   6.900  10.056 -2.2773  1.2660 -1.4179
   20SAPC  C210 2610   2.562   6.763   9.911  0.8248  0.3964  0.2702
   20SAPC  H10R 2611   2.619   6.669   9.894 -2.1376 -1.4559  0.3738
   20SAPC  H10S 2612   2.605   6.835   9.839 -0.0342  0.7489  0.1068
   20SAPC  C211 2613   2.417   6.736   9.876  0.0406  0.0286 -0.4030
   20SAPC  H11R 2614   2.343   6.732   9.957 -0.5707 -0.5319 -0.9828
   20SAPC  C212 2615   2.376   6.705   9.749 -0.0489  0.5685 -0.3284
   20SAPC  H12R 2616   2.271   6.676   9.739 -0.5081  2.3587 -0.8021
   20SAPC  C213 2617   2.462   6.695   9.628 -0.4093 -0.7503 -0.1873
   20SAPC  H13R 2618   2.427   6.612   9.563 -0.8753  0.4010 -1.4291
   20SAPC  H13S 2619   2.562   6.656   9.653 -0.5332 -0.2188  1.2034
   20SAPC  C214 2620   2.496   6.831   9.562  0.1594  0.5622 -0.4442
   20SAPC  H14R 2621   2.550   6.900   9.630  1.6498 -1.1194  0.1227
   20SAPC  C215 2622   2.473   6.876   9.440  0.3637  0.3729 -0.2280
   20SAPC  H15R 2623   2.490   6.983   9.421 -0.8863  0.5131 -0.6317
   20SAPC  C216 2624   2.415   6.802   9.326  0.2653 -0.0506  1.0177
   20SAPC  H16R 2625   2.322   6.843   9.281  2.3484  1.4331 -2.0709
   20SAPC  H16S 2626   2.392   6.696   9.349  1.1120 -0.0753  1.8050
   20SAPC  C217 2627   2.518   6.793   9.210 -0.1827 -0.0682  0.5977
   20SAPC  H17R 2628   2.476   6.719   9.139 -2.8457  1.2135  0.7917
   20SAPC  H17S 2629   2.601   6.735   9.257  0.3939  0.5771  0.3916
   20SAPC  C218 2630   2.547   6.921   9.136 -0.2007  0.7141 -0.4199
   20SAPC  H18R 2631   2.571   6.994   9.216 -1.5486  0.9949 -0.2572
   20SAPC  H18S 2632   2.468   6.975   9.079  0.9134  0.7078 -2.0071
   20SAPC  C219 2633   2.673   6.913   9.046  0.2663 -0.8844 -0.3625
   20SAPC  H19R 2634   2.744   6.851   9.106  1.3969  0.6396 -0.0693
   20SAPC  H19S 2635   2.723   7.012   9.033  2.2737 -1.6765  1.1075
   20SAPC  C220 2636   2.643   6.853   8.905 -0.2913  0.5691 -0.9149
   20SAPC  H20R 2637   2.728   6.851   8.834  0.3591 -1.4098 -0.1383
   20SAPC  H20S 2638   2.560   6.912   8.862 -0.2495  0.4467 -1.1626
   20SAPC  H20T 2639   2.613   6.746   8.909  0.4245  0.3174 -2.0663
   20SAPC   C33 2640   3.324   6.376  10.077 -0.6926  0.8667 -0.4309
   20SAPC   H3X 2641   3.351   6.483  10.090  0.7879  0.3352  0.9466
   20SAPC   H3Y 2642   3.217   6.347  10.087 -0.8807  1.4586 -0.6965
   20SAPC   C34 2643   3.348   6.329   9.935 -0.2877  0.6726  0.1496
   20SAPC   H4X 2644   3.313   6.224   9.942  2.3643 -0.2397  0.3375
   20SAPC   H4Y 2645   3.458   6.316   9.921  0.0248  1.5547  1.6267
   20SAPC   C35 2646   3.264   6.408   9.833 -0.2741  0.9542 -0.0414
   20SAPC   H5X 2647   3.301   6.513   9.837  0.0580  0.8023  1.2706
   20SAPC   H5Y 2648   3.158   6.398   9.865 -0.1585  1.0790  0.3882
   20SAPC   C36 2649   3.291   6.365   9.691  0.3452  0.3432 -0.0282
   20SAPC   H6X 2650   3.242   6.269   9.664  2.5640 -0.6572 -0.5412
   20SAPC   H6Y 2651   3.401   6.354   9.685  0.4602  0.1677  2.0716
   20SAPC   C37 2652   3.255   6.472   9.582 -0.5445  0.2825  0.2668
   20SAPC   H7X 2653   3.291   6.575   9.604 -1.0262  0.0728  2.1307
   20SAPC   H7Y 2654   3.145   6.480   9.579 -0.8150 -2.9334 -1.0630
   20SAPC   C38 2655   3.311   6.438   9.444  0.4112 -0.5094 -0.5274
   20SAPC   H8X 2656   3.263   6.341   9.420  0.2185 -0.9175  1.4382
   20SAPC   H8Y 2657   3.421   6.427   9.454  0.1520 -1.8530  1.0069
   20SAPC   C39 2658   3.275   6.544   9.330 -0.1907 -0.0560  0.4207
   20SAPC   H9X 2659   3.304   6.642   9.373  0.2307  0.2997 -0.6448
   20SAPC   H9Y 2660   3.165   6.541   9.313 -0.2453 -1.0473  0.9115
   20SAPC  C310 2661   3.349   6.525   9.196  0.8656 -0.0580  0.1392
   20SAPC  H10X 2662   3.459   6.528   9.213  0.8201  1.1945  0.2481
   20SAPC  H10Y 2663   3.327   6.616   9.136  0.7475  0.1517  0.4953
   20SAPC  C311 2664   3.315   6.415   9.109  0.5003 -0.5586  0.5525
   20SAPC  H11X 2665   3.207   6.390   9.100  0.0091  1.6467 -0.0759
   20SAPC  H11Y 2666   3.367   6.334   9.164  0.7045 -0.2591  0.8029
   20SAPC  C312 2667   3.374   6.430   8.968 -0.2422 -0.4469 -0.2628
   20SAPC  H12X 2668   3.354   6.334   8.918  0.1418 -1.1526  0.9158
   20SAPC  H12Y 2669   3.485   6.438   8.971 -0.2635 -0.3945  2.3424
   20SAPC  C313 2670   3.308   6.544   8.887 -0.5222 -0.1539  0.8016
   20SAPC  H13X 2671   3.327   6.640   8.939  1.2028 -0.4753  0.8108
   20SAPC  H13Y 2672   3.199   6.529   8.898 -1.0673  2.6845 -0.2326
   20SAPC  C314 2673   3.345   6.547   8.734 -0.2883 -0.1539  0.2449
   20SAPC  H14X 2674   3.455   6.546   8.725 -0.4480  1.8554 -2.5317
   20SAPC  H14Y 2675   3.309   6.644   8.693 -2.3603 -2.0515 -2.5831
   20SAPC  C315 2676   3.272   6.444   8.637  0.3660  0.5571 -0.4309
   20SAPC  H15X 2677   3.340   6.356   8.643  1.2439  1.2030 -0.8477
   20SAPC  H15Y 2678   3.276   6.484   8.534  0.6150  3.8901  0.8029
   20SAPC  C316 2679   3.128   6.421   8.654 -0.0024 -0.5938 -0.1008
   20SAPC  H16X 2680   3.119   6.368   8.751  0.1137 -0.0992  0.1780
   20SAPC  H16Y 2681   3.090   6.336   8.593  1.7812 -1.4958  0.0023
   20SAPC  C317 2682   3.031   6.540   8.640  0.0480 -0.0629 -0.1579
   20SAPC  H17X 2683   3.051   6.601   8.731  2.7495  0.3640 -0.9962
   20SAPC  H17Y 2684   2.929   6.496   8.641 -0.6385  1.4910 -0.1200
   20SAPC  C318 2685   3.042   6.621   8.511 -0.0706  0.2995  0.3192
   20SAPC  H18X 2686   3.076   6.563   8.422 -1.7773 -0.8771  0.3839
   20SAPC  H18Y 2687   3.116   6.703   8.517  1.4287 -0.8246 -1.8830
   20SAPC  H18Z 2688   2.944   6.669   8.488  0.8411  1.0175 -2.2711
   21SAPC     N 2689   2.568   4.918  11.010  0.8790  0.2321 -0.1490
   21SAPC   C12 2690   2.605   4.993  10.889  0.1667  0.4108 -0.0606
   21SAPC  H12A 2691   2.571   5.095  10.897 -0.4022  0.1673  0.6033
   21SAPC  H12B 2692   2.561   4.942  10.805  1.8447  0.6543 -1.1232
   21SAPC   C13 2693   2.425   4.949  11.045 -0.0865  0.0089  0.1112
   21SAPC  H13A 2694   2.401   4.894  11.135 -3.5285  0.0144 -0.7407
   21SAPC  H13B 2695   2.412   5.054  11.068  1.1934  0.0832  0.5178
   21SAPC  H13C 2696   2.355   4.929  10.965  0.7802  0.7971 -0.8576
   21SAPC   C14 2697   2.581   4.771  10.984 -0.2871 -0.4034  0.3729
   21SAPC  H14A 2698   2.558   4.710  11.070  3.5148  0.9838  2.5159
   21SAPC  H14B 2699   2.522   4.735  10.901 -1.1487  0.9346  0.3937
   21SAPC  H14C 2700   2.682   4.748  10.953 -0.3885  0.6539 -0.8144
   21SAPC   C15 2701   2.650   4.951  11.122  0.1819 -0.4228 -0.4034
   21SAPC  H15A 2702   2.638   5.051  11.163  1.1458 -1.1369  1.6923
   21SAPC  H15B 2703   2.631   4.882  11.203  0.7975  0.0718  0.1747
   21SAPC  H15C 2704   2.750   4.942  11.082 -0.0853 -1.1065 -0.9291
   21SAPC   C11 2705   2.762   5.000  10.863  0.1819 -0.0761  0.3874
   21SAPC  H11A 2706   2.761   5.027  10.755  1.5485 -1.1138  0.0957
   21SAPC  H11B 2707   2.808   4.900  10.879 -1.4683 -0.8591  0.3108
   21SAPC     P 2708   2.987   5.127  10.891  0.2856 -0.4741  0.1477
   21SAPC   O13 2709   3.014   5.268  10.928  0.0760  0.3037 -0.1736
   21SAPC   O14 2710   3.073   5.027  10.950  0.1511 -0.2601  0.2956
   21SAPC   O12 2711   2.834   5.099  10.936  0.3066  0.0817  0.1284
   21SAPC   O11 2712   2.981   5.110  10.736  0.2763 -0.3876 -0.2935
   21SAPC    C1 2713   2.983   5.225  10.654 -0.2886  0.1241 -0.3329
   21SAPC    HA 2714   2.973   5.322  10.707 -3.2171 -0.6219  0.5868
   21SAPC    HB 2715   3.077   5.238  10.596  1.1843 -0.5901  1.8133
   21SAPC    C2 2716   2.864   5.231  10.562  0.0343  0.3222  0.4380
   21SAPC    HS 2717   2.772   5.213  10.621 -0.6334  1.1515 -0.3458
   21SAPC   O21 2718   2.879   5.119  10.465  0.4237 -0.3292 -0.0161
   21SAPC   C21 2719   2.773   5.078  10.411  0.6564  0.8749  0.1247
   21SAPC   O22 2720   2.658   5.115  10.436  0.1974  0.6093  0.2864
   21SAPC   C22 2721   2.814   4.975  10.301 -0.2142 -0.2091  0.0302
   21SAPC   H2R 2722   2.897   5.024  10.246 -0.5169  0.8683  0.5249
   21SAPC   H2S 2723   2.842   4.882  10.356  2.3104  0.8309  0.5665
   21SAPC    C3 2724   2.835   5.378  10.506  0.1711  0.1194 -0.3459
   21SAPC    HX 2725   2.842   5.453  10.588 -4.7318  0.5996 -0.1942
   21SAPC    HY 2726   2.730   5.377  10.469  0.0314 -2.3975  0.0205
   21SAPC   O31 2727   2.921   5.398  10.388 -0.4200 -0.6284  0.0011
   21SAPC   C31 2728   2.904   5.514  10.327 -0.0835  0.2166  0.2535
   21SAPC   O32 2729   2.816   5.594  10.353 -0.0123 -0.0142  0.2972
   21SAPC   C32 2730   3.011   5.538  10.212  0.4438 -0.6909  0.7699
   21SAPC   H2X 2731   3.003   5.452  10.142  0.2460  0.2519 -0.3898
   21SAPC   H2Y 2732   3.109   5.532  10.264  0.1998  0.1885  1.3445
   21SAPC   C23 2733   2.702   4.929  10.202  0.4814  0.7303  0.1491
   21SAPC   H3R 2734   2.616   4.888  10.259  2.2114 -1.1087  1.5627
   21SAPC   H3S 2735   2.742   4.845  10.141  1.5572  2.6553 -1.8389
   21SAPC   C24 2736   2.647   5.036  10.102  0.6668 -0.0904  0.3282
   21SAPC   H4R 2737   2.611   5.123  10.162 -1.3704 -1.9807  1.9347
   21SAPC   H4S 2738   2.561   4.990  10.049 -0.3590  0.8738  1.1280
   21SAPC   C25 2739   2.760   5.077  10.008  0.6636  0.1937 -0.2246
   21SAPC   H5R 2740   2.855   5.094  10.061  1.2060 -0.5957 -0.9337
   21SAPC   C26 2741   2.763   5.082   9.874 -0.4791 -0.3957  1.0841
   21SAPC   H6R 2742   2.858   5.120   9.835  0.0537 -0.1816  2.5302
   21SAPC   C27 2743   2.656   5.050   9.773 -0.0766 -0.0215  0.1755
   21SAPC   H7R 2744   2.587   5.135   9.759 -0.7237 -0.1028  2.6124
   21SAPC   H7S 2745   2.599   4.960   9.807 -0.6112  0.1574 -0.2393
   21SAPC   C28 2746   2.716   5.009   9.638 -0.1438  0.2798 -0.3427
   21SAPC   H8R 2747   2.771   4.914   9.626 -0.0245  0.4424 -1.1596
   21SAPC   C29 2748   2.698   5.078   9.527  0.2531 -0.0080 -0.0526
   21SAPC   H9R 2749   2.750   5.034   9.442 -0.9036 -2.3630  0.4255
   21SAPC  C210 2750   2.627   5.212   9.500 -0.3751 -0.8574  0.2985
   21SAPC  H10R 2751   2.574   5.234   9.595  0.5523  0.7832  0.4499
   21SAPC  H10S 2752   2.539   5.196   9.434 -0.3585  2.4711 -0.5853
   21SAPC  C211 2753   2.723   5.326   9.467  0.1336 -0.7571  0.2449
   21SAPC  H11R 2754   2.777   5.378   9.547 -2.4224  1.4140  0.6388
   21SAPC  C212 2755   2.735   5.385   9.346 -0.2363  0.9946 -0.7961
   21SAPC  H12R 2756   2.788   5.481   9.350  0.3406  0.6920 -0.9638
   21SAPC  C213 2757   2.670   5.350   9.212 -0.1670 -0.7534  0.9531
   21SAPC  H13R 2758   2.705   5.435   9.150 -0.9303 -0.3149  1.1117
   21SAPC  H13S 2759   2.560   5.366   9.213  0.0953  1.7652 -1.6350
   21SAPC  C214 2760   2.701   5.217   9.148 -0.3455  0.0926  0.2461
   21SAPC  H14R 2761   2.795   5.175   9.186  0.1333  0.2233 -0.7525
   21SAPC  C215 2762   2.629   5.146   9.053  0.2623 -0.6115  0.7839
   21SAPC  H15R 2763   2.684   5.058   9.017 -0.2104 -0.9256  0.8267
   21SAPC  C216 2764   2.500   5.172   8.979 -0.0800  0.1432  0.5674
   21SAPC  H16R 2765   2.446   5.255   9.029 -0.3055 -0.4910  1.3808
   21SAPC  H16S 2766   2.422   5.094   8.993  0.5802  0.0115  3.7403
   21SAPC  C217 2767   2.524   5.214   8.832 -0.3646 -0.4247  0.2173
   21SAPC  H17R 2768   2.424   5.235   8.788  0.2917  1.3324 -0.4703
   21SAPC  H17S 2769   2.562   5.129   8.773  2.3147  2.4353 -2.3544
   21SAPC  C218 2770   2.614   5.347   8.805 -0.5787  0.1149 -0.1887
   21SAPC  H18R 2771   2.616   5.340   8.694  1.9807  1.1306 -0.2295
   21SAPC  H18S 2772   2.719   5.338   8.839 -0.2859  2.2577 -0.5070
   21SAPC  C219 2773   2.555   5.470   8.862 -0.2869  0.4134 -0.1238
   21SAPC  H19R 2774   2.569   5.464   8.972  0.5089 -0.5144 -0.2613
   21SAPC  H19S 2775   2.447   5.455   8.843  0.3337 -1.6035 -2.3906
   21SAPC  C220 2776   2.620   5.594   8.796 -0.3429 -0.8065 -0.0410
   21SAPC  H20R 2777   2.572   5.681   8.845  1.9273 -0.6567  2.0321
   21SAPC  H20S 2778   2.601   5.603   8.687  2.1080  0.3615 -0.4037
   21SAPC  H20T 2779   2.730   5.601   8.808 -0.4027 -2.6438  1.8247
   21SAPC   C33 2780   3.001   5.684  10.154  0.1066  0.0972 -0.0220
   21SAPC   H3X 2781   2.899   5.707  10.115 -0.5527  0.9412  2.0786
   21SAPC   H3Y 2782   3.064   5.675  10.063  0.1061 -1.2186  0.0993
   21SAPC   C34 2783   3.047   5.784  10.254 -0.8013 -0.8340  0.0973
   21SAPC   H4X 2784   3.151   5.751  10.272 -0.3634  1.3927  1.8982
   21SAPC   H4Y 2785   2.998   5.773  10.353 -1.0807 -0.7900 -0.0333
   21SAPC   C35 2786   3.043   5.929  10.220 -0.1772  1.0762 -0.0654
   21SAPC   H5X 2787   3.111   5.949  10.135  0.6001 -2.2532 -0.3001
   21SAPC   H5Y 2788   3.085   5.987  10.305  1.3765 -1.1260  0.7209
   21SAPC   C36 2789   2.905   5.986  10.176  0.2808  1.7262  0.6263
   21SAPC   H6X 2790   2.856   5.994  10.276 -0.2255 -1.6621  0.7095
   21SAPC   H6Y 2791   2.844   5.911  10.122 -0.8885  3.0477  0.0777
   21SAPC   C37 2792   2.914   6.117  10.111 -0.3693 -0.3887 -0.4163
   21SAPC   H7X 2793   2.969   6.112  10.015 -0.6027 -0.8096 -0.5271
   21SAPC   H7Y 2794   2.957   6.186  10.187 -4.2250  2.6255 -0.7787
   21SAPC   C38 2795   2.782   6.185  10.071 -0.1868 -0.0768  0.4315
   21SAPC   H8X 2796   2.702   6.165  10.146 -0.1809 -1.8668 -0.0124
   21SAPC   H8Y 2797   2.740   6.141   9.979  1.6352 -2.3049  0.6386
   21SAPC   C39 2798   2.783   6.333  10.042 -0.5781 -0.1365 -0.3023
   21SAPC   H9X 2799   2.866   6.378  10.100 -0.1031 -2.7713  1.1512
   21SAPC   H9Y 2800   2.689   6.388  10.064 -0.4219  0.3255 -0.7899
   21SAPC  C310 2801   2.809   6.365   9.895  0.3238  0.4438  0.9939
   21SAPC  H10X 2802   2.892   6.299   9.861  1.3581  0.5936  3.1581
   21SAPC  H10Y 2803   2.847   6.469   9.897  0.3932  0.5143 -2.3202
   21SAPC  C311 2804   2.674   6.363   9.809 -0.2720  0.1458 -0.4315
   21SAPC  H11X 2805   2.622   6.457   9.781 -1.6357 -1.0079 -1.8493
   21SAPC  H11Y 2806   2.606   6.286   9.852  0.0622 -0.4545 -0.9736
   21SAPC  C312 2807   2.685   6.284   9.668 -0.0305  1.1843 -0.2271
   21SAPC  H12X 2808   2.586   6.236   9.655  0.6167  0.0422 -1.0100
   21SAPC  H12Y 2809   2.768   6.211   9.678 -0.8224  0.2849 -0.2305
   21SAPC  C313 2810   2.723   6.379   9.548  0.2968 -0.2513  0.2577
   21SAPC  H13X 2811   2.814   6.435   9.579  1.0175 -1.4216  0.2659
   21SAPC  H13Y 2812   2.655   6.466   9.534  2.6408  1.2998 -1.7844
   21SAPC  C314 2813   2.748   6.309   9.417 -0.0731 -0.1659  0.4534
   21SAPC  H14X 2814   2.665   6.242   9.389 -0.0054  0.4330 -1.2276
   21SAPC  H14Y 2815   2.844   6.255   9.433 -0.8497 -0.3498  5.2243
   21SAPC  C315 2816   2.768   6.418   9.304  0.4727  0.3715  0.7455
   21SAPC  H15X 2817   2.868   6.461   9.324  1.4216 -1.4480 -0.0428
   21SAPC  H15Y 2818   2.703   6.508   9.316 -0.7955 -0.4493  0.2496
   21SAPC  C316 2819   2.747   6.377   9.150  0.6709 -0.4209 -0.3860
   21SAPC  H16X 2820   2.644   6.340   9.138  0.6697 -0.9884  1.2856
   21SAPC  H16Y 2821   2.821   6.297   9.129  0.8730 -0.2814 -0.2101
   21SAPC  C317 2822   2.769   6.493   9.054  0.0871 -0.1787  0.0164
   21SAPC  H17X 2823   2.732   6.593   9.086  0.1511  0.1913 -1.0418
   21SAPC  H17Y 2824   2.726   6.468   8.955  0.3478  0.0877 -0.1646
   21SAPC  C318 2825   2.919   6.518   9.033  0.1588 -0.5063  0.1923
   21SAPC  H18X 2826   2.985   6.533   9.121  2.1746 -2.0807 -0.9976
   21SAPC  H18Y 2827   2.936   6.606   8.967 -0.3905 -0.3120  0.3066
   21SAPC  H18Z 2828   2.966   6.423   9.001  1.2528  0.1373 -0.1419
   22SAPC     N 2829   2.097   2.761  10.791 -0.1581 -0.2756  0.7108
   22SAPC   C12 2830   2.184   2.682  10.686  0.9539  0.4622 -0.2967
   22SAPC  H12A 2831   2.215   2.745  10.603 -1.0355  2.3726  0.3609
   22SAPC  H12B 2832   2.129   2.602  10.639  0.0507  1.8365 -1.6260
   22SAPC   C13 2833   2.057   2.669  10.906 -0.4003 -0.4582 -0.4445
   22SAPC  H13A 2834   2.142   2.634  10.962 -1.5537 -1.5408  0.6666
   22SAPC  H13B 2835   1.985   2.715  10.972 -1.1984 -0.3343 -1.3844
   22SAPC  H13C 2836   2.011   2.578  10.871  0.9148 -1.0857 -0.5624
   22SAPC   C14 2837   2.152   2.886  10.841  0.4056  0.1682  0.3807
   22SAPC  H14A 2838   2.075   2.925  10.905 -1.1842 -1.3543 -0.5626
   22SAPC  H14B 2839   2.235   2.865  10.907 -0.7352 -0.6613  1.5742
   22SAPC  H14C 2840   2.171   2.963  10.767 -3.4898  0.2188 -0.6710
   22SAPC   C15 2841   1.973   2.801  10.720  0.0742  0.1300 -0.2054
   22SAPC  H15A 2842   2.000   2.861  10.635 -1.3853  1.0838 -0.0293
   22SAPC  H15B 2843   1.917   2.719  10.678 -0.9912  0.9625 -0.4557
   22SAPC  H15C 2844   1.914   2.860  10.790  0.6021  0.4999 -0.0678
   22SAPC   C11 2845   2.304   2.612  10.749  0.0558 -0.1361 -0.1218
   22SAPC  H11A 2846   2.342   2.532  10.682  3.5543  1.1174  0.2776
   22SAPC  H11B 2847   2.289   2.561  10.846  3.5251 -1.7321 -0.3603
   22SAPC     P 2848   2.526   2.738  10.664 -0.5722  0.0511 -0.1768
   22SAPC   O13 2849   2.590   2.871  10.692 -0.3823 -0.1487  0.6694
   22SAPC   O14 2850   2.600   2.616  10.652 -0.5525 -0.4843 -0.2197
   22SAPC   O12 2851   2.416   2.700  10.773 -0.1373 -0.3809  0.1165
   22SAPC   O11 2852   2.452   2.755  10.526  0.7723  0.6347 -0.6667
   22SAPC    C1 2853   2.441   2.887  10.466  0.0651  0.7571 -0.1469
   22SAPC    HA 2854   2.334   2.916  10.466 -0.3012 -0.5627 -0.5229
   22SAPC    HB 2855   2.507   2.965  10.511  2.2638 -0.6844 -0.7623
   22SAPC    C2 2856   2.498   2.882  10.321 -1.3802 -0.4092 -0.2180
   22SAPC    HS 2857   2.470   2.981  10.280 -1.4428 -1.4131 -2.6307
   22SAPC   O21 2858   2.440   2.778  10.241  0.2131 -0.0264  0.2732
   22SAPC   C21 2859   2.312   2.796  10.215 -0.3036  0.1439  0.1121
   22SAPC   O22 2860   2.230   2.877  10.257 -0.4457 -0.3650 -0.9940
   22SAPC   C22 2861   2.268   2.690  10.107  0.1739 -0.1757 -0.3962
   22SAPC   H2R 2862   2.350   2.679  10.033 -0.0818  0.7086 -0.8177
   22SAPC   H2S 2863   2.254   2.593  10.160  0.4780 -0.0850 -0.1465
   22SAPC    C3 2864   2.649   2.865  10.317  0.3512  0.3038  0.2328
   22SAPC    HX 2865   2.673   2.765  10.357 -0.0628  0.3182  0.5155
   22SAPC    HY 2866   2.706   2.932  10.385 -0.0787  1.6488 -0.6906
   22SAPC   O31 2867   2.696   2.875  10.180  0.4416  0.1597  0.0784
   22SAPC   C31 2868   2.824   2.896  10.173 -0.0644  0.3251  0.3453
   22SAPC   O32 2869   2.902   2.891  10.270  0.0821 -0.1560 -0.1438
   22SAPC   C32 2870   2.857   2.925  10.026  0.1367 -0.4709  0.3161
   22SAPC   H2X 2871   2.796   2.853   9.966 -0.9429  1.2758 -0.7415
   22SAPC   H2Y 2872   2.963   2.898  10.011 -0.0273 -1.1445  0.3730
   22SAPC   C23 2873   2.131   2.721  10.046 -0.6964  0.2931  0.4573
   22SAPC   H3R 2874   2.141   2.800   9.968 -0.3315  0.9910  1.1991
   22SAPC   H3S 2875   2.057   2.752  10.123 -1.3422 -1.6010  0.6021
   22SAPC   C24 2876   2.074   2.597   9.968  0.4449 -0.2227 -0.0814
   22SAPC   H4R 2877   1.980   2.634   9.922  0.9420  1.9529  0.5834
   22SAPC   H4S 2878   2.038   2.519  10.039  0.1449 -1.1867 -1.2634
   22SAPC   C25 2879   2.160   2.535   9.858 -0.2743 -0.2290 -0.6628
   22SAPC   H5R 2880   2.240   2.469   9.895  1.7175  2.4679 -0.0635
   22SAPC   C26 2881   2.141   2.547   9.726  0.1350  1.6111  0.3581
   22SAPC   H6R 2882   2.221   2.501   9.667  0.6123  0.9778  1.4752
   22SAPC   C27 2883   2.032   2.621   9.653 -0.2552 -0.0471  0.7049
   22SAPC   H7R 2884   2.065   2.672   9.560 -0.0735  0.9076  1.2868
   22SAPC   H7S 2885   1.993   2.704   9.716  1.4543  0.4225  1.1751
   22SAPC   C28 2886   1.909   2.541   9.621 -0.1783  0.3898  0.4184
   22SAPC   H8R 2887   1.913   2.441   9.666  0.0416 -0.1923 -0.8690
   22SAPC   C29 2888   1.796   2.584   9.553 -0.3196 -0.4258 -0.3354
   22SAPC   H9R 2889   1.714   2.512   9.543 -1.6085  0.5373  2.6632
   22SAPC  C210 2890   1.781   2.719   9.498  0.0084  0.6592 -0.0403
   22SAPC  H10R 2891   1.824   2.722   9.396  1.6304  0.0500  0.6186
   22SAPC  H10S 2892   1.838   2.785   9.567  0.0094  0.0752  0.5220
   22SAPC  C211 2893   1.638   2.760   9.485 -0.4391  0.5857  0.0942
   22SAPC  H11R 2894   1.581   2.760   9.579 -0.6023 -3.8798  0.0983
   22SAPC  C212 2895   1.571   2.797   9.374 -0.0031 -0.3834  0.0376
   22SAPC  H12R 2896   1.461   2.807   9.380 -0.4614 -3.9057 -0.8988
   22SAPC  C213 2897   1.630   2.800   9.234 -0.4070  0.5303  0.2753
   22SAPC  H13R 2898   1.587   2.710   9.184  2.4006 -0.8131  0.1884
   22SAPC  H13S 2899   1.739   2.780   9.229 -0.6952 -0.7977 -1.5664
   22SAPC  C214 2900   1.603   2.933   9.170  0.2299 -0.2418 -0.4147
   22SAPC  H14R 2901   1.647   3.020   9.220  1.5591 -0.3101 -1.4367
   22SAPC  C215 2902   1.548   2.956   9.048  0.2166 -0.1380 -0.3393
   22SAPC  H15R 2903   1.528   3.060   9.020  2.2145  0.4654  0.4598
   22SAPC  C216 2904   1.505   2.855   8.942  0.5311  0.5981  0.0075
   22SAPC  H16R 2905   1.397   2.865   8.917  0.1511 -0.9876  0.9162
   22SAPC  H16S 2906   1.511   2.749   8.974  0.1420  0.7002  0.4353
   22SAPC  C217 2907   1.591   2.865   8.817  0.8032  1.1100 -0.5738
   22SAPC  H17R 2908   1.604   2.975   8.804  0.1119  1.2079 -0.4659
   22SAPC  H17S 2909   1.542   2.823   8.726 -0.4571  1.5626 -0.1112
   22SAPC  C218 2910   1.725   2.803   8.848  0.2979 -0.8775  0.0349
   22SAPC  H18R 2911   1.711   2.707   8.902 -0.1900  1.7085  4.7616
   22SAPC  H18S 2912   1.788   2.865   8.916  1.5783 -1.4550 -0.6066
   22SAPC  C219 2913   1.810   2.779   8.725  0.1304  0.6970  0.6747
   22SAPC  H19R 2914   1.757   2.699   8.668  2.5883 -0.1348 -0.5196
   22SAPC  H19S 2915   1.911   2.742   8.752  0.1211  0.8873  0.9684
   22SAPC  C220 2916   1.825   2.895   8.630 -0.4269  0.7590 -0.8612
   22SAPC  H20R 2917   1.838   2.994   8.680  2.2000  0.8257 -1.5869
   22SAPC  H20S 2918   1.742   2.896   8.557  0.7939  0.1652 -2.2767
   22SAPC  H20T 2919   1.920   2.875   8.575 -0.0073  0.5393 -0.0719
   22SAPC   C33 2920   2.821   3.065   9.970  0.6576 -0.2418 -0.2417
   22SAPC   H3X 2921   2.864   3.077   9.868  2.4757  0.0019  0.5254
   22SAPC   H3Y 2922   2.873   3.134  10.040 -0.0640  0.8349 -0.7743
   22SAPC   C34 2923   2.670   3.080   9.947 -0.7754 -0.1144  0.2748
   22SAPC   H4X 2924   2.661   3.188   9.924 -2.4423 -0.4199 -0.5294
   22SAPC   H4Y 2925   2.608   3.041  10.031  0.5101 -1.4216  0.6420
   22SAPC   C35 2926   2.609   2.998   9.827 -0.2636  0.7015 -0.4482
   22SAPC   H5X 2927   2.604   2.894   9.864 -1.1896 -0.4538 -3.7186
   22SAPC   H5Y 2928   2.679   2.981   9.743  1.3899  0.7118  0.9100
   22SAPC   C36 2929   2.480   3.048   9.781  0.3197  0.1894 -0.9562
   22SAPC   H6X 2930   2.485   3.153   9.745 -0.0498  0.6871  0.4253
   22SAPC   H6Y 2931   2.400   3.046   9.858  0.6911  0.3208 -0.5603
   22SAPC   C37 2932   2.421   2.978   9.659 -0.2267 -0.5006  0.4643
   22SAPC   H7X 2933   2.390   2.878   9.696  1.6040  0.2462  4.2662
   22SAPC   H7Y 2934   2.506   2.970   9.587  0.5221 -1.8789  1.4781
   22SAPC   C38 2935   2.300   3.038   9.589 -0.1081  0.0834 -0.4570
   22SAPC   H8X 2936   2.323   3.136   9.542 -1.8470  0.5611 -0.3448
   22SAPC   H8Y 2937   2.220   3.055   9.665  0.3176  1.0407 -0.2044
   22SAPC   C39 2938   2.234   2.940   9.486  0.3184 -0.5988 -0.2722
   22SAPC   H9X 2939   2.217   2.843   9.537  0.9639 -0.5516  0.0405
   22SAPC   H9Y 2940   2.304   2.927   9.400  1.6051  1.6794  0.3916
   22SAPC  C310 2941   2.091   2.989   9.436  0.7007  0.6716  0.2569
   22SAPC  H10X 2942   2.110   3.091   9.395 -0.3015  0.5942 -0.4357
   22SAPC  H10Y 2943   2.032   2.985   9.530  0.0375  0.7119 -0.1468
   22SAPC  C311 2944   2.027   2.903   9.326  0.5769  0.3067 -0.3269
   22SAPC  H11X 2945   1.925   2.935   9.298  0.5179  1.0558  0.7227
   22SAPC  H11Y 2946   2.015   2.799   9.361  0.5803  0.6079  0.5981
   22SAPC  C312 2947   2.108   2.903   9.202  0.3321 -0.1425 -0.0236
   22SAPC  H12X 2948   2.198   2.839   9.198 -1.7005 -3.0375 -1.2554
   22SAPC  H12Y 2949   2.137   3.006   9.170 -0.9645  0.8862  2.0102
   22SAPC  C313 2950   2.021   2.856   9.083 -0.1597  0.4551  0.0339
   22SAPC  H13X 2951   1.932   2.921   9.071  0.0392  0.6939 -0.1573
   22SAPC  H13Y 2952   1.996   2.749   9.098  1.3486  0.2227  0.9155
   22SAPC  C314 2953   2.092   2.863   8.953  0.1746  0.2064  0.3135
   22SAPC  H14X 2954   2.045   2.783   8.892  0.3702  2.5143 -3.0037
   22SAPC  H14Y 2955   2.198   2.835   8.970  0.4924  0.2813 -1.4208
   22SAPC  C315 2956   2.092   2.995   8.873 -0.6858 -1.3283  0.7716
   22SAPC  H15X 2957   2.149   3.074   8.927  2.8512 -3.8665  0.9807
   22SAPC  H15Y 2958   1.999   3.028   8.823 -0.4232 -1.7079  0.0281
   22SAPC  C316 2959   2.175   2.972   8.738  0.2500 -0.3242  0.3597
   22SAPC  H16X 2960   2.119   2.898   8.678 -1.1516 -0.9993  2.4565
   22SAPC  H16Y 2961   2.270   2.927   8.776  0.0312 -0.1384  1.1421
   22SAPC  C317 2962   2.207   3.093   8.656 -0.4431 -0.3583  0.7906
   22SAPC  H17X 2963   2.242   3.169   8.729  1.7365 -0.3992 -0.1660
   22SAPC  H17Y 2964   2.120   3.136   8.602  1.2316  3.4592  0.9586
   22SAPC  C318 2965   2.321   3.069   8.554  0.3733 -0.2517 -0.3712
   22SAPC  H18X 2966   2.352   3.155   8.492  0.4239 -0.3389 -0.4658
   22SAPC  H18Y 2967   2.293   2.989   8.483 -0.4346  1.4216 -1.9555
   22SAPC  H18Z 2968   2.405   3.030   8.615 -0.0604  1.2076  1.2163
   23SAPC     N 2969   3.636   4.767  11.026  0.4677 -0.0404  0.7768
   23SAPC   C12 2970   3.772   4.805  10.993 -0.6337  0.0530  0.4799
   23SAPC  H12A 2971   3.806   4.880  11.064 -0.9329  1.4450 -0.8219
   23SAPC  H12B 2972   3.781   4.856  10.898 -1.8056 -0.3167  0.1706
   23SAPC   C13 2973   3.639   4.691  11.155  0.1954  0.3564  0.3709
   23SAPC  H13A 2974   3.542   4.653  11.185 -0.8082  3.2441  0.9508
   23SAPC  H13B 2975   3.700   4.602  11.147  2.3023  1.8540 -0.6855
   23SAPC  H13C 2976   3.672   4.750  11.238 -0.6275 -0.1140  1.0456
   23SAPC   C14 2977   3.553   4.884  11.055 -0.3528  0.5283 -0.0810
   23SAPC  H14A 2978   3.582   4.941  11.142 -0.7274  0.1509  0.2912
   23SAPC  H14B 2979   3.538   4.944  10.966 -0.3186 -1.0834 -1.2010
   23SAPC  H14C 2980   3.456   4.845  11.082  0.3341  0.4928  2.4117
   23SAPC   C15 2981   3.573   4.687  10.921 -0.1190  0.0820 -0.6586
   23SAPC  H15A 2982   3.542   4.741  10.832  0.6051  0.5268 -0.6387
   23SAPC  H15B 2983   3.627   4.600  10.886  0.2671  1.1300 -2.7580
   23SAPC  H15C 2984   3.482   4.648  10.966  0.3876  1.3159  1.5000
   23SAPC   C11 2985   3.881   4.696  10.978 -0.3977 -0.6397  0.5150
   23SAPC  H11A 2986   3.904   4.657  11.079  2.5038 -1.9457 -0.6082
   23SAPC  H11B 2987   3.975   4.739  10.936 -1.3971  0.1717 -0.9481
   23SAPC     P 2988   3.856   4.561  10.747  0.2816 -0.4755  0.4088
   23SAPC   O13 2989   3.957   4.455  10.726 -0.4288 -0.2688  0.8423
   23SAPC   O14 2990   3.721   4.543  10.691  0.1377  0.6455  0.8635
   23SAPC   O12 2991   3.848   4.585  10.900 -0.3317  0.0575  0.2421
   23SAPC   O11 2992   3.918   4.703  10.700 -0.0304  0.0410  0.6767
   23SAPC    C1 2993   4.054   4.701  10.658  0.5783  0.4053 -0.5167
   23SAPC    HA 2994   4.102   4.787  10.709  1.6870 -1.1072  1.0442
   23SAPC    HB 2995   4.112   4.621  10.708  1.9794 -0.9393 -4.0737
   23SAPC    C2 2996   4.073   4.706  10.497  0.2700  0.1893  0.0244
   23SAPC    HS 2997   4.049   4.808  10.461 -1.4204 -0.4878 -0.7808
   23SAPC   O21 2998   3.984   4.603  10.447  0.4980 -0.1527 -0.0782
   23SAPC   C21 2999   3.929   4.631  10.333  0.9573  0.2633  0.9168
   23SAPC   O22 3000   3.962   4.719  10.257  0.1525  0.2772  0.2784
   23SAPC   C22 3001   3.813   4.534  10.310 -0.5376  0.4792 -0.3964
   23SAPC   H2R 3002   3.852   4.432  10.288  0.5578  0.6706  0.6045
   23SAPC   H2S 3003   3.760   4.529  10.408 -0.0203 -0.8899 -0.1802
   23SAPC    C3 3004   4.215   4.675  10.459 -0.0854 -0.5556 -0.8003
   23SAPC    HX 3005   4.218   4.565  10.469 -0.2170 -0.4497  0.5954
   23SAPC    HY 3006   4.294   4.712  10.528 -3.1081 -0.2735  2.6882
   23SAPC   O31 3007   4.251   4.729  10.333  0.5350  0.4070 -0.9086
   23SAPC   C31 3008   4.303   4.852  10.331  0.3711  0.1063  0.3778
   23SAPC   O32 3009   4.330   4.922  10.425 -0.0362 -0.1920 -0.0991
   23SAPC   C32 3010   4.282   4.904  10.188 -0.7512 -0.4386  0.7811
   23SAPC   H2X 3011   4.299   5.013  10.193  0.2500 -0.4544 -1.5249
   23SAPC   H2Y 3012   4.175   4.891  10.162 -0.7632  1.3045 -0.1206
   23SAPC   C23 3013   3.729   4.579  10.194  0.1461 -0.1107  0.2650
   23SAPC   H3R 3014   3.782   4.583  10.096  1.4011 -1.4137  0.8721
   23SAPC   H3S 3015   3.692   4.681  10.215 -0.4942  0.1476 -1.9881
   23SAPC   C24 3016   3.601   4.482  10.185  0.0389  0.8258  0.1884
   23SAPC   H4R 3017   3.538   4.536  10.112  1.2908 -0.8924 -2.2427
   23SAPC   H4S 3018   3.543   4.486  10.280  1.9468 -0.8245  1.4743
   23SAPC   C25 3019   3.629   4.341  10.135 -0.3020  0.7085  0.1213
   23SAPC   H5R 3020   3.693   4.282  10.202  1.1292  2.5602  0.4029
   23SAPC   C26 3021   3.587   4.289  10.011  0.3332  0.1136 -0.4028
   23SAPC   H6R 3022   3.617   4.184   9.995 -0.1709  0.0513 -0.9310
   23SAPC   C27 3023   3.507   4.353   9.900 -0.4494 -0.2788  0.4262
   23SAPC   H7R 3024   3.412   4.400   9.934 -1.4718 -2.3102  0.4202
   23SAPC   H7S 3025   3.468   4.275   9.831  1.9380  0.9298 -2.3796
   23SAPC   C28 3026   3.588   4.472   9.835  0.3798  0.5264 -0.5408
   23SAPC   H8R 3027   3.634   4.536   9.911 -0.1252  1.5694 -1.1051
   23SAPC   C29 3028   3.605   4.487   9.705  0.6694 -0.1980  0.0779
   23SAPC   H9R 3029   3.662   4.572   9.665  0.0570 -2.0244 -5.1363
   23SAPC  C210 3030   3.560   4.400   9.593  0.2580 -0.6107  0.4842
   23SAPC  H10R 3031   3.499   4.309   9.610 -0.9495  0.0519 -0.1941
   23SAPC  H10S 3032   3.654   4.355   9.555  0.2641  0.7241 -1.1687
   23SAPC  C211 3033   3.506   4.485   9.480  0.2422 -0.3174 -0.0562
   23SAPC  H11R 3034   3.416   4.541   9.507  1.5711  0.7872  2.2659
   23SAPC  C212 3035   3.559   4.527   9.361  0.2928  0.2227 -0.3267
   23SAPC  H12R 3036   3.513   4.602   9.295  1.8038  1.1818 -0.3132
   23SAPC  C213 3037   3.699   4.493   9.309  0.7525  0.4219 -0.0910
   23SAPC  H13R 3038   3.747   4.429   9.385 -0.7392 -1.6765 -0.8684
   23SAPC  H13S 3039   3.770   4.576   9.287  0.1839  0.8989 -0.1600
   23SAPC  C214 3040   3.697   4.421   9.174 -0.6317  1.0253  0.9504
   23SAPC  H14R 3041   3.704   4.312   9.181  0.1191  1.0740  1.0534
   23SAPC  C215 3042   3.699   4.476   9.051  1.2159 -0.0015  0.0130
   23SAPC  H15R 3043   3.694   4.408   8.965 -0.2048  1.7951 -1.3723
   23SAPC  C216 3044   3.691   4.622   9.010 -0.4729 -0.1350 -0.1383
   23SAPC  H16R 3045   3.783   4.660   8.961 -0.5546 -0.4426 -0.5331
   23SAPC  H16S 3046   3.686   4.687   9.100  1.2374  0.0496 -0.1528
   23SAPC  C217 3047   3.572   4.658   8.918  0.3723  0.1982 -0.2531
   23SAPC  H17R 3048   3.558   4.768   8.918  0.3454  0.1958  0.8174
   23SAPC  H17S 3049   3.474   4.619   8.953 -0.0534  1.8105  0.3644
   23SAPC  C218 3050   3.602   4.623   8.767 -0.1316 -0.2198 -1.2123
   23SAPC  H18R 3051   3.630   4.516   8.777  1.8744  0.5285  2.0055
   23SAPC  H18S 3052   3.695   4.672   8.733  0.0722  1.4494  1.5620
   23SAPC  C219 3053   3.481   4.643   8.678 -0.5298 -0.4884  0.5298
   23SAPC  H19R 3054   3.397   4.594   8.731 -0.5030 -0.7383  0.3452
   23SAPC  H19S 3055   3.501   4.576   8.591 -0.7171  0.1935 -0.0495
   23SAPC  C220 3056   3.465   4.779   8.620  0.7782 -0.4137 -0.3880
   23SAPC  H20R 3057   3.551   4.804   8.555  0.3182  1.5753 -0.2872
   23SAPC  H20S 3058   3.462   4.850   8.706 -0.4395  0.2821 -0.9832
   23SAPC  H20T 3059   3.366   4.784   8.570 -0.2080 -0.6210  1.4922
   23SAPC   C33 3060   4.367   4.835  10.077 -0.2202  0.4328 -0.3741
   23SAPC   H3X 3061   4.338   4.730  10.058 -0.1066  0.3132  0.1005
   23SAPC   H3Y 3062   4.478   4.838  10.086 -0.1887 -1.0402 -0.1413
   23SAPC   C34 3063   4.343   4.895   9.941 -0.6259  0.3722  0.4246
   23SAPC   H4X 3064   4.383   4.998   9.934 -2.4125  1.0987  0.4770
   23SAPC   H4Y 3065   4.235   4.909   9.916 -0.5329  0.9746  0.3440
   23SAPC   C35 3066   4.412   4.825   9.819  0.1051  0.6486 -0.0056
   23SAPC   H5X 3067   4.387   4.717   9.831 -1.1334  0.7091 -1.8594
   23SAPC   H5Y 3068   4.522   4.828   9.837 -0.1302  2.9118  1.1850
   23SAPC   C36 3069   4.374   4.883   9.679  0.0916  0.2729  0.0110
   23SAPC   H6X 3070   4.403   4.990   9.678 -0.9512  0.5713  0.6469
   23SAPC   H6Y 3071   4.264   4.875   9.667  0.1094 -1.7710  0.9384
   23SAPC   C37 3072   4.424   4.791   9.570  0.5073 -0.5288  0.9680
   23SAPC   H7X 3073   4.360   4.700   9.575 -0.8868  0.4226  0.9857
   23SAPC   H7Y 3074   4.528   4.759   9.592  0.8539 -0.1006 -0.0224
   23SAPC   C38 3075   4.411   4.843   9.426 -0.6221 -0.5850  0.3765
   23SAPC   H8X 3076   4.488   4.923   9.415 -0.3778 -0.8952 -0.2112
   23SAPC   H8Y 3077   4.312   4.891   9.412 -0.9253 -1.7469 -1.6889
   23SAPC   C39 3078   4.432   4.744   9.312 -0.0300  0.4105  0.0268
   23SAPC   H9X 3079   4.364   4.657   9.329 -0.0221  0.1983 -0.9904
   23SAPC   H9Y 3080   4.535   4.703   9.304 -0.2728 -0.4910  1.3060
   23SAPC  C310 3081   4.401   4.814   9.172 -0.5727  0.4123 -0.0088
   23SAPC  H10X 3082   4.455   4.746   9.103  0.7098  1.2453  0.1431
   23SAPC  H10Y 3083   4.466   4.904   9.164 -0.8694  0.7159  0.8910
   23SAPC  C311 3084   4.253   4.830   9.141  0.7328 -0.2299  0.4640
   23SAPC  H11X 3085   4.215   4.928   9.174 -3.0122 -1.7430  0.8748
   23SAPC  H11Y 3086   4.198   4.749   9.194 -1.2122  2.6783  3.0456
   23SAPC  C312 3087   4.231   4.820   8.984  0.7347  0.1565  0.4505
   23SAPC  H12X 3088   4.273   4.726   8.940 -0.8478 -0.3168 -0.0787
   23SAPC  H12Y 3089   4.273   4.906   8.928  1.2307 -1.4814 -1.7757
   23SAPC  C313 3090   4.084   4.826   8.945  0.0564  0.1203 -0.2076
   23SAPC  H13X 3091   4.032   4.917   8.983  0.3140  0.5954 -0.9734
   23SAPC  H13Y 3092   4.040   4.736   8.992  0.5007  0.4241  0.8102
   23SAPC  C314 3093   4.086   4.829   8.790 -0.0000 -0.1014  0.5300
   23SAPC  H14X 3094   4.164   4.762   8.748 -0.8829  1.1785 -3.3906
   23SAPC  H14Y 3095   4.137   4.926   8.776 -0.6501  0.1790  0.1410
   23SAPC  C315 3096   3.949   4.825   8.734 -0.2310 -0.0775  0.2498
   23SAPC  H15X 3097   3.885   4.891   8.795 -1.2029  0.5327 -1.4083
   23SAPC  H15Y 3098   3.909   4.721   8.736 -1.0683  0.2221 -0.4988
   23SAPC  C316 3099   3.946   4.868   8.579  1.1621 -0.4811 -0.2288
   23SAPC  H16X 3100   4.016   4.954   8.571  0.8287 -0.1140  0.8474
   23SAPC  H16Y 3101   3.848   4.913   8.554  2.2660  1.3050 -1.4704
   23SAPC  C317 3102   3.972   4.754   8.487 -0.2189  0.3291  0.1039
   23SAPC  H17X 3103   3.892   4.677   8.493 -1.9378  1.8640 -2.1306
   23SAPC  H17Y 3104   4.068   4.703   8.508  1.1681  2.6831 -0.3555
   23SAPC  C318 3105   3.968   4.786   8.341  0.5872 -0.1870  0.0516
   23SAPC  H18X 3106   3.879   4.852   8.331  0.0866 -1.2036 -2.6526
   23SAPC  H18Y 3107   3.959   4.699   8.272  2.2996  1.5839 -2.4702
   23SAPC  H18Z 3108   4.056   4.846   8.311  2.3967 -1.1427  3.1708
   24SAPC     N 3109   6.063   5.036  11.263 -0.1805  0.0538  0.4279
   24SAPC   C12 3110   6.082   5.083  11.122 -0.3420 -0.4125  0.5761
   24SAPC  H12A 3111   6.049   5.186  11.123 -1.0748 -0.6236 -0.7452
   24SAPC  H12B 3112   6.013   5.033  11.055  2.0233 -1.6008 -1.0058
   24SAPC   C13 3113   6.173   5.096  11.337 -0.0173  0.0911 -0.0619
   24SAPC  H13A 3114   6.176   5.204  11.327  1.8204  0.0881  0.3209
   24SAPC  H13B 3115   6.181   5.065  11.440  1.0783  2.3084  0.5526
   24SAPC  H13C 3116   6.263   5.057  11.291  0.1312  0.8739 -0.4436
   24SAPC   C14 3117   5.927   5.085  11.319  0.0061 -0.3760  0.0380
   24SAPC  H14A 3118   5.896   5.022  11.401  1.4737  1.5127  2.1114
   24SAPC  H14B 3119   5.930   5.185  11.359 -0.5251 -0.5778  0.5976
   24SAPC  H14C 3120   5.857   5.081  11.236  1.0165  1.6536 -0.9460
   24SAPC   C15 3121   6.058   4.891  11.279 -0.0100 -0.5028  0.4265
   24SAPC  H15A 3122   6.140   4.834  11.239 -0.5528  0.7915 -2.6838
   24SAPC  H15B 3123   6.036   4.858  11.380  1.3270  0.0625  0.9175
   24SAPC  H15C 3124   5.972   4.856  11.223  0.2411 -0.1160 -0.1981
   24SAPC   C11 3125   6.221   5.080  11.053 -0.6427  0.6159  0.7598
   24SAPC  H11A 3126   6.294   5.145  11.106 -0.1552 -0.1853  1.0764
   24SAPC  H11B 3127   6.219   5.120  10.949  2.6650 -0.3757  0.2417
   24SAPC     P 3128   6.248   4.848  10.940  0.2656 -0.3979  0.2857
   24SAPC   O13 3129   6.181   4.730  11.009 -0.1680 -0.0650  0.6407
   24SAPC   O14 3130   6.176   4.912  10.831 -0.0883  0.3071 -0.0675
   24SAPC   O12 3131   6.283   4.951  11.059  0.8605  0.6534 -0.1690
   24SAPC   O11 3132   6.391   4.811  10.889  0.0432  0.9177  0.1678
   24SAPC    C1 3133   6.491   4.900  10.839  0.4739 -0.1804 -1.2369
   24SAPC    HA 3134   6.493   4.992  10.902  0.1949  1.2637 -3.2857
   24SAPC    HB 3135   6.588   4.847  10.854  0.3632 -0.1007 -0.2392
   24SAPC    C2 3136   6.475   4.922  10.687 -0.2331  0.1138  1.3515
   24SAPC    HS 3137   6.383   4.983  10.677 -0.1560 -0.1929 -1.7056
   24SAPC   O21 3138   6.462   4.805  10.605  0.1064  0.4043 -0.8226
   24SAPC   C21 3139   6.396   4.824  10.488 -0.4534 -0.0673 -0.3987
   24SAPC   O22 3140   6.318   4.912  10.460 -0.2387 -0.2377 -0.0841
   24SAPC   C22 3141   6.419   4.709  10.391 -0.6183  0.1382  0.5400
   24SAPC   H2R 3142   6.451   4.625  10.457 -0.7023 -0.5295 -0.2613
   24SAPC   H2S 3143   6.322   4.687  10.343 -0.6448  3.0927 -0.8563
   24SAPC    C3 3144   6.606   4.989  10.639 -0.2984  0.6928 -0.8390
   24SAPC    HX 3145   6.691   4.919  10.628  0.0090  1.2324 -1.9706
   24SAPC    HY 3146   6.639   5.053  10.724 -1.8512  0.2819  0.0866
   24SAPC   O31 3147   6.583   5.064  10.517 -0.7719  0.4880 -0.1520
   24SAPC   C31 3148   6.522   5.177  10.528  0.1321 -0.0891  0.1164
   24SAPC   O32 3149   6.482   5.223  10.631 -0.0099 -0.0507  0.0379
   24SAPC   C32 3150   6.499   5.232  10.386  0.3536 -0.4292  0.0950
   24SAPC   H2X 3151   6.451   5.144  10.338 -0.1109  0.6419 -1.4299
   24SAPC   H2Y 3152   6.602   5.255  10.350 -0.5973  1.6185 -1.3752
   24SAPC   C23 3153   6.519   4.730  10.276 -0.5800 -0.2438  0.1926
   24SAPC   H3R 3154   6.536   4.628  10.236  0.8790  0.7111 -1.6805
   24SAPC   H3S 3155   6.618   4.768  10.309 -1.0713 -0.8846  2.4507
   24SAPC   C24 3156   6.478   4.831  10.164 -0.3726  0.0760 -0.4392
   24SAPC   H4R 3157   6.549   4.821  10.079 -1.0126 -1.3632 -0.8041
   24SAPC   H4S 3158   6.498   4.937  10.194  1.0885  0.9523 -4.1836
   24SAPC   C25 3159   6.342   4.819  10.099  0.2308 -0.1188  1.3155
   24SAPC   H5R 3160   6.256   4.850  10.161  0.9315 -0.9350  2.7334
   24SAPC   C26 3161   6.312   4.780   9.973 -0.3475  0.2622 -0.2828
   24SAPC   H6R 3162   6.207   4.780   9.940 -0.4422  0.9408  0.0216
   24SAPC   C27 3163   6.404   4.721   9.863  0.1505  0.0962 -0.1409
   24SAPC   H7R 3164   6.482   4.655   9.907  0.3424  0.9633  0.8213
   24SAPC   H7S 3165   6.463   4.804   9.821  1.7668 -1.3562 -0.7854
   24SAPC   C28 3166   6.342   4.643   9.757 -0.2696  0.6516 -0.1563
   24SAPC   H8R 3167   6.308   4.541   9.782  0.5759  0.7171  1.3206
   24SAPC   C29 3168   6.331   4.675   9.626 -0.3178  0.1146 -0.3158
   24SAPC   H9R 3169   6.287   4.599   9.560 -0.8607  0.6886 -0.6212
   24SAPC  C210 3170   6.381   4.799   9.569 -0.0297 -0.3915 -0.3761
   24SAPC  H10R 3171   6.470   4.845   9.616  0.9669 -2.7273  0.0949
   24SAPC  H10S 3172   6.310   4.880   9.598 -1.1016 -1.4925  0.0995
   24SAPC  C211 3173   6.396   4.791   9.421 -0.7406 -0.0708 -0.0757
   24SAPC  H11R 3174   6.498   4.783   9.382 -0.3041  3.1942  0.3058
   24SAPC  C212 3175   6.294   4.787   9.333  0.5525 -0.2448 -0.6576
   24SAPC  H12R 3176   6.311   4.784   9.224 -1.6882 -0.7392 -1.0198
   24SAPC  C213 3177   6.143   4.788   9.356  0.3081 -0.1758 -0.3887
   24SAPC  H13R 3178   6.085   4.868   9.305 -0.3726  0.4461  1.3404
   24SAPC  H13S 3179   6.126   4.798   9.465  1.8172 -1.5932 -0.0090
   24SAPC  C214 3180   6.091   4.654   9.307 -0.7253 -0.1546 -0.5976
   24SAPC  H14R 3181   6.085   4.568   9.375  1.8343 -0.0940 -0.2441
   24SAPC  C215 3182   6.049   4.626   9.180 -0.5428  0.4318  0.0414
   24SAPC  H15R 3183   6.012   4.525   9.156 -2.3612  1.0162  0.3630
   24SAPC  C216 3184   6.052   4.717   9.063 -0.1745 -0.4749 -0.0947
   24SAPC  H16R 3185   6.099   4.664   8.979 -2.1356 -1.6319 -0.5026
   24SAPC  H16S 3186   6.116   4.806   9.079 -0.8447  0.1874 -1.0081
   24SAPC  C217 3187   5.904   4.751   9.024 -0.5063  0.2428 -0.1675
   24SAPC  H17R 3188   5.902   4.815   8.933 -5.2289 -0.5499 -0.7376
   24SAPC  H17S 3189   5.844   4.806   9.099 -0.2767  2.7417 -1.7451
   24SAPC  C218 3190   5.811   4.627   8.990 -0.7305  0.1234  0.0745
   24SAPC  H18R 3191   5.805   4.563   9.081  0.1737  0.4582  0.3783
   24SAPC  H18S 3192   5.835   4.554   8.909 -0.6987  1.7602 -1.4344
   24SAPC  C219 3193   5.675   4.685   8.943  0.6935 -0.1128  0.4718
   24SAPC  H19R 3194   5.657   4.765   9.018  0.4287  0.6733 -0.4200
   24SAPC  H19S 3195   5.589   4.614   8.947  1.7668 -1.5588 -1.3641
   24SAPC  C220 3196   5.662   4.752   8.805  0.0228 -0.3215  0.1545
   24SAPC  H20R 3197   5.669   4.668   8.733  2.3775  1.0781 -1.3238
   24SAPC  H20S 3198   5.740   4.828   8.785 -0.9693  1.0341  1.3118
   24SAPC  H20T 3199   5.561   4.795   8.795  0.0986 -0.1225  0.2420
   24SAPC   C33 3200   6.418   5.357  10.395  0.0117 -0.6809  0.4094
   24SAPC   H3X 3201   6.455   5.415  10.483 -0.4118  0.3766 -0.0958
   24SAPC   H3Y 3202   6.317   5.320  10.422  1.2357 -3.6613  1.0347
   24SAPC   C34 3203   6.418   5.448  10.270 -0.0236 -0.2813 -0.0226
   24SAPC   H4X 3204   6.523   5.485  10.265 -0.3087  0.7206  0.9963
   24SAPC   H4Y 3205   6.357   5.539  10.287 -3.2410 -2.0076 -1.8854
   24SAPC   C35 3206   6.386   5.375  10.140  0.7590 -0.5628  0.2264
   24SAPC   H5X 3207   6.450   5.286  10.123 -0.9045 -1.8323  0.4891
   24SAPC   H5Y 3208   6.408   5.450  10.061 -1.5587 -0.0519  0.0441
   24SAPC   C36 3209   6.240   5.329  10.130  0.7114  0.3665  0.3963
   24SAPC   H6X 3210   6.176   5.420  10.134 -1.6899 -1.3194  1.6731
   24SAPC   H6Y 3211   6.221   5.260  10.215 -1.4925  0.1085 -0.2697
   24SAPC   C37 3212   6.216   5.241  10.007 -0.1243 -0.6884  0.3237
   24SAPC   H7X 3213   6.291   5.159  10.001  1.2594  0.3815  2.3272
   24SAPC   H7Y 3214   6.239   5.316   9.928  1.2965 -1.6802 -0.2298
   24SAPC   C38 3215   6.078   5.180  10.005 -0.4937  0.3151 -0.4306
   24SAPC   H8X 3216   6.008   5.266  10.012 -1.4634 -0.5733  1.0842
   24SAPC   H8Y 3217   6.059   5.114  10.093  0.0569  1.3390  0.4712
   24SAPC   C39 3218   6.043   5.109   9.877  0.4664  0.0832  0.4205
   24SAPC   H9X 3219   6.115   5.030   9.849  0.2322  0.0745 -0.1787
   24SAPC   H9Y 3220   6.039   5.181   9.792  0.5211  0.0439  0.3833
   24SAPC  C310 3221   5.899   5.054   9.888 -0.4418 -1.0041 -1.0376
   24SAPC  H10X 3222   5.830   5.135   9.922  0.2595 -1.7142  2.1570
   24SAPC  H10Y 3223   5.903   4.979   9.969  2.6302  0.2439  0.0219
   24SAPC  C311 3224   5.849   4.995   9.753 -0.5324  0.4128  0.1387
   24SAPC  H11X 3225   5.881   5.058   9.668  3.0627 -0.3466  0.8667
   24SAPC  H11Y 3226   5.739   4.981   9.741 -0.4849  0.0204  0.1640
   24SAPC  C312 3227   5.907   4.849   9.736  0.4644  0.0919 -0.1307
   24SAPC  H12X 3228   6.015   4.845   9.760  0.4724 -2.8274 -0.4728
   24SAPC  H12Y 3229   5.911   4.824   9.627  0.6447  2.6231 -0.7289
   24SAPC  C313 3230   5.834   4.742   9.819 -0.3303  0.3080 -0.1920
   24SAPC  H13X 3231   5.734   4.707   9.785 -0.8682 -0.1292  1.7463
   24SAPC  H13Y 3232   5.826   4.781   9.923 -2.7242  0.2797 -0.3220
   24SAPC  C314 3233   5.916   4.613   9.832  0.7150  0.0594 -0.1403
   24SAPC  H14X 3234   6.008   4.653   9.880  1.3580 -3.2827  1.5381
   24SAPC  H14Y 3235   5.938   4.582   9.728 -0.9036  0.6102 -0.6745
   24SAPC  C315 3236   5.844   4.503   9.906  0.5442 -0.0990 -0.2939
   24SAPC  H15X 3237   5.913   4.419   9.883  1.5335  0.6806 -0.2069
   24SAPC  H15Y 3238   5.746   4.493   9.854  0.5143  0.0087 -0.2545
   24SAPC  C316 3239   5.838   4.533  10.053  0.0589  0.2785  0.2387
   24SAPC  H16X 3240   5.752   4.603  10.060 -0.6211 -0.4689 -0.6049
   24SAPC  H16Y 3241   5.925   4.600  10.074  0.8450  0.4085 -3.1104
   24SAPC  C317 3242   5.824   4.422  10.154  0.1098  0.0239 -0.3489
   24SAPC  H17X 3243   5.799   4.444  10.260  0.9636  1.6034 -0.4560
   24SAPC  H17Y 3244   5.926   4.378  10.155  0.2728  0.3997 -0.3640
   24SAPC  C318 3245   5.719   4.314  10.118 -0.1150 -0.2081  0.1667
   24SAPC  H18X 3246   5.616   4.335  10.153 -0.8545 -3.2393 -0.0971
   24SAPC  H18Y 3247   5.734   4.214  10.164 -1.0612 -0.6019 -0.3716
   24SAPC  H18Z 3248   5.709   4.294  10.009  2.4149 -0.2158 -0.0980
   25SAPC     N 3249   2.065   1.961   5.843 -0.2672 -0.2246 -0.2941
   25SAPC   C12 3250   2.019   1.919   5.980  0.4351  0.3974  0.6493
   25SAPC  H12A 3251   2.096   1.854   6.020 -1.7595 -2.0136  1.0689
   25SAPC  H12B 3252   1.936   1.850   5.979 -0.6570  1.6928  0.1963
   25SAPC   C13 3253   2.201   2.036   5.857  0.2372  0.2472  0.3827
   25SAPC  H13A 3254   2.197   2.131   5.910 -0.4385 -0.7785  2.2196
   25SAPC  H13B 3255   2.270   1.970   5.908  0.0638  0.5130  0.9748
   25SAPC  H13C 3256   2.256   2.060   5.767 -0.4001 -1.8386 -0.5869
   25SAPC   C14 3257   2.100   1.836   5.764 -0.8621 -0.1474 -0.0981
   25SAPC  H14A 3258   2.160   1.776   5.830 -1.4853  0.6370  1.1847
   25SAPC  H14B 3259   2.009   1.778   5.754 -0.0982 -1.4884  0.6012
   25SAPC  H14C 3260   2.149   1.866   5.672  0.2949 -0.3200  0.4534
   25SAPC   C15 3261   1.968   2.030   5.761  0.5557  0.2338 -0.0625
   25SAPC  H15A 3262   1.945   2.131   5.792  1.9508  0.8356 -0.9102
   25SAPC  H15B 3263   2.013   2.045   5.664 -4.1224 -1.8437 -2.6990
   25SAPC  H15C 3264   1.876   1.975   5.749  1.5285 -1.5569  0.4657
   25SAPC   C11 3265   1.988   2.038   6.075  0.0777 -0.0583  0.1783
   25SAPC  H11A 3266   2.084   2.091   6.095  0.0125 -0.3260  1.2511
   25SAPC  H11B 3267   1.978   1.987   6.173 -0.2914 -2.1172 -0.9053
   25SAPC     P 3268   1.732   2.075   6.070  0.3840 -0.2298  0.0106
   25SAPC   O13 3269   1.639   2.134   5.974  0.0192 -0.1255 -0.3120
   25SAPC   O14 3270   1.728   1.923   6.067  0.3522 -0.2949 -0.5464
   25SAPC   O12 3271   1.876   2.120   6.037 -0.4716 -0.3722 -0.0246
   25SAPC   O11 3272   1.701   2.122   6.213 -0.0598 -0.1211 -0.5900
   25SAPC    C1 3273   1.717   2.257   6.248  0.2040  0.7046 -0.2603
   25SAPC    HA 3274   1.672   2.326   6.174 -0.1601  1.3807  0.5927
   25SAPC    HB 3275   1.647   2.271   6.333 -0.1837  1.0644 -0.6366
   25SAPC    C2 3276   1.866   2.289   6.299 -0.6728  0.5979 -0.5602
   25SAPC    HS 3277   1.922   2.286   6.203 -2.8306  0.6797 -1.8477
   25SAPC   O21 3278   1.909   2.176   6.387  0.1153 -0.2107  1.1083
   25SAPC   C21 3279   2.037   2.167   6.416 -0.9786 -0.1972 -0.2523
   25SAPC   O22 3280   2.134   2.224   6.363 -0.1387 -0.2334  0.4595
   25SAPC   C22 3281   2.050   2.070   6.533 -0.1002  0.3974  0.4656
   25SAPC   H2R 3282   1.985   1.980   6.520  0.3208  0.2336 -0.6191
   25SAPC   H2S 3283   2.155   2.034   6.528 -0.1216  0.5727 -1.7222
   25SAPC    C3 3284   1.880   2.431   6.363  0.0848  0.2863  0.3392
   25SAPC    HX 3285   1.809   2.443   6.449 -0.1161 -0.8049  0.3301
   25SAPC    HY 3286   1.832   2.501   6.291  1.6917  1.5780  0.4884
   25SAPC   O31 3287   2.005   2.466   6.428 -0.6544  0.0199  0.5452
   25SAPC   C31 3288   2.103   2.508   6.338 -0.5762  0.1362  0.3717
   25SAPC   O32 3289   2.088   2.497   6.215 -0.1378 -0.2594  0.1981
   25SAPC   C32 3290   2.220   2.578   6.407 -0.1001 -0.9706  1.1699
   25SAPC   H2X 3291   2.179   2.648   6.482 -1.4242  1.0219 -1.3251
   25SAPC   H2Y 3292   2.271   2.636   6.327 -0.1683 -3.6496 -0.8968
   25SAPC   C23 3293   2.013   2.136   6.672  0.0117  0.4175 -0.4616
   25SAPC   H3R 3294   1.929   2.206   6.655 -1.5167 -2.3525 -5.0961
   25SAPC   H3S 3295   2.104   2.190   6.706  3.0523 -3.9889 -1.2089
   25SAPC   C24 3296   1.968   2.038   6.780 -0.2690 -0.1415 -0.3320
   25SAPC   H4R 3297   1.868   1.995   6.758 -0.2152 -0.1442 -0.5668
   25SAPC   H4S 3298   1.954   2.096   6.874 -0.1240 -0.1323 -0.3155
   25SAPC   C25 3299   2.071   1.935   6.797  0.5252  0.0456  0.2273
   25SAPC   H5R 3300   2.107   1.886   6.706 -1.9841  0.9113 -1.2951
   25SAPC   C26 3301   2.133   1.892   6.912 -0.0905 -0.4545  0.1086
   25SAPC   H6R 3302   2.203   1.806   6.909 -0.4012 -0.7002 -0.2472
   25SAPC   C27 3303   2.098   1.951   7.047  0.5404 -0.4313 -0.5947
   25SAPC   H7R 3304   1.987   1.960   7.043  0.3565 -2.1427  0.0320
   25SAPC   H7S 3305   2.121   2.058   7.060  0.0168 -0.2953 -0.7818
   25SAPC   C28 3306   2.152   1.878   7.171  0.3747  0.1997  0.2719
   25SAPC   H8R 3307   2.237   1.811   7.150 -0.8960 -1.0451 -0.9349
   25SAPC   C29 3308   2.092   1.869   7.293  0.0062 -0.9936  0.0358
   25SAPC   H9R 3309   2.129   1.797   7.368  2.2038 -1.0397 -1.0661
   25SAPC  C210 3310   1.963   1.935   7.334 -0.9034  0.3622 -0.1441
   25SAPC  H10R 3311   1.887   1.857   7.350 -0.4068  0.1111  1.0893
   25SAPC  H10S 3312   1.927   2.000   7.252 -0.3237  1.5413  0.5085
   25SAPC  C211 3313   1.996   2.014   7.457  0.3544  0.0703 -0.2029
   25SAPC  H11R 3314   2.071   2.092   7.440  0.3271 -0.2365 -1.7719
   25SAPC  C212 3315   1.959   1.991   7.585 -0.2998  0.2338  0.0176
   25SAPC  H12R 3316   1.984   2.077   7.648 -0.5026  1.1461 -1.1371
   25SAPC  C213 3317   1.858   1.883   7.624 -0.2885 -0.4181 -0.0531
   25SAPC  H13R 3318   1.913   1.798   7.670 -0.2763 -0.9452 -1.0162
   25SAPC  H13S 3319   1.801   1.844   7.537 -3.3279 -0.5559  1.9139
   25SAPC  C214 3320   1.764   1.941   7.728  0.6951 -0.5624 -0.2850
   25SAPC  H14R 3321   1.718   2.034   7.690  1.1626  0.3007  1.2253
   25SAPC  C215 3322   1.744   1.899   7.851 -0.2307 -0.1592  0.1400
   25SAPC  H15R 3323   1.671   1.954   7.912  1.3072 -0.3873  2.2084
   25SAPC  C216 3324   1.815   1.787   7.921  0.3971 -0.2826 -0.0828
   25SAPC  H16R 3325   1.916   1.816   7.957  0.6928 -2.3922  0.8816
   25SAPC  H16S 3326   1.832   1.705   7.849  0.1456  0.5529 -1.1071
   25SAPC  C217 3327   1.759   1.738   8.054 -0.2428  0.5027  0.2482
   25SAPC  H17R 3328   1.648   1.745   8.057 -0.1731  1.2076  2.9347
   25SAPC  H17S 3329   1.811   1.785   8.140 -1.8378  1.4160  0.7393
   25SAPC  C218 3330   1.801   1.587   8.061  0.0731 -0.6569 -0.3974
   25SAPC  H18R 3331   1.911   1.576   8.071 -0.1801 -1.4467  1.9393
   25SAPC  H18S 3332   1.768   1.542   7.965 -0.4400 -3.3704  0.9931
   25SAPC  C219 3333   1.722   1.512   8.170  0.8171  1.0667 -0.0605
   25SAPC  H19R 3334   1.755   1.409   8.146  1.1990  0.7625  1.6392
   25SAPC  H19S 3335   1.611   1.511   8.159  0.9794 -0.1080 -1.6308
   25SAPC  C220 3336   1.751   1.531   8.319  0.4767 -0.1933  0.2167
   25SAPC  H20R 3337   1.860   1.532   8.337  0.4615 -1.5397  0.4502
   25SAPC  H20S 3338   1.712   1.444   8.376 -2.2147  0.6928 -0.2004
   25SAPC  H20T 3339   1.720   1.628   8.363  0.5757  0.4300 -1.0811
   25SAPC   C33 3340   2.313   2.477   6.481 -0.5076  0.3222 -0.3642
   25SAPC   H3X 3341   2.344   2.407   6.400  1.6569  1.2334 -0.3645
   25SAPC   H3Y 3342   2.247   2.424   6.553  0.5356  1.1528  1.2469
   25SAPC   C34 3343   2.432   2.541   6.562  0.7060 -0.0792 -0.0951
   25SAPC   H4X 3344   2.403   2.622   6.632 -0.7935  1.0672 -1.9962
   25SAPC   H4Y 3345   2.499   2.592   6.489  1.0912  0.8751  0.9089
   25SAPC   C35 3346   2.517   2.430   6.627  0.2118  0.4735 -0.5005
   25SAPC   H5X 3347   2.598   2.485   6.678  0.6501 -1.5298  1.0033
   25SAPC   H5Y 3348   2.556   2.373   6.540 -2.5445  0.7772 -2.0224
   25SAPC   C36 3349   2.449   2.336   6.731  0.1979 -0.2168 -0.6592
   25SAPC   H6X 3350   2.525   2.259   6.758 -0.1125 -0.2867  0.0528
   25SAPC   H6Y 3351   2.361   2.279   6.693 -1.3001  0.8782  1.0540
   25SAPC   C37 3352   2.379   2.416   6.844 -0.2497 -0.4377  0.4968
   25SAPC   H7X 3353   2.284   2.456   6.802 -0.4242 -1.8124 -0.4373
   25SAPC   H7Y 3354   2.456   2.493   6.869 -0.3891 -0.0956 -0.1114
   25SAPC   C38 3355   2.361   2.325   6.965 -0.0138  0.5933 -0.2971
   25SAPC   H8X 3356   2.449   2.258   6.965  0.0221  0.6381  0.5065
   25SAPC   H8Y 3357   2.267   2.269   6.949 -1.0505  2.8211 -2.4469
   25SAPC   C39 3358   2.351   2.405   7.092  0.1107  0.0374  0.2149
   25SAPC   H9X 3359   2.250   2.450   7.103  0.2477  0.4026 -0.0323
   25SAPC   H9Y 3360   2.414   2.497   7.097  0.7077 -0.4410  2.0265
   25SAPC  C310 3361   2.372   2.316   7.215  0.0690  0.7334  0.0908
   25SAPC  H10X 3362   2.481   2.307   7.235  0.6126 -0.0544 -2.9647
   25SAPC  H10Y 3363   2.327   2.217   7.189  0.6817  0.7991 -1.2310
   25SAPC  C311 3364   2.310   2.374   7.343 -0.3098  0.2490  0.0222
   25SAPC  H11X 3365   2.201   2.356   7.349 -0.0861 -0.5221  2.1455
   25SAPC  H11Y 3366   2.318   2.484   7.355 -0.7562  0.2623  0.2226
   25SAPC  C312 3367   2.374   2.309   7.469  0.1235 -0.4959  0.4837
   25SAPC  H12X 3368   2.485   2.306   7.466  0.0785 -0.7913 -0.8270
   25SAPC  H12Y 3369   2.333   2.206   7.472  1.0753 -0.9371 -0.9419
   25SAPC  C313 3370   2.334   2.393   7.587  0.5096  0.2210  0.9252
   25SAPC  H13X 3371   2.223   2.403   7.589  0.5114  0.0796  1.8060
   25SAPC  H13Y 3372   2.368   2.498   7.573 -0.0901  0.0957 -1.9046
   25SAPC  C314 3373   2.381   2.338   7.721 -0.1955  0.3469  0.2364
   25SAPC  H14X 3374   2.491   2.348   7.719 -0.0613 -1.0787 -2.0756
   25SAPC  H14Y 3375   2.350   2.231   7.726  3.1463 -0.6427  1.2378
   25SAPC  C315 3376   2.319   2.415   7.850  0.3346  0.3412  0.0861
   25SAPC  H15X 3377   2.209   2.405   7.849  0.3749 -0.0330 -1.5616
   25SAPC  H15Y 3378   2.343   2.524   7.859 -2.1194  0.7935  1.6058
   25SAPC  C316 3379   2.382   2.351   7.978 -0.0825 -0.0463  0.4732
   25SAPC  H16X 3380   2.489   2.330   7.957  0.4798  2.3446  0.8634
   25SAPC  H16Y 3381   2.341   2.249   7.960  1.5588 -0.6883  0.2766
   25SAPC  C317 3382   2.346   2.410   8.115 -0.1430 -0.4286 -0.3772
   25SAPC  H17X 3383   2.236   2.420   8.127 -0.2262 -3.5226  1.8736
   25SAPC  H17Y 3384   2.388   2.513   8.120  0.5689 -0.5310 -3.0771
   25SAPC  C318 3385   2.391   2.328   8.236 -0.0999 -0.3214 -0.3815
   25SAPC  H18X 3386   2.316   2.270   8.293  0.9273 -0.3688  0.9506
   25SAPC  H18Y 3387   2.442   2.403   8.300 -2.6283  1.6973 -0.6893
   25SAPC  H18Z 3388   2.473   2.262   8.200  0.1065 -0.7001  0.7640
   26SAPC     N 3389   2.525   4.569   6.099  0.8345  0.1096  0.3288
   26SAPC   C12 3390   2.403   4.489   6.070  0.4804 -0.0206  0.1285
   26SAPC  H12A 3391   2.401   4.477   5.963 -0.4888  2.1330 -0.1246
   26SAPC  H12B 3392   2.316   4.544   6.102  0.6564  1.0199 -1.1708
   26SAPC   C13 3393   2.651   4.502   6.061 -0.1860 -0.3754 -0.2178
   26SAPC  H13A 3394   2.657   4.403   6.103 -3.0344 -1.2503 -1.7705
   26SAPC  H13B 3395   2.664   4.481   5.956 -1.7635  0.5088 -0.6062
   26SAPC  H13C 3396   2.742   4.547   6.099  0.1191  3.2228 -4.7719
   26SAPC   C14 3397   2.518   4.701   6.025 -0.5178 -0.0859  0.7085
   26SAPC  H14A 3398   2.488   4.682   5.923  1.0411  1.4127 -0.0469
   26SAPC  H14B 3399   2.456   4.777   6.071  1.7052  1.4215  1.3053
   26SAPC  H14C 3400   2.612   4.753   6.019  1.4965 -3.7556 -1.8547
   26SAPC   C15 3401   2.525   4.604   6.240 -0.1832  0.0266 -0.0942
   26SAPC  H15A 3402   2.498   4.514   6.294 -1.8697  1.6098  1.8299
   26SAPC  H15B 3403   2.619   4.650   6.265 -0.0117  0.8722 -2.2461
   26SAPC  H15C 3404   2.448   4.673   6.273 -0.6741 -0.8373  0.5828
   26SAPC   C11 3405   2.387   4.353   6.147 -0.2729 -0.2747 -0.6867
   26SAPC  H11A 3406   2.472   4.286   6.123  0.3996 -0.1427  1.2858
   26SAPC  H11B 3407   2.297   4.313   6.095  0.0172 -1.5113 -0.2367
   26SAPC     P 3408   2.242   4.426   6.357 -0.4974 -0.0213  0.3885
   26SAPC   O13 3409   2.273   4.466   6.492 -0.5501 -0.0640 -0.6914
   26SAPC   O14 3410   2.186   4.531   6.270  0.1271 -0.5962 -0.3061
   26SAPC   O12 3411   2.367   4.360   6.284  0.2155 -1.0531 -0.3319
   26SAPC   O11 3412   2.152   4.294   6.355 -0.7323  0.5968  0.4951
   26SAPC    C1 3413   2.035   4.260   6.427 -0.0566 -0.2637 -0.0260
   26SAPC    HA 3414   1.979   4.354   6.448 -2.7990 -1.9544  0.4191
   26SAPC    HB 3415   1.964   4.196   6.371 -2.9761  1.5303  1.4475
   26SAPC    C2 3416   2.080   4.197   6.559  0.3266 -1.0804 -0.2430
   26SAPC    HS 3417   2.174   4.248   6.591 -1.4851  0.4629  2.8167
   26SAPC   O21 3418   2.101   4.058   6.539 -0.4424 -0.4092  0.8009
   26SAPC   C21 3419   2.196   3.996   6.614  0.2224 -0.6896 -0.5501
   26SAPC   O22 3420   2.277   4.052   6.683 -0.4646  0.7328 -0.2211
   26SAPC   C22 3421   2.187   3.850   6.591  0.5113 -0.3198  0.0824
   26SAPC   H2R 3422   2.180   3.830   6.482  2.9691  1.9098 -0.5313
   26SAPC   H2S 3423   2.285   3.804   6.616  0.0906 -1.0510  0.3955
   26SAPC    C3 3424   1.968   4.208   6.673  0.0644 -0.0616  0.2928
   26SAPC    HX 3425   1.888   4.135   6.649  0.3695 -0.3264  0.0791
   26SAPC    HY 3426   1.928   4.312   6.678  0.7248  0.1922  0.3425
   26SAPC   O31 3427   2.022   4.163   6.802 -0.2628  0.2231  0.1466
   26SAPC   C31 3428   2.093   4.257   6.869  1.1672 -0.7729  0.0621
   26SAPC   O32 3429   2.108   4.373   6.829 -0.1578  0.0808 -0.1119
   26SAPC   C32 3430   2.147   4.195   6.998 -0.1038  0.2403 -0.3686
   26SAPC   H2X 3431   2.246   4.146   6.986  0.2083  0.1776  2.1091
   26SAPC   H2Y 3432   2.081   4.109   7.026  1.0332 -1.3051 -2.3153
   26SAPC   C23 3433   2.074   3.775   6.663  0.5982  0.2799  0.4349
   26SAPC   H3R 3434   2.065   3.675   6.617 -3.2905  0.1496  1.3059
   26SAPC   H3S 3435   1.975   3.825   6.650  0.4718  0.2452  1.2136
   26SAPC   C24 3436   2.103   3.774   6.814 -0.4607 -0.2651  0.4602
   26SAPC   H4R 3437   2.100   3.881   6.842  0.8539  0.6623 -2.6982
   26SAPC   H4S 3438   2.203   3.725   6.825  1.7684  3.1848 -2.9061
   26SAPC   C25 3439   2.003   3.698   6.886  0.5180  0.5781  0.2865
   26SAPC   H5R 3440   1.907   3.684   6.835  0.1492  0.4705  0.9969
   26SAPC   C26 3441   2.009   3.651   7.016 -0.1898  0.0009 -0.2344
   26SAPC   H6R 3442   1.925   3.597   7.061 -1.7444  1.7270 -0.9726
   26SAPC   C27 3443   2.131   3.653   7.110 -0.2514 -0.7587  0.3655
   26SAPC   H7R 3444   2.220   3.665   7.045 -1.7406  0.2559 -1.5409
   26SAPC   H7S 3445   2.132   3.558   7.169  0.2369 -0.1745  1.3188
   26SAPC   C28 3446   2.133   3.773   7.198  0.4416 -0.0258 -0.0626
   26SAPC   H8R 3447   2.107   3.869   7.152  0.6479 -0.8965 -2.0744
   26SAPC   C29 3448   2.173   3.781   7.323 -0.2361 -0.1688  0.8957
   26SAPC   H9R 3449   2.149   3.874   7.377  0.6677  0.1676  0.7215
   26SAPC  C210 3450   2.218   3.671   7.415  0.1064  0.7782  0.3070
   26SAPC  H10R 3451   2.319   3.696   7.453  0.1304 -0.1644  0.8927
   26SAPC  H10S 3452   2.249   3.589   7.346  1.3347 -0.2142  1.9841
   26SAPC  C211 3453   2.126   3.624   7.523 -0.0727 -0.0566  0.1319
   26SAPC  H11R 3454   2.060   3.544   7.484 -0.9487  1.2314 -1.1000
   26SAPC  C212 3455   2.135   3.657   7.652  0.5831 -0.2488 -0.7220
   26SAPC  H12R 3456   2.057   3.611   7.715  1.5986 -1.6290 -0.4528
   26SAPC  C213 3457   2.227   3.751   7.729  0.7616  0.6246 -0.2840
   26SAPC  H13R 3458   2.249   3.843   7.672  1.1645  1.3599  1.0205
   26SAPC  H13S 3459   2.318   3.690   7.748  1.6006  1.9279 -0.0466
   26SAPC  C214 3460   2.183   3.797   7.867  0.9329 -1.0664  0.8007
   26SAPC  H14R 3461   2.148   3.901   7.870 -0.9239 -1.5833 -1.7276
   26SAPC  C215 3462   2.191   3.736   7.984 -0.2445  0.3407  0.8624
   26SAPC  H15R 3463   2.157   3.784   8.077 -2.5530  2.3819 -0.9659
   26SAPC  C216 3464   2.235   3.592   8.010  0.6548  0.4986 -0.1024
   26SAPC  H16R 3465   2.234   3.535   7.915 -1.2911  1.0231 -0.4085
   26SAPC  H16S 3466   2.187   3.539   8.094  1.4894  0.9221  0.6473
   26SAPC  C217 3467   2.386   3.587   8.050 -0.4467 -0.2795 -0.4794
   26SAPC  H17R 3468   2.418   3.667   8.121 -1.4739 -0.0950 -0.2238
   26SAPC  H17S 3469   2.453   3.591   7.961 -0.2797 -2.0142 -0.4448
   26SAPC  C218 3470   2.427   3.452   8.115  0.7556 -0.2228 -0.3710
   26SAPC  H18R 3471   2.362   3.414   8.197 -0.0948  2.5431  0.2872
   26SAPC  H18S 3472   2.530   3.465   8.154  0.4456 -0.4826  0.5479
   26SAPC  C219 3473   2.430   3.346   8.011 -0.2119 -0.5763 -0.2733
   26SAPC  H19R 3474   2.529   3.355   7.963 -0.9809 -2.1181 -2.2442
   26SAPC  H19S 3475   2.356   3.373   7.932  1.2785  1.2130 -1.0960
   26SAPC  C220 3476   2.413   3.206   8.066 -0.1256  0.0028  0.8628
   26SAPC  H20R 3477   2.313   3.189   8.111 -0.7837 -1.4880 -1.0696
   26SAPC  H20S 3478   2.487   3.163   8.137 -0.8304  0.2306  1.7355
   26SAPC  H20T 3479   2.419   3.134   7.981  0.1614  2.6238 -1.4173
   26SAPC   C33 3480   2.166   4.296   7.109  0.1594  0.1445 -0.7278
   26SAPC   H3X 3481   2.091   4.378   7.109 -0.7040 -0.5723  2.5253
   26SAPC   H3Y 3482   2.258   4.355   7.089  1.0221 -1.0125 -0.2311
   26SAPC   C34 3483   2.179   4.213   7.239  0.0230 -0.1782  0.6471
   26SAPC   H4X 3484   2.260   4.138   7.240  0.2402  0.0549  1.2769
   26SAPC   H4Y 3485   2.087   4.154   7.261 -1.8646  1.7613 -1.6914
   26SAPC   C35 3486   2.195   4.295   7.371  0.4090 -0.3047 -0.2412
   26SAPC   H5X 3487   2.089   4.328   7.377  0.7805  0.6036  1.6818
   26SAPC   H5Y 3488   2.267   4.374   7.342 -0.3999  0.0004 -1.4457
   26SAPC   C36 3489   2.222   4.205   7.492  0.1023 -0.2840 -0.5517
   26SAPC   H6X 3490   2.326   4.168   7.480  0.4938  0.5456  0.1577
   26SAPC   H6Y 3491   2.149   4.121   7.501  0.5396 -0.4009  2.4467
   26SAPC   C37 3492   2.210   4.299   7.618 -0.1589  0.0296  0.2557
   26SAPC   H7X 3493   2.113   4.353   7.617 -0.6734 -0.8101  2.8386
   26SAPC   H7Y 3494   2.284   4.381   7.608  2.3569 -2.3606 -1.6855
   26SAPC   C38 3495   2.209   4.223   7.750  0.4640 -0.8680 -1.2313
   26SAPC   H8X 3496   2.308   4.173   7.757  0.1378 -1.5607 -1.5308
   26SAPC   H8Y 3497   2.129   4.145   7.750 -0.6250  0.2266 -2.4966
   26SAPC   C39 3498   2.173   4.308   7.871  0.1022 -0.3368  0.6893
   26SAPC   H9X 3499   2.073   4.276   7.909 -0.7326 -0.0482 -1.2147
   26SAPC   H9Y 3500   2.162   4.415   7.842  1.2494 -0.5616 -0.6258
   26SAPC  C310 3501   2.273   4.288   7.987 -0.4979  0.3130  0.0115
   26SAPC  H10X 3502   2.255   4.354   8.074 -2.2523  2.7286 -2.0987
   26SAPC  H10Y 3503   2.372   4.316   7.946 -1.9043  1.3525 -2.9025
   26SAPC  C311 3504   2.279   4.145   8.043  0.5106  0.6460  0.2252
   26SAPC  H11X 3505   2.298   4.072   7.961  0.9507 -0.0286  0.9297
   26SAPC  H11Y 3506   2.171   4.126   8.061  0.4754  0.7410  0.1180
   26SAPC  C312 3507   2.355   4.110   8.173 -0.2956 -0.1895  0.2974
   26SAPC  H12X 3508   2.456   4.155   8.181 -1.0117  1.2327  1.4968
   26SAPC  H12Y 3509   2.360   3.999   8.181 -1.9359 -0.1208  2.8885
   26SAPC  C313 3510   2.287   4.162   8.306 -0.0196  0.1432 -0.0845
   26SAPC  H13X 3511   2.186   4.114   8.309 -1.1998  2.4590 -1.3532
   26SAPC  H13Y 3512   2.284   4.273   8.315 -1.6469  0.2036 -1.0696
   26SAPC  C314 3513   2.368   4.127   8.426  0.1642  0.6250 -0.9282
   26SAPC  H14X 3514   2.454   4.195   8.444  1.6530 -1.1144 -1.2142
   26SAPC  H14Y 3515   2.406   4.022   8.429  0.0508  0.6358  2.0231
   26SAPC  C315 3516   2.287   4.159   8.553  0.3338  0.5250 -0.7077
   26SAPC  H15X 3517   2.197   4.095   8.553  1.4900 -1.1385  1.2397
   26SAPC  H15Y 3518   2.254   4.265   8.554 -1.5115 -0.0484  0.5930
   26SAPC  C316 3519   2.372   4.135   8.676 -0.0375  0.2424 -0.1315
   26SAPC  H16X 3520   2.465   4.192   8.695 -1.8347  3.6254 -1.0984
   26SAPC  H16Y 3521   2.418   4.035   8.661 -0.5564 -0.2578  1.4857
   26SAPC  C317 3522   2.286   4.130   8.804 -0.7481  0.0901 -0.0157
   26SAPC  H17X 3523   2.234   4.032   8.817  0.2179 -0.2394  1.4711
   26SAPC  H17Y 3524   2.213   4.214   8.803 -1.2499 -0.3410 -3.0130
   26SAPC  C318 3525   2.369   4.146   8.932  0.4492  0.2683  0.5746
   26SAPC  H18X 3526   2.413   4.247   8.924 -2.3716  1.4783 -0.3724
   26SAPC  H18Y 3527   2.443   4.063   8.934 -0.6706 -0.8126 -0.9849
   26SAPC  H18Z 3528   2.310   4.162   9.024 -2.9119 -1.5803 -1.1545
   27SAPC     N 3529   6.791   4.931   6.561 -0.2927 -0.3310  0.5943
   27SAPC   C12 3530   6.778   4.926   6.710 -0.1732  0.4272 -0.1921
   27SAPC  H12A 3531   6.677   4.944   6.742 -0.4378  0.6269 -1.1372
   27SAPC  H12B 3532   6.833   5.010   6.749  0.2688 -0.4441  1.1387
   27SAPC   C13 3533   6.749   4.802   6.497 -0.0394 -0.0817 -0.1608
   27SAPC  H13A 3534   6.743   4.807   6.389 -1.7937  1.1172 -0.0348
   27SAPC  H13B 3535   6.799   4.713   6.531 -0.9494 -1.0255 -1.2215
   27SAPC  H13C 3536   6.651   4.779   6.537  0.4488 -0.6265  0.7288
   27SAPC   C14 3537   6.690   5.030   6.493  0.0865  0.0070 -0.0229
   27SAPC  H14A 3538   6.691   5.123   6.548  2.2193  0.8285 -1.4016
   27SAPC  H14B 3539   6.721   5.065   6.396  1.1552  0.9349  0.6355
   27SAPC  H14C 3540   6.589   4.993   6.506 -0.0135  0.8489  1.7591
   27SAPC   C15 3541   6.931   4.951   6.511 -0.3805 -0.2887  0.1064
   27SAPC  H15A 3542   6.995   4.878   6.560 -0.4514 -0.1071  0.4703
   27SAPC  H15B 3543   6.942   4.921   6.408  0.0773 -0.8494  0.3092
   27SAPC  H15C 3544   6.980   5.043   6.539 -0.6723 -0.1874  0.2824
   27SAPC   C11 3545   6.823   4.793   6.781 -0.4113 -0.2443 -0.1831
   27SAPC  H11A 3546   6.757   4.707   6.756 -2.1405  0.6088  1.4063
   27SAPC  H11B 3547   6.836   4.806   6.890 -0.0426  2.1982 -0.4986
   27SAPC     P 3548   7.046   4.660   6.806 -0.5189 -0.0029 -0.2627
   27SAPC   O13 3549   7.125   4.588   6.705 -0.1178  0.4323 -0.0062
   27SAPC   O14 3550   7.128   4.726   6.904 -0.2799 -0.0197  0.5344
   27SAPC   O12 3551   6.955   4.765   6.738  0.1589 -0.6436 -0.5846
   27SAPC   O11 3552   6.944   4.561   6.874  0.2986 -1.2050  0.1247
   27SAPC    C1 3553   6.885   4.460   6.793 -0.2586 -0.3065 -0.6122
   27SAPC    HA 3554   6.794   4.506   6.750  0.7005  0.6408 -1.6924
   27SAPC    HB 3555   6.941   4.432   6.701  0.7808  1.7541 -0.6376
   27SAPC    C2 3556   6.852   4.337   6.879 -0.6267 -0.3344 -0.1900
   27SAPC    HS 3557   6.770   4.275   6.838 -1.2351 -0.4289  1.1359
   27SAPC   O21 3558   6.823   4.373   7.014 -0.7555  0.6163 -0.4622
   27SAPC   C21 3559   6.698   4.398   7.049 -0.4420 -0.4433  0.3437
   27SAPC   O22 3560   6.600   4.390   6.980  0.0580  0.5812 -0.6717
   27SAPC   C22 3561   6.703   4.437   7.197 -0.7460 -0.3598 -0.7266
   27SAPC   H2R 3562   6.756   4.534   7.209  1.7070 -1.7453  0.0194
   27SAPC   H2S 3563   6.600   4.463   7.231 -0.2088  1.7365 -0.6109
   27SAPC    C3 3564   6.977   4.238   6.892  0.0667  0.2416 -0.3991
   27SAPC    HX 3565   7.065   4.283   6.942  0.2042 -1.2558  0.7293
   27SAPC    HY 3566   7.012   4.220   6.788  3.1812  1.7992  0.3277
   27SAPC   O31 3567   6.935   4.112   6.953  0.0584 -0.4189 -0.4080
   27SAPC   C31 3568   7.028   4.017   6.954  0.3264  0.4140 -0.1906
   27SAPC   O32 3569   7.146   4.034   6.934 -0.1571  0.6155  0.3685
   27SAPC   C32 3570   6.963   3.886   6.981  0.2799 -0.1527 -0.4661
   27SAPC   H2X 3571   6.901   3.842   6.900 -1.4693  0.0162  0.7617
   27SAPC   H2Y 3572   6.899   3.909   7.068  0.5571 -1.9919  0.2465
   27SAPC   C23 3573   6.763   4.341   7.295 -0.5219  0.0505 -0.4946
   27SAPC   H3R 3574   6.753   4.395   7.392  0.8942  1.2493 -0.9884
   27SAPC   H3S 3575   6.872   4.352   7.275 -0.5433  0.1953 -0.5368
   27SAPC   C24 3576   6.701   4.203   7.317 -0.9977  0.4200  0.4732
   27SAPC   H4R 3577   6.663   4.165   7.220 -1.0980 -0.3550  0.8100
   27SAPC   H4S 3578   6.614   4.224   7.383 -2.5840  0.2531 -1.4974
   27SAPC   C25 3579   6.808   4.113   7.369 -0.0595  0.1373 -0.4281
   27SAPC   H5R 3580   6.877   4.079   7.290 -0.9731 -2.0993 -0.2880
   27SAPC   C26 3581   6.824   4.072   7.492 -0.1527  0.3115 -0.3672
   27SAPC   H6R 3582   6.901   4.000   7.524  1.7814  2.6585  0.4309
   27SAPC   C27 3583   6.733   4.098   7.612 -0.0366  0.0257  0.5757
   27SAPC   H7R 3584   6.776   4.032   7.691  3.1028 -0.1744 -1.2045
   27SAPC   H7S 3585   6.628   4.065   7.599 -0.2985  0.6024  1.1333
   27SAPC   C28 3586   6.734   4.243   7.656  1.2672 -0.1884  1.3629
   27SAPC   H8R 3587   6.807   4.308   7.606 -0.8254  1.0014 -0.2412
   27SAPC   C29 3588   6.675   4.293   7.761  0.4322 -0.6464  0.0467
   27SAPC   H9R 3589   6.688   4.397   7.794 -0.1551 -0.4500 -0.3140
   27SAPC  C210 3590   6.589   4.214   7.859 -0.0165 -0.1127 -0.2283
   27SAPC  H10R 3591   6.649   4.212   7.952  3.0137  1.7059 -2.0796
   27SAPC  H10S 3592   6.567   4.109   7.829 -0.4417 -0.2166  0.4271
   27SAPC  C211 3593   6.454   4.286   7.875 -0.0110  0.9780 -0.0250
   27SAPC  H11R 3594   6.392   4.287   7.784  1.3143 -0.3486 -0.9572
   27SAPC  C212 3595   6.399   4.338   7.984  0.1413 -0.1568 -0.3247
   27SAPC  H12R 3596   6.296   4.376   7.973 -0.3778 -1.3948  0.1661
   27SAPC  C213 3597   6.457   4.347   8.124 -0.5656  0.3522 -0.2062
   27SAPC  H13R 3598   6.509   4.253   8.155  0.3509  1.1624  0.7312
   27SAPC  H13S 3599   6.361   4.341   8.180 -2.0375  1.5348 -2.5121
   27SAPC  C214 3600   6.561   4.453   8.148  0.5836 -0.2447 -0.2671
   27SAPC  H14R 3601   6.650   4.451   8.083  0.9924 -0.2416  0.2866
   27SAPC  C215 3602   6.554   4.564   8.230  0.0527 -0.1468 -0.3359
   27SAPC  H15R 3603   6.644   4.626   8.245 -1.5954  2.3221 -0.2430
   27SAPC  C216 3604   6.441   4.589   8.328  0.1290 -0.1244 -0.4042
   27SAPC  H16R 3605   6.360   4.512   8.332  0.2453 -0.2518 -0.4820
   27SAPC  H16S 3606   6.394   4.688   8.308  1.8298  0.9672  0.8402
   27SAPC  C217 3607   6.487   4.617   8.471 -0.6740 -0.4765 -0.0871
   27SAPC  H17R 3608   6.567   4.694   8.465  0.4684 -1.3153  3.4030
   27SAPC  H17S 3609   6.539   4.526   8.506  0.9717  0.5692  0.2378
   27SAPC  C218 3610   6.382   4.672   8.563  0.2473  0.3822 -0.0592
   27SAPC  H18R 3611   6.312   4.591   8.595  1.4103 -0.7807 -0.4377
   27SAPC  H18S 3612   6.325   4.755   8.516  0.3476  1.2152  1.2764
   27SAPC  C219 3613   6.444   4.734   8.691 -0.0779 -0.6032  0.4505
   27SAPC  H19R 3614   6.517   4.818   8.691 -1.5154  0.6738 -1.6934
   27SAPC  H19S 3615   6.503   4.655   8.744  1.2102  0.4552  0.6198
   27SAPC  C220 3616   6.334   4.793   8.778  0.0706 -0.0312  0.0585
   27SAPC  H20R 3617   6.269   4.852   8.710 -1.1066 -0.4623  0.7903
   27SAPC  H20S 3618   6.384   4.848   8.861  0.0247 -3.5812  2.5544
   27SAPC  H20T 3619   6.267   4.721   8.830 -0.1838  0.9027  1.0650
   27SAPC   C33 3620   7.061   3.779   7.017  1.1341 -0.0421 -0.2640
   27SAPC   H3X 3621   7.149   3.786   6.949 -0.3084  0.0044 -2.1946
   27SAPC   H3Y 3622   7.021   3.677   6.996  1.3962 -0.4630  1.2233
   27SAPC   C34 3623   7.107   3.782   7.157  0.0288 -0.8735 -0.5358
   27SAPC   H4X 3624   7.134   3.888   7.177 -3.8062  0.4244 -1.8376
   27SAPC   H4Y 3625   7.202   3.726   7.175 -0.2035 -1.3753 -0.8776
   27SAPC   C35 3626   7.007   3.743   7.269  0.1232 -0.3279  0.4613
   27SAPC   H5X 3627   6.951   3.654   7.233  0.3595 -0.7222  1.0691
   27SAPC   H5Y 3628   6.939   3.831   7.271 -0.2481 -0.6258  0.9656
   27SAPC   C36 3629   7.063   3.711   7.411 -0.5201 -0.1370  0.2234
   27SAPC   H6X 3630   7.107   3.805   7.451  1.0034  0.1897 -2.1248
   27SAPC   H6Y 3631   7.148   3.640   7.399  0.2481  0.4820  1.8190
   27SAPC   C37 3632   6.965   3.655   7.508  0.6279 -0.2884 -0.2469
   27SAPC   H7X 3633   6.950   3.546   7.495  1.5664 -0.5388  0.7312
   27SAPC   H7Y 3634   6.865   3.704   7.509  0.6289 -0.2047 -2.7885
   27SAPC   C38 3635   7.010   3.667   7.656  0.1302  0.0975  0.0080
   27SAPC   H8X 3636   7.009   3.772   7.692  1.9249  0.5267 -1.1180
   27SAPC   H8Y 3637   7.118   3.638   7.655 -0.2636 -1.4368 -1.2022
   27SAPC   C39 3638   6.932   3.572   7.749  0.5029 -0.2409 -0.4267
   27SAPC   H9X 3639   6.962   3.470   7.716  0.1726 -1.3798  2.6381
   27SAPC   H9Y 3640   6.824   3.576   7.726  0.3211 -1.8203  0.1200
   27SAPC  C310 3641   6.978   3.590   7.890  0.5682 -0.5221 -0.0118
   27SAPC  H10X 3642   6.954   3.692   7.927 -1.0946 -0.3781 -1.4456
   27SAPC  H10Y 3643   7.085   3.577   7.914  0.6060  0.0964  0.1616
   27SAPC  C311 3644   6.899   3.495   7.976  0.3886  0.2533 -0.5657
   27SAPC  H11X 3645   6.917   3.388   7.950  2.2294  0.0021  1.5560
   27SAPC  H11Y 3646   6.791   3.518   7.968  0.3124 -0.1770 -0.7869
   27SAPC  C312 3647   6.937   3.508   8.122 -0.0513 -0.7182 -0.4384
   27SAPC  H12X 3648   6.945   3.615   8.148  0.5588 -1.3630  2.1984
   27SAPC  H12Y 3649   7.036   3.459   8.136  1.1989  1.5316 -1.2163
   27SAPC  C313 3650   6.843   3.431   8.216  0.3190 -0.1900 -0.2999
   27SAPC  H13X 3651   6.867   3.324   8.198  3.3166  0.5742 -1.2060
   27SAPC  H13Y 3652   6.736   3.457   8.203  0.6825  1.9664  0.8268
   27SAPC  C314 3653   6.880   3.462   8.363  0.0529 -0.2896  1.2285
   27SAPC  H14X 3654   6.846   3.567   8.376 -0.0460  0.0200 -1.3630
   27SAPC  H14Y 3655   6.990   3.445   8.365  0.2603  1.0971  2.1086
   27SAPC  C315 3656   6.817   3.375   8.473 -0.4233 -0.4527  0.0638
   27SAPC  H15X 3657   6.708   3.391   8.465  0.4305  6.0596 -0.8975
   27SAPC  H15Y 3658   6.848   3.422   8.569  1.9615 -1.3911 -0.1931
   27SAPC  C316 3659   6.848   3.224   8.474 -0.1104  0.1423 -0.3343
   27SAPC  H16X 3660   6.849   3.193   8.368  0.9819  0.5701 -0.4603
   27SAPC  H16Y 3661   6.775   3.163   8.530 -0.3050  0.3416 -0.3720
   27SAPC  C317 3662   6.984   3.188   8.535 -0.3412  0.0685 -0.1058
   27SAPC  H17X 3663   7.074   3.244   8.500  1.2587 -1.7444  0.9721
   27SAPC  H17Y 3664   7.006   3.085   8.498  2.2427  0.1512  1.0482
   27SAPC  C318 3665   6.995   3.177   8.690 -0.0395 -0.1971  0.3972
   27SAPC  H18X 3666   6.925   3.102   8.733  0.2388 -0.3876  0.5191
   27SAPC  H18Y 3667   6.956   3.266   8.744 -1.1271  0.0955 -0.8286
   27SAPC  H18Z 3668   7.093   3.148   8.733  0.7019  2.1862  0.3881
   28SAPC     N 3669   6.012   1.533   6.561  1.0732  0.3769 -0.1512
   28SAPC   C12 3670   5.991   1.394   6.503 -0.7808 -0.1808 -0.1185
   28SAPC  H12A 3671   6.086   1.342   6.497 -1.2509 -0.9719 -0.7056
   28SAPC  H12B 3672   5.963   1.412   6.401 -2.8659  2.7700  0.8982
   28SAPC   C13 3673   6.056   1.535   6.702  0.4260  0.3443 -0.4340
   28SAPC  H13A 3674   6.011   1.468   6.774  0.2088  2.8021  1.8312
   28SAPC  H13B 3675   6.162   1.516   6.710  0.1648 -0.8748  0.1346
   28SAPC  H13C 3676   6.037   1.634   6.741  2.2048 -0.2411  2.0611
   28SAPC   C14 3677   6.120   1.602   6.489 -0.9008 -0.0242  0.8213
   28SAPC  H14A 3678   6.106   1.709   6.499  0.3849  0.4479 -1.9758
   28SAPC  H14B 3679   6.215   1.572   6.530 -1.7516 -1.6644  1.6583
   28SAPC  H14C 3680   6.121   1.593   6.381 -0.6947  3.2173  0.4903
   28SAPC   C15 3681   5.887   1.621   6.541  0.1147  0.7172 -0.2823
   28SAPC  H15A 3682   5.913   1.725   6.557 -0.7986  0.7907  0.7923
   28SAPC  H15B 3683   5.858   1.612   6.438 -3.2860  1.0556  0.6090
   28SAPC  H15C 3684   5.800   1.591   6.597 -0.4982  0.2017 -1.5108
   28SAPC   C11 3685   5.885   1.294   6.564 -0.1612  0.1928 -0.1805
   28SAPC  H11A 3686   5.906   1.282   6.672  2.2842  2.6232 -0.3283
   28SAPC  H11B 3687   5.896   1.193   6.520 -0.2030 -0.2486  0.8146
   28SAPC     P 3688   5.679   1.323   6.408  0.4774  0.2409 -0.0991
   28SAPC   O13 3689   5.543   1.379   6.410 -0.0658 -0.8553 -0.6317
   28SAPC   O14 3690   5.767   1.367   6.298 -0.6514  0.3550 -0.2957
   28SAPC   O12 3691   5.750   1.341   6.546  0.0057 -0.9418 -0.2627
   28SAPC   O11 3692   5.665   1.168   6.397 -0.4313 -0.1754 -0.6509
   28SAPC    C1 3693   5.550   1.092   6.410 -0.9975  0.0695 -0.6348
   28SAPC    HA 3694   5.472   1.140   6.348 -0.9686  0.3030 -0.4904
   28SAPC    HB 3695   5.563   0.993   6.360  0.7671 -0.1021  0.1213
   28SAPC    C2 3696   5.500   1.076   6.557  0.1965 -0.2161  0.4358
   28SAPC    HS 3697   5.427   0.992   6.558 -0.2575  0.1698 -0.1409
   28SAPC   O21 3698   5.448   1.193   6.623 -0.3126 -0.4029  0.1769
   28SAPC   C21 3699   5.327   1.223   6.580  0.1536  0.6291  0.1766
   28SAPC   O22 3700   5.265   1.167   6.493 -0.4351 -0.7900  0.2388
   28SAPC   C22 3701   5.284   1.353   6.661 -0.4200  0.1813 -0.6046
   28SAPC   H2R 3702   5.332   1.354   6.761  1.0810 -0.7447 -1.3055
   28SAPC   H2S 3703   5.320   1.435   6.594  0.4601 -0.3408 -0.7764
   28SAPC    C3 3704   5.608   1.024   6.651  0.6881 -0.5628 -0.2960
   28SAPC    HX 3705   5.676   1.107   6.680  0.9538 -0.0204 -2.4068
   28SAPC    HY 3706   5.665   0.947   6.595 -0.0179 -0.1610 -1.5958
   28SAPC   O31 3707   5.557   0.955   6.771  0.2016  0.4546  0.0432
   28SAPC   C31 3708   5.640   0.940   6.872 -0.3007 -0.3247 -0.0077
   28SAPC   O32 3709   5.755   0.981   6.879 -0.0508 -0.4822  0.1721
   28SAPC   C32 3710   5.559   0.862   6.983 -0.1246 -0.0154  0.1555
   28SAPC   H2X 3711   5.577   0.753   6.969  0.6076 -0.0476  1.2744
   28SAPC   H2Y 3712   5.454   0.892   6.963  0.3083  1.1247 -0.4162
   28SAPC   C23 3713   5.130   1.374   6.659  0.1378 -0.1476  0.1483
   28SAPC   H3R 3714   5.075   1.314   6.584  1.9093 -2.2248  0.4599
   28SAPC   H3S 3715   5.112   1.480   6.633 -1.0601 -0.2039  0.6801
   28SAPC   C24 3716   5.060   1.327   6.789  0.4311  0.2640 -0.2880
   28SAPC   H4R 3717   5.091   1.381   6.880 -1.7908  2.5439 -0.8257
   28SAPC   H4S 3718   4.956   1.359   6.768  0.3230 -1.1586 -2.0728
   28SAPC   C25 3719   5.079   1.175   6.803 -0.2860  0.5561  0.7543
   28SAPC   H5R 3720   5.039   1.133   6.710 -2.2620  0.6973  1.5076
   28SAPC   C26 3721   5.147   1.110   6.895  0.0958 -0.4476 -0.2210
   28SAPC   H6R 3722   5.146   1.000   6.892  1.2929 -0.4356 -1.3898
   28SAPC   C27 3723   5.234   1.175   7.000 -1.1425 -0.8326  0.4379
   28SAPC   H7R 3724   5.200   1.277   7.028  0.1669 -0.5453  1.0092
   28SAPC   H7S 3725   5.337   1.186   6.959 -0.8525  1.5283  1.7148
   28SAPC   C28 3726   5.232   1.091   7.121  0.1399 -0.3154  0.2954
   28SAPC   H8R 3727   5.317   1.021   7.116 -0.0682 -0.6048  0.8275
   28SAPC   C29 3728   5.157   1.096   7.234  0.0026 -0.3480 -0.0570
   28SAPC   H9R 3729   5.170   1.010   7.301 -0.9690 -1.3106 -1.0819
   28SAPC  C210 3730   5.044   1.193   7.256  0.4514  0.4471  0.1565
   28SAPC  H10R 3731   5.001   1.200   7.154  0.5728  0.4028  0.1021
   28SAPC  H10S 3732   5.091   1.288   7.287  0.7803 -0.2978  2.0470
   28SAPC  C211 3733   4.949   1.147   7.365  0.0553  0.4950 -0.3435
   28SAPC  H11R 3734   4.855   1.104   7.329 -0.4691  1.5295 -0.2296
   28SAPC  C212 3735   4.977   1.146   7.495  0.6553  0.1231 -1.1382
   28SAPC  H12R 3736   4.904   1.100   7.563  1.9279 -0.2711 -0.0202
   28SAPC  C213 3737   5.108   1.193   7.561 -0.5389 -0.5187 -0.4651
   28SAPC  H13R 3738   5.098   1.276   7.634  3.1202  0.7991 -1.3431
   28SAPC  H13S 3739   5.170   1.243   7.482 -1.8639 -0.9807 -1.8220
   28SAPC  C214 3740   5.185   1.087   7.630 -0.2545  0.3990 -0.3571
   28SAPC  H14R 3741   5.256   1.029   7.569  0.6797  1.5891 -0.4182
   28SAPC  C215 3742   5.187   1.046   7.759 -0.0285  0.0619  0.2072
   28SAPC  H15R 3743   5.249   0.957   7.777  0.0245  0.0105 -0.2317
   28SAPC  C216 3744   5.107   1.096   7.870  0.1063  0.0110  0.3764
   28SAPC  H16R 3745   5.044   1.180   7.835 -0.5856 -0.6427  0.0438
   28SAPC  H16S 3746   5.185   1.128   7.943  0.4585 -1.6723  0.7618
   28SAPC  C217 3747   5.010   0.987   7.924  0.3535  0.8290  0.2672
   28SAPC  H17R 3748   4.944   0.959   7.840  2.1935 -3.9754  0.2718
   28SAPC  H17S 3749   4.946   1.039   7.999 -1.0950  0.7821 -0.9140
   28SAPC  C218 3750   5.078   0.868   7.982 -0.3948 -0.5440  0.0997
   28SAPC  H18R 3751   5.180   0.861   7.940 -0.6099 -1.5209 -0.2926
   28SAPC  H18S 3752   5.019   0.780   7.947 -1.1227  0.6648 -1.8115
   28SAPC  C219 3753   5.094   0.879   8.127 -0.1656  0.2733 -0.2289
   28SAPC  H19R 3754   4.997   0.911   8.169 -0.4919  1.0248 -1.5198
   28SAPC  H19S 3755   5.174   0.944   8.167  0.2484 -0.9071  0.8775
   28SAPC  C220 3756   5.121   0.744   8.190 -0.0252  0.1063  0.0229
   28SAPC  H20R 3757   5.209   0.687   8.153 -1.6767 -2.1166 -0.6645
   28SAPC  H20S 3758   5.030   0.688   8.159 -0.3528  1.1123 -0.8658
   28SAPC  H20T 3759   5.116   0.751   8.300 -0.2490  1.7933 -0.0897
   28SAPC   C33 3760   5.592   0.907   7.128 -0.0897 -0.5033  0.1770
   28SAPC   H3X 3761   5.568   1.015   7.129 -1.4788 -0.7722 -1.4374
   28SAPC   H3Y 3762   5.702   0.895   7.140  0.4585  1.3938 -2.2972
   28SAPC   C34 3763   5.518   0.833   7.232 -0.4178  0.0428 -0.1375
   28SAPC   H4X 3764   5.566   0.733   7.240  1.0511  0.4107 -3.3458
   28SAPC   H4Y 3765   5.408   0.827   7.214 -0.7640 -1.0353  2.1294
   28SAPC   C35 3766   5.535   0.906   7.363  0.1925  0.9629  0.3119
   28SAPC   H5X 3767   5.470   0.995   7.374 -1.6585 -0.2822 -0.2978
   28SAPC   H5Y 3768   5.639   0.945   7.373  0.1861  1.2950 -0.8651
   28SAPC   C36 3769   5.512   0.816   7.487 -0.2209 -0.5860 -0.2045
   28SAPC   H6X 3770   5.564   0.718   7.486  0.2367 -0.3378 -1.1052
   28SAPC   H6Y 3771   5.405   0.794   7.506 -0.4712  1.7507  1.2778
   28SAPC   C37 3772   5.571   0.877   7.623 -0.2618  0.1783 -0.9735
   28SAPC   H7X 3773   5.522   0.975   7.644 -0.2712  0.0435 -0.3528
   28SAPC   H7Y 3774   5.677   0.891   7.595 -0.2345  1.7416 -0.1338
   28SAPC   C38 3775   5.560   0.791   7.751 -0.1088 -0.1225 -0.2078
   28SAPC   H8X 3776   5.624   0.702   7.735  0.7698  0.4121  0.2696
   28SAPC   H8Y 3777   5.456   0.758   7.770  0.2791 -0.2669  1.7742
   28SAPC   C39 3778   5.600   0.862   7.880 -0.3015  0.1628 -1.0989
   28SAPC   H9X 3779   5.540   0.956   7.877 -0.8214 -0.0845  0.6374
   28SAPC   H9Y 3780   5.708   0.888   7.873 -0.0646 -0.6257 -0.4976
   28SAPC  C310 3781   5.559   0.784   8.010  0.0984  0.5227 -0.0502
   28SAPC  H10X 3782   5.635   0.704   8.022  1.3725  1.4432 -1.7286
   28SAPC  H10Y 3783   5.464   0.730   7.991  0.2868 -0.0793  0.7015
   28SAPC  C311 3784   5.567   0.859   8.141 -0.2510 -0.1719 -0.0824
   28SAPC  H11X 3785   5.549   0.794   8.230  0.7566 -1.5200 -0.8546
   28SAPC  H11Y 3786   5.493   0.940   8.156  0.9389  1.1045 -0.9665
   28SAPC  C312 3787   5.702   0.920   8.173 -0.2281 -0.3372  0.4633
   28SAPC  H12X 3788   5.722   0.980   8.081 -0.3400 -0.9167  0.0566
   28SAPC  H12Y 3789   5.768   0.831   8.181 -0.2195 -0.4739 -0.9386
   28SAPC  C313 3790   5.712   1.005   8.303 -0.5027 -0.4002  0.1967
   28SAPC  H13X 3791   5.820   1.032   8.308 -0.8946  0.7517  2.7677
   28SAPC  H13Y 3792   5.693   0.945   8.394 -1.1707  0.9399  0.9688
   28SAPC  C314 3793   5.639   1.140   8.295 -0.4672 -0.2114  0.1170
   28SAPC  H14X 3794   5.531   1.118   8.313 -0.9548 -0.1855 -2.6856
   28SAPC  H14Y 3795   5.651   1.201   8.204  1.6497  0.5923  0.9061
   28SAPC  C315 3796   5.685   1.242   8.398 -0.3386 -0.6161 -0.3720
   28SAPC  H15X 3797   5.603   1.311   8.429  0.6080  1.0362 -1.4840
   28SAPC  H15Y 3798   5.751   1.315   8.348 -2.1329  1.0509 -0.3901
   28SAPC  C316 3799   5.739   1.188   8.522 -0.9814 -0.2195 -0.8640
   28SAPC  H16X 3800   5.832   1.138   8.489 -0.4398  0.8457 -0.9613
   28SAPC  H16Y 3801   5.676   1.121   8.585 -0.1790  0.6450  0.9092
   28SAPC  C317 3802   5.787   1.294   8.631 -0.3529 -0.1291  0.1546
   28SAPC  H17X 3803   5.833   1.388   8.593 -0.3456  0.3977  1.4304
   28SAPC  H17Y 3804   5.874   1.244   8.678  0.8653  0.2102 -1.6965
   28SAPC  C318 3805   5.688   1.343   8.728 -0.3398 -0.8293 -0.0172
   28SAPC  H18X 3806   5.730   1.410   8.806  0.0127  2.1832 -2.6599
   28SAPC  H18Y 3807   5.644   1.262   8.791  3.2056 -1.4977  1.7497
   28SAPC  H18Z 3808   5.606   1.390   8.669  1.9518  0.0042 -2.6115
   29SAPC     N 3809   1.274   4.607   5.901 -0.2229  0.4795 -0.3274
   29SAPC   C12 3810   1.270   4.519   6.024  0.2948  0.0059 -0.1438
   29SAPC  H12A 3811   1.362   4.463   6.034  1.3367  1.7218 -0.0245
   29SAPC  H12B 3812   1.200   4.437   6.010 -0.7130  0.9192 -0.5819
   29SAPC   C13 3813   1.366   4.722   5.911 -0.0678  0.6923 -0.0811
   29SAPC  H13A 3814   1.369   4.787   5.826  0.7653  0.5601 -0.1608
   29SAPC  H13B 3815   1.339   4.790   5.991  0.3791  0.7605  0.0156
   29SAPC  H13C 3816   1.467   4.687   5.929 -1.2311 -2.5449  0.5333
   29SAPC   C14 3817   1.329   4.515   5.798 -0.4703 -0.7234  0.5176
   29SAPC  H14A 3818   1.282   4.418   5.791 -1.3259 -0.3327  0.7290
   29SAPC  H14B 3819   1.320   4.565   5.702  0.7215 -1.2559  0.1257
   29SAPC  H14C 3820   1.434   4.500   5.816  0.0176  0.8317 -0.8163
   29SAPC   C15 3821   1.135   4.655   5.867 -0.7255 -0.0844  0.1142
   29SAPC  H15A 3822   1.072   4.568   5.867 -0.8947  0.0130 -2.0157
   29SAPC  H15B 3823   1.095   4.717   5.946 -2.5808 -0.5550 -0.4367
   29SAPC  H15C 3824   1.119   4.699   5.770  1.3118  0.1426 -0.1523
   29SAPC   C11 3825   1.229   4.585   6.162  0.8668 -0.7192 -0.4879
   29SAPC  H11A 3826   1.126   4.624   6.147 -0.3814 -3.7547 -0.0685
   29SAPC  H11B 3827   1.289   4.677   6.177 -0.6203  0.3506 -1.0214
   29SAPC     P 3828   1.368   4.443   6.325  0.4494  0.0602  0.2455
   29SAPC   O13 3829   1.377   4.313   6.267  0.0319  0.2002 -0.3742
   29SAPC   O14 3830   1.480   4.539   6.295 -0.9364  0.3911  0.0111
   29SAPC   O12 3831   1.233   4.501   6.275  0.0699  0.2463  0.4131
   29SAPC   O11 3832   1.358   4.430   6.486  0.3678  0.0830 -0.0053
   29SAPC    C1 3833   1.232   4.452   6.551  0.3634 -0.1179  0.6744
   29SAPC    HA 3834   1.148   4.400   6.501  0.3980  2.1772 -1.9220
   29SAPC    HB 3835   1.233   4.418   6.656  1.7603 -1.1511  0.3356
   29SAPC    C2 3836   1.195   4.600   6.561  0.2999  0.4223 -0.1133
   29SAPC    HS 3837   1.186   4.641   6.458  1.5863  0.0980 -0.3677
   29SAPC   O21 3838   1.287   4.682   6.639 -0.3229 -0.3784  0.2211
   29SAPC   C21 3839   1.304   4.813   6.606  0.6756  0.8357 -0.7861
   29SAPC   O22 3840   1.246   4.867   6.511  0.3992  0.4214  0.3816
   29SAPC   C22 3841   1.415   4.873   6.685  0.7150  0.4350 -0.7306
   29SAPC   H2R 3842   1.499   4.800   6.693 -1.2978 -1.7391  1.8791
   29SAPC   H2S 3843   1.453   4.954   6.619 -0.7512  0.5531 -1.4486
   29SAPC    C3 3844   1.060   4.610   6.630 -0.6829 -0.9810 -0.2190
   29SAPC    HX 3845   0.989   4.540   6.582  1.2716 -2.3200 -1.1884
   29SAPC    HY 3846   1.021   4.712   6.608  1.1126  0.3015  2.2340
   29SAPC   O31 3847   1.071   4.585   6.771  0.2979 -0.3300 -0.2028
   29SAPC   C31 3848   1.065   4.690   6.857  0.4104  0.0323  0.4701
   29SAPC   O32 3849   1.049   4.803   6.829  0.1613 -0.0470 -0.0324
   29SAPC   C32 3850   1.079   4.631   6.994  0.2535 -0.4316  0.3677
   29SAPC   H2X 3851   1.049   4.524   6.994 -0.4715 -0.2257  0.3892
   29SAPC   H2Y 3852   1.003   4.686   7.053 -1.0825  0.7337 -2.3299
   29SAPC   C23 3853   1.372   4.923   6.821  0.2045 -0.1184 -0.4785
   29SAPC   H3R 3854   1.379   4.842   6.896  0.0288 -0.1596 -0.5058
   29SAPC   H3S 3855   1.267   4.960   6.819  0.1886  0.0215  1.9444
   29SAPC   C24 3856   1.472   5.037   6.855 -0.0597 -0.0386 -0.4228
   29SAPC   H4R 3857   1.444   5.090   6.948  2.1801 -1.3129  1.0258
   29SAPC   H4S 3858   1.462   5.114   6.776 -2.8857 -0.8588 -0.9226
   29SAPC   C25 3859   1.612   4.991   6.855  0.7128 -0.3011  0.0517
   29SAPC   H5R 3860   1.669   5.001   6.762 -0.1418 -0.5796 -0.5037
   29SAPC   C26 3861   1.683   4.956   6.971  0.0076  0.1048 -0.4442
   29SAPC   H6R 3862   1.779   4.908   6.947  0.1051  0.9846 -1.8957
   29SAPC   C27 3863   1.645   4.955   7.119  0.1952 -0.4317  0.2686
   29SAPC   H7R 3864   1.587   5.049   7.126  0.9122  0.0870 -0.6059
   29SAPC   H7S 3865   1.738   4.971   7.178  0.2900  1.5961 -0.3814
   29SAPC   C28 3866   1.574   4.845   7.188 -0.1391  0.2442 -0.7108
   29SAPC   H8R 3867   1.487   4.806   7.134 -1.0451 -0.4239  1.1823
   29SAPC   C29 3868   1.600   4.783   7.302 -0.5831 -0.1573  0.8942
   29SAPC   H9R 3869   1.536   4.699   7.334 -1.4392 -1.0149 -2.8571
   29SAPC  C210 3870   1.706   4.820   7.410 -0.5626 -0.1676  0.3088
   29SAPC  H10R 3871   1.805   4.834   7.360 -1.5493  0.9342 -1.3743
   29SAPC  H10S 3872   1.740   4.739   7.479  0.8055 -0.9543 -1.2595
   29SAPC  C211 3873   1.661   4.936   7.497 -0.2526  0.0781 -0.1332
   29SAPC  H11R 3874   1.636   5.028   7.442  1.0712  0.4224 -0.1727
   29SAPC  C212 3875   1.641   4.938   7.624  0.1897  0.3815  0.1670
   29SAPC  H12R 3876   1.613   5.037   7.663 -1.3639  1.2533 -3.0174
   29SAPC  C213 3877   1.663   4.823   7.714  0.0495  0.5746 -0.2518
   29SAPC  H13R 3878   1.769   4.814   7.746 -0.2292  0.4219  0.6451
   29SAPC  H13S 3879   1.636   4.730   7.659  1.0851 -0.9063  1.6663
   29SAPC  C214 3880   1.554   4.842   7.819 -0.1323  0.1379  0.2383
   29SAPC  H14R 3881   1.452   4.860   7.781  0.8507  2.8709 -1.2132
   29SAPC  C215 3882   1.573   4.845   7.950  0.0620  0.0836 -0.4957
   29SAPC  H15R 3883   1.486   4.852   8.018  0.7982  0.7767  0.3955
   29SAPC  C216 3884   1.713   4.820   8.012 -0.1480 -0.2217 -0.6222
   29SAPC  H16R 3885   1.790   4.882   7.963 -0.0271 -0.1385 -0.3285
   29SAPC  H16S 3886   1.743   4.716   7.987  1.4603  0.0995 -0.0663
   29SAPC  C217 3887   1.721   4.840   8.170 -0.2106 -0.5014  0.4794
   29SAPC  H17R 3888   1.633   4.798   8.222  0.3143 -0.9723  1.0018
   29SAPC  H17S 3889   1.731   4.949   8.191 -1.2680 -0.5594  1.2943
   29SAPC  C218 3890   1.863   4.791   8.216 -0.1092  0.6689  0.3685
   29SAPC  H18R 3891   1.881   4.840   8.314 -0.8162 -0.4308  1.0706
   29SAPC  H18S 3892   1.946   4.821   8.149  0.6248  0.3437  1.1213
   29SAPC  C219 3893   1.865   4.640   8.226  0.3432  0.7772 -0.2188
   29SAPC  H19R 3894   1.858   4.595   8.125  2.3604  0.8615 -0.4097
   29SAPC  H19S 3895   1.787   4.583   8.281  0.8862  0.0830 -0.1691
   29SAPC  C220 3896   2.007   4.594   8.275  0.2486 -0.2555  0.0304
   29SAPC  H20R 3897   2.051   4.686   8.320  1.3124 -0.8981  0.3017
   29SAPC  H20S 3898   2.064   4.553   8.189  0.5763 -1.6256  0.8815
   29SAPC  H20T 3899   2.013   4.519   8.357 -0.1004 -1.4577 -1.0321
   29SAPC   C33 3900   1.220   4.664   7.042  0.2230  0.0625  0.0713
   29SAPC   H3X 3901   1.224   4.773   7.066  1.8180 -0.4022  2.0987
   29SAPC   H3Y 3902   1.299   4.638   6.969  1.0780 -0.3568  1.1240
   29SAPC   C34 3903   1.269   4.594   7.167 -0.2597  0.6243 -0.1462
   29SAPC   H4X 3904   1.372   4.632   7.185  0.4196 -2.0759  2.0826
   29SAPC   H4Y 3905   1.260   4.485   7.145  1.3841  0.4110  0.1887
   29SAPC   C35 3906   1.203   4.616   7.299  0.7322 -0.4799 -0.5244
   29SAPC   H5X 3907   1.099   4.581   7.280 -0.0203  1.3353  0.1471
   29SAPC   H5Y 3908   1.202   4.722   7.333 -0.3405 -1.4990  2.8750
   29SAPC   C36 3909   1.251   4.522   7.415  0.3748  0.4490  0.8828
   29SAPC   H6X 3910   1.360   4.543   7.424  0.8324 -1.5323  0.0595
   29SAPC   H6Y 3911   1.229   4.417   7.387 -0.9563  1.0347 -0.3250
   29SAPC   C37 3912   1.181   4.561   7.552 -0.2869 -0.1012  0.0989
   29SAPC   H7X 3913   1.080   4.516   7.556  0.2163 -1.1304  2.2942
   29SAPC   H7Y 3914   1.180   4.672   7.550  0.9043 -0.1110 -2.4419
   29SAPC   C38 3915   1.269   4.516   7.672  0.1523  0.6289 -0.9051
   29SAPC   H8X 3916   1.370   4.562   7.665  0.4214  0.0233 -1.0792
   29SAPC   H8Y 3917   1.279   4.406   7.682 -2.0069  0.5794  1.1005
   29SAPC   C39 3918   1.213   4.561   7.804 -0.2214  0.2650  0.2125
   29SAPC   H9X 3919   1.107   4.527   7.808 -0.4830  0.9639 -0.6927
   29SAPC   H9Y 3920   1.216   4.672   7.815 -3.1289  0.3370  0.8084
   29SAPC  C310 3921   1.292   4.497   7.916 -0.1619  0.0026 -0.9211
   29SAPC  H10X 3922   1.397   4.532   7.913  0.1757 -0.9842 -0.6822
   29SAPC  H10Y 3923   1.305   4.388   7.900 -0.8619 -0.4151  1.2054
   29SAPC  C311 3924   1.229   4.522   8.053 -0.4282  0.5934 -0.2869
   29SAPC  H11X 3925   1.125   4.485   8.053 -0.4369  0.5883  1.8598
   29SAPC  H11Y 3926   1.233   4.629   8.082  0.4822  0.7328 -0.8680
   29SAPC  C312 3927   1.301   4.458   8.174  0.1013 -0.0877 -0.2716
   29SAPC  H12X 3928   1.409   4.476   8.161  0.0710  0.1420 -0.2103
   29SAPC  H12Y 3929   1.272   4.351   8.172 -1.7225  0.3901 -0.7508
   29SAPC  C313 3930   1.261   4.517   8.315 -0.0577 -0.2622 -1.0019
   29SAPC  H13X 3931   1.173   4.451   8.329  1.0856 -1.1041  2.6018
   29SAPC  H13Y 3932   1.214   4.617   8.305 -2.7012 -0.9448  3.2346
   29SAPC  C314 3933   1.362   4.492   8.429 -0.6364 -0.2431 -0.2847
   29SAPC  H14X 3934   1.436   4.574   8.437 -1.3103  0.2555  0.8813
   29SAPC  H14Y 3935   1.418   4.396   8.423 -0.9689 -0.5333  0.9315
   29SAPC  C315 3936   1.292   4.481   8.573 -0.6385 -0.3707  0.3350
   29SAPC  H15X 3937   1.348   4.420   8.647  0.1504  1.0429  0.9199
   29SAPC  H15Y 3938   1.203   4.415   8.565 -0.8680 -0.0845  0.5240
   29SAPC  C316 3939   1.264   4.619   8.637  0.4247  0.5780 -0.0527
   29SAPC  H16X 3940   1.216   4.597   8.735  0.6707 -0.1769 -0.1016
   29SAPC  H16Y 3941   1.186   4.671   8.577 -0.1817  0.7934  0.9142
   29SAPC  C317 3942   1.386   4.691   8.665  0.1505 -0.3675 -0.1899
   29SAPC  H17X 3943   1.436   4.716   8.569  2.2125 -1.1498  0.6438
   29SAPC  H17Y 3944   1.458   4.634   8.728 -1.7353  0.1991  2.5559
   29SAPC  C318 3945   1.362   4.820   8.739  0.0406  0.1939 -0.7692
   29SAPC  H18X 3946   1.452   4.855   8.792 -0.9539 -1.8391  2.3745
   29SAPC  H18Y 3947   1.295   4.801   8.825  0.7960  0.3775 -0.1399
   29SAPC  H18Z 3948   1.323   4.900   8.672 -1.4085  1.4761  1.5317
   30SAPC     N 3949   3.507   5.246   6.010 -0.4612  0.5180 -0.5893
   30SAPC   C12 3950   3.431   5.341   6.102 -0.3980  0.1033  0.4554
   30SAPC  H12A 3951   3.435   5.445   6.073 -0.3949 -0.3842 -1.3303
   30SAPC  H12B 3952   3.488   5.349   6.194  0.3472  0.9747 -0.0621
   30SAPC   C13 3953   3.531   5.112   6.067  0.0436  0.4261 -0.4642
   30SAPC  H13A 3954   3.440   5.063   6.098 -0.0484  1.7722  1.4648
   30SAPC  H13B 3955   3.568   5.046   5.989 -0.1133 -0.7588  0.4524
   30SAPC  H13C 3956   3.599   5.115   6.150 -0.5615 -1.1323  0.1136
   30SAPC   C14 3957   3.440   5.231   5.881 -0.6773  0.8173  0.3290
   30SAPC  H14A 3958   3.437   5.330   5.837 -0.4702  0.3427 -0.7696
   30SAPC  H14B 3959   3.501   5.171   5.816 -1.4847 -2.2750  2.3500
   30SAPC  H14C 3960   3.342   5.186   5.879  0.9418 -2.8248 -1.4718
   30SAPC   C15 3961   3.642   5.298   5.966 -0.2822  0.4279  0.3058
   30SAPC  H15A 3962   3.711   5.303   6.049  0.6460 -0.8839 -0.3714
   30SAPC  H15B 3963   3.691   5.247   5.884  1.6242  2.6550 -0.0059
   30SAPC  H15C 3964   3.631   5.397   5.923 -0.0739  0.2835 -0.0826
   30SAPC   C11 3965   3.292   5.308   6.153 -1.1911 -0.0571  0.1156
   30SAPC  H11A 3966   3.271   5.375   6.239  0.1681  1.5491 -0.7782
   30SAPC  H11B 3967   3.302   5.200   6.178 -1.6427  0.1323  1.1479
   30SAPC     P 3968   3.089   5.210   6.009  0.1316  0.7329 -0.4440
   30SAPC   O13 3969   2.980   5.276   5.937  0.0735 -0.0488 -0.4843
   30SAPC   O14 3970   3.161   5.101   5.935 -0.0993 -0.2922 -0.2075
   30SAPC   O12 3971   3.196   5.322   6.047  0.0091  0.1615  0.4631
   30SAPC   O11 3972   3.028   5.157   6.149  0.0077 -0.6102  0.2474
   30SAPC    C1 3973   2.942   5.250   6.230 -0.0071 -0.1739 -0.2690
   30SAPC    HA 3974   3.013   5.323   6.276 -0.6525  0.1539  0.2060
   30SAPC    HB 3975   2.860   5.298   6.173 -0.4519  1.7213  1.9026
   30SAPC    C2 3976   2.868   5.173   6.348  0.4169 -0.2510  0.0365
   30SAPC    HS 3977   2.793   5.243   6.392 -0.2529 -0.7506 -0.2908
   30SAPC   O21 3978   2.954   5.115   6.447 -0.4080  0.4453  0.3294
   30SAPC   C21 3979   3.022   5.203   6.519 -1.3057  0.0301 -0.7878
   30SAPC   O22 3980   3.008   5.322   6.520  0.3524 -0.6192  0.1135
   30SAPC   C22 3981   3.138   5.137   6.594  0.7149 -0.4791 -0.2211
   30SAPC   H2R 3982   3.213   5.097   6.523  2.1853  1.2335  0.3175
   30SAPC   H2S 3983   3.181   5.217   6.658 -0.0828  0.0885 -0.3792
   30SAPC    C3 3984   2.788   5.059   6.277  0.2187 -0.7030 -1.1612
   30SAPC    HX 3985   2.847   4.969   6.248  0.8320 -1.2422  1.6308
   30SAPC    HY 3986   2.735   5.091   6.184 -0.4461  0.5198 -0.3698
   30SAPC   O31 3987   2.689   5.024   6.376  0.4563  0.4203  0.1983
   30SAPC   C31 3988   2.688   4.900   6.438  0.1330  0.1881  0.0139
   30SAPC   O32 3989   2.757   4.807   6.398 -0.6560 -0.2421 -0.8095
   30SAPC   C32 3990   2.583   4.905   6.558  0.7122 -0.1541 -0.6973
   30SAPC   H2X 3991   2.568   4.800   6.592 -1.0450 -0.5533 -2.6387
   30SAPC   H2Y 3992   2.490   4.946   6.515  0.7138 -0.8782 -1.3860
   30SAPC   C23 3993   3.081   5.027   6.686  0.1600 -0.6537  0.5454
   30SAPC   H3R 3994   3.003   4.976   6.626  0.2458 -1.0015  0.7235
   30SAPC   H3S 3995   3.032   5.078   6.772  1.9723 -0.8823  1.7636
   30SAPC   C24 3996   3.186   4.935   6.734  0.3116 -0.1997  0.3215
   30SAPC   H4R 3997   3.239   4.983   6.819  3.3247 -0.7279 -1.2156
   30SAPC   H4S 3998   3.264   4.921   6.656 -0.8131 -0.8458 -0.6989
   30SAPC   C25 3999   3.132   4.804   6.780  0.4766  0.3612 -0.9188
   30SAPC   H5R 4000   3.050   4.753   6.728 -0.3952  1.3266 -0.4996
   30SAPC   C26 4001   3.177   4.741   6.886 -0.4343 -0.4740  0.0253
   30SAPC   H6R 4002   3.139   4.640   6.911 -0.2386 -0.1869  1.5236
   30SAPC   C27 4003   3.285   4.781   6.979 -0.1244  0.0838  0.3052
   30SAPC   H7R 4004   3.241   4.853   7.051 -1.0694  1.1032 -1.2341
   30SAPC   H7S 4005   3.378   4.833   6.946  0.7259 -0.0564  2.4391
   30SAPC   C28 4006   3.358   4.666   7.040  0.1954  0.4320 -0.1035
   30SAPC   H8R 4007   3.386   4.586   6.971 -0.9987 -0.8899  0.9250
   30SAPC   C29 4008   3.392   4.644   7.165  0.9796 -0.0585 -0.4716
   30SAPC   H9R 4009   3.445   4.553   7.196 -0.4923 -1.1405 -1.0605
   30SAPC  C210 4010   3.358   4.740   7.274  0.3921  0.7994  0.0128
   30SAPC  H10R 4011   3.344   4.838   7.224 -1.0374 -0.1043 -1.4340
   30SAPC  H10S 4012   3.452   4.743   7.333  0.3183  1.6207  0.0934
   30SAPC  C211 4013   3.244   4.688   7.360  1.2836 -0.2914 -0.2804
   30SAPC  H11R 4014   3.146   4.702   7.312 -0.5655 -0.9525  3.1554
   30SAPC  C212 4015   3.256   4.641   7.482 -0.2406 -0.1705 -0.2239
   30SAPC  H12R 4016   3.164   4.596   7.523  0.3401 -2.2888 -1.1552
   30SAPC  C213 4017   3.392   4.625   7.557  0.4660 -0.4607  0.4840
   30SAPC  H13R 4018   3.431   4.725   7.585 -0.2879  0.4220 -1.5121
   30SAPC  H13S 4019   3.473   4.583   7.493  1.7831  2.3644  0.2090
   30SAPC  C214 4020   3.378   4.533   7.673 -0.2471  0.2463  0.5230
   30SAPC  H14R 4021   3.311   4.450   7.646  1.4947 -0.8767 -0.4573
   30SAPC  C215 4022   3.445   4.542   7.793  0.1034 -0.7754 -0.2514
   30SAPC  H15R 4023   3.431   4.461   7.866  0.7701 -1.1041 -0.4799
   30SAPC  C216 4024   3.535   4.648   7.853  0.2728  0.6985  0.5528
   30SAPC  H16R 4025   3.559   4.727   7.778 -1.1683  0.7593  0.1379
   30SAPC  H16S 4026   3.638   4.609   7.865 -0.1636 -0.0828  1.7850
   30SAPC  C217 4027   3.482   4.721   7.977  0.7161  0.0637  0.0334
   30SAPC  H17R 4028   3.384   4.767   7.952  1.3237  0.5162 -1.6461
   30SAPC  H17S 4029   3.549   4.807   7.999  0.5554 -0.1690  1.4447
   30SAPC  C218 4030   3.465   4.637   8.107 -0.5183  0.4341  0.2700
   30SAPC  H18R 4031   3.422   4.537   8.087 -1.1021  0.5459  0.9478
   30SAPC  H18S 4032   3.388   4.698   8.158 -2.5595 -1.5172 -0.4076
   30SAPC  C219 4033   3.589   4.632   8.194 -0.1958  0.0614  0.0754
   30SAPC  H19R 4034   3.625   4.729   8.235  0.2293 -0.6308  1.3539
   30SAPC  H19S 4035   3.672   4.586   8.137 -0.4588 -1.5327  0.9665
   30SAPC  C220 4036   3.584   4.537   8.314  0.4117  0.1020  0.4237
   30SAPC  H20R 4037   3.679   4.557   8.367  0.6926  0.7160 -0.2842
   30SAPC  H20S 4038   3.586   4.434   8.273  1.5785  0.2238  0.1465
   30SAPC  H20T 4039   3.496   4.544   8.381  0.7261  0.6412  0.7848
   30SAPC   C33 4040   2.618   5.006   6.669  0.2410 -0.1809  0.0460
   30SAPC   H3X 4041   2.526   5.021   6.730 -0.3555  0.2906 -0.9659
   30SAPC   H3Y 4042   2.647   5.097   6.613 -1.0290 -0.4439 -1.0440
   30SAPC   C34 4043   2.717   4.953   6.766  0.0822  0.5200  0.2018
   30SAPC   H4X 4044   2.817   4.937   6.719 -0.0910  0.5389 -0.1703
   30SAPC   H4Y 4045   2.677   4.854   6.796 -0.8692  1.0506  0.6979
   30SAPC   C35 4046   2.744   5.043   6.893  0.0576 -1.0895  0.2640
   30SAPC   H5X 4047   2.643   5.066   6.934  0.6862  0.0371  1.2346
   30SAPC   H5Y 4048   2.790   5.137   6.855 -1.5424 -0.5771 -0.4630
   30SAPC   C36 4049   2.825   4.969   7.009 -0.3327  0.1755 -0.3601
   30SAPC   H6X 4050   2.932   4.965   6.980 -0.2205 -0.7948  0.1646
   30SAPC   H6Y 4051   2.794   4.863   7.019 -0.1040  0.0914 -0.5469
   30SAPC   C37 4052   2.822   5.042   7.142 -0.0199  0.2094  0.9696
   30SAPC   H7X 4053   2.717   5.047   7.179 -0.1761  1.6172  0.3987
   30SAPC   H7Y 4054   2.853   5.147   7.122 -0.7915  0.3235  0.3083
   30SAPC   C38 4055   2.917   4.982   7.246 -0.8278  0.6771  0.4242
   30SAPC   H8X 4056   3.020   4.988   7.206 -1.4940  1.0887 -1.2693
   30SAPC   H8Y 4057   2.894   4.873   7.254  0.6278  0.4038  1.1822
   30SAPC   C39 4058   2.914   5.033   7.393 -0.8274  0.3714 -0.2223
   30SAPC   H9X 4059   2.807   5.045   7.422 -1.4168 -0.1443 -2.0650
   30SAPC   H9Y 4060   2.962   5.133   7.403  4.2834 -1.9665 -0.2736
   30SAPC  C310 4061   2.994   4.959   7.495  0.2692  0.5862  0.5221
   30SAPC  H10X 4062   3.098   4.946   7.458 -0.2768 -0.7314 -0.6028
   30SAPC  H10Y 4063   2.946   4.861   7.516  1.3980  0.3571  2.1599
   30SAPC  C311 4064   2.994   5.028   7.631  0.4512 -0.7718 -0.6861
   30SAPC  H11X 4065   2.893   5.072   7.644  1.1798  0.5759  0.5054
   30SAPC  H11Y 4066   3.071   5.108   7.635 -0.0670 -0.3055  0.0618
   30SAPC  C312 4067   3.034   4.920   7.733  0.3740 -0.5484  0.2665
   30SAPC  H12X 4068   3.123   4.867   7.693 -0.2174 -0.0641 -1.7373
   30SAPC  H12Y 4069   2.947   4.850   7.737  0.7128 -1.0043 -0.3041
   30SAPC  C313 4070   3.058   4.976   7.874  0.2651 -0.7487  0.0861
   30SAPC  H13X 4071   2.973   5.043   7.898 -0.2096 -1.6281  0.8946
   30SAPC  H13Y 4072   3.153   5.034   7.869 -0.5608  0.5225 -0.9762
   30SAPC  C314 4073   3.058   4.874   7.989  0.1940  0.1830  0.4510
   30SAPC  H14X 4074   3.141   4.804   7.965  0.8332  1.5135 -1.3653
   30SAPC  H14Y 4075   2.958   4.827   7.976 -0.7237  1.6122  2.2434
   30SAPC  C315 4076   3.070   4.944   8.127  1.1380  0.4453  0.4855
   30SAPC  H15X 4077   3.027   4.883   8.209  0.7265 -1.7312 -1.2868
   30SAPC  H15Y 4078   3.025   5.045   8.125 -3.3173 -1.4503 -2.4184
   30SAPC  C316 4079   3.224   4.967   8.166  0.7898 -0.0218  0.2591
   30SAPC  H16X 4080   3.252   5.041   8.089  1.6190  0.2195  0.7871
   30SAPC  H16Y 4081   3.284   4.874   8.167  1.7927  0.6146  2.2439
   30SAPC  C317 4082   3.242   5.025   8.298  0.3160 -0.1936  0.2088
   30SAPC  H17X 4083   3.192   5.124   8.303  0.5944 -0.0723  0.7053
   30SAPC  H17Y 4084   3.352   5.043   8.304  0.5284 -0.6934 -1.7834
   30SAPC  C318 4085   3.198   4.934   8.414  0.4532  0.7254 -0.0024
   30SAPC  H18X 4086   3.088   4.923   8.419  0.5714  0.0584  1.3240
   30SAPC  H18Y 4087   3.224   4.994   8.504  0.6609  0.5081  0.0852
   30SAPC  H18Z 4088   3.247   4.834   8.408 -1.3658 -0.2454  1.0135
   31SAPC     N 4089   4.037   5.365   6.366  0.0007  0.7116  0.2775
   31SAPC   C12 4090   3.891   5.327   6.391 -0.2568 -0.6106  0.5561
   31SAPC  H12A 4091   3.854   5.399   6.462  0.5103 -0.0991  0.4468
   31SAPC  H12B 4092   3.898   5.230   6.440 -0.5688 -1.3857 -0.9079
   31SAPC   C13 4093   4.080   5.305   6.236  0.3300  0.2192 -0.0798
   31SAPC  H13A 4094   4.185   5.330   6.231  0.4610 -0.1340  0.8007
   31SAPC  H13B 4095   4.054   5.201   6.226 -1.5943  0.6453  0.2679
   31SAPC  H13C 4096   4.037   5.360   6.154  0.1754 -1.7154 -1.3216
   31SAPC   C14 4097   4.058   5.512   6.352  0.7594  0.1729  0.0395
   31SAPC  H14A 4098   4.043   5.564   6.446 -0.5889  0.7478 -0.4746
   31SAPC  H14B 4099   4.152   5.543   6.309 -1.0304  3.5556 -1.6656
   31SAPC  H14C 4100   3.988   5.543   6.275  0.2823  0.2798  0.5125
   31SAPC   C15 4101   4.122   5.321   6.487 -0.2361  0.4839  0.1872
   31SAPC  H15A 4102   4.217   5.372   6.487  0.1898 -0.2998 -0.5694
   31SAPC  H15B 4103   4.070   5.334   6.580 -0.7687 -3.1459  0.4413
   31SAPC  H15C 4104   4.141   5.215   6.487  1.7682  0.8087  2.3051
   31SAPC   C11 4105   3.789   5.317   6.273 -0.3078  0.6423  0.3030
   31SAPC  H11A 4106   3.699   5.267   6.314 -0.4312 -1.7168 -2.6801
   31SAPC  H11B 4107   3.831   5.246   6.199 -1.1837 -0.6801  1.0548
   31SAPC     P 4108   3.665   5.540   6.283 -0.6386  0.2400 -0.2439
   31SAPC   O13 4109   3.653   5.666   6.203 -0.2882  0.6427 -0.2183
   31SAPC   O14 4110   3.540   5.473   6.328  0.7295  0.0619  0.3216
   31SAPC   O12 4111   3.760   5.443   6.205 -0.2429 -0.5568 -0.3481
   31SAPC   O11 4112   3.748   5.572   6.411 -0.6436 -0.4861 -0.1406
   31SAPC    C1 4113   3.757   5.703   6.472  0.6143  0.4147 -0.4993
   31SAPC    HA 4114   3.827   5.760   6.406  0.2670  2.2329  0.6561
   31SAPC    HB 4115   3.661   5.759   6.475 -1.0376 -2.4320  2.5652
   31SAPC    C2 4116   3.823   5.697   6.612 -0.2511  0.0444 -0.4589
   31SAPC    HS 4117   3.791   5.787   6.668  0.3275 -0.3228  0.4657
   31SAPC   O21 4118   3.966   5.683   6.602 -0.5124 -0.1058 -0.1186
   31SAPC   C21 4119   4.036   5.803   6.635 -0.0359  0.6579 -0.0388
   31SAPC   O22 4120   3.981   5.909   6.655 -0.2178  0.0979  0.6575
   31SAPC   C22 4121   4.187   5.776   6.640 -0.2686 -0.1446  0.4215
   31SAPC   H2R 4122   4.207   5.669   6.659  0.4716  0.3239  2.3704
   31SAPC   H2S 4123   4.225   5.790   6.536 -0.0101 -0.8194  0.4232
   31SAPC    C3 4124   3.769   5.573   6.685 -0.2765  0.0076  0.2175
   31SAPC    HX 4125   3.798   5.478   6.636  1.6232  0.6552  0.0347
   31SAPC    HY 4126   3.658   5.574   6.680 -0.4584 -3.3556  2.2956
   31SAPC   O31 4127   3.822   5.565   6.818 -0.2539  0.1919  0.2633
   31SAPC   C31 4128   3.768   5.638   6.913 -0.3670 -0.3653  0.0472
   31SAPC   O32 4129   3.666   5.695   6.903 -0.3602 -0.2532  0.0400
   31SAPC   C32 4130   3.864   5.645   7.036  0.1626  0.0719 -0.2290
   31SAPC   H2X 4131   3.922   5.739   7.027 -1.5027  1.1097 -0.3113
   31SAPC   H2Y 4132   3.939   5.563   7.036 -0.4360 -0.4863 -0.5775
   31SAPC   C23 4133   4.246   5.852   6.754 -0.1627  0.2594  0.0309
   31SAPC   H3R 4134   4.237   5.962   6.739  1.2251  0.1535 -1.8379
   31SAPC   H3S 4135   4.356   5.835   6.745 -0.6764 -2.5560 -1.2457
   31SAPC   C24 4136   4.207   5.819   6.903  0.1000  0.6162 -0.3430
   31SAPC   H4R 4137   4.097   5.805   6.909  0.4874 -2.0238  1.1485
   31SAPC   H4S 4138   4.238   5.903   6.968  0.2022  1.1854 -1.1221
   31SAPC   C25 4139   4.267   5.685   6.953 -0.1499 -0.0952 -0.2291
   31SAPC   H5R 4140   4.243   5.602   6.885  0.5143  0.8187 -1.6033
   31SAPC   C26 4141   4.325   5.654   7.074  0.0681  0.0564  0.2318
   31SAPC   H6R 4142   4.331   5.548   7.101  4.4653  0.9608  3.2395
   31SAPC   C27 4143   4.354   5.748   7.191  0.1296 -0.7770  0.3169
   31SAPC   H7R 4144   4.367   5.849   7.147 -0.9341 -0.6189  0.3567
   31SAPC   H7S 4145   4.444   5.713   7.245  1.1183 -0.0989 -0.8796
   31SAPC   C28 4146   4.227   5.752   7.282 -0.3862  0.4733  0.2220
   31SAPC   H8R 4147   4.143   5.692   7.246  1.3096 -0.8401 -1.6810
   31SAPC   C29 4148   4.221   5.809   7.402  1.0261 -0.2470 -0.6510
   31SAPC   H9R 4149   4.127   5.813   7.460  0.3661  0.2597 -1.7604
   31SAPC  C210 4150   4.324   5.892   7.469 -0.2582  0.0958  0.2284
   31SAPC  H10R 4151   4.295   5.999   7.465 -0.5307  0.1316  2.4762
   31SAPC  H10S 4152   4.423   5.889   7.418 -0.7070  2.7781 -0.8673
   31SAPC  C211 4153   4.345   5.871   7.614 -0.3654 -0.1628  0.3554
   31SAPC  H11R 4154   4.336   5.965   7.670  1.5652 -1.1805  2.4472
   31SAPC  C212 4155   4.365   5.759   7.685 -0.1247 -0.1867 -0.1114
   31SAPC  H12R 4156   4.366   5.765   7.795 -0.3434  0.9889 -0.1626
   31SAPC  C213 4157   4.358   5.621   7.620  0.0651  0.0204 -0.8539
   31SAPC  H13R 4158   4.413   5.616   7.523  1.3817  2.1926 -0.2608
   31SAPC  H13S 4159   4.249   5.607   7.605 -0.2788 -0.6689  2.0131
   31SAPC  C214 4160   4.416   5.513   7.718  0.5316  0.3996 -0.1986
   31SAPC  H14R 4161   4.519   5.533   7.751  2.2251 -4.1364 -2.2824
   31SAPC  C215 4162   4.349   5.398   7.751 -0.3822 -0.1228  0.2235
   31SAPC  H15R 4163   4.387   5.317   7.814  0.7979  0.1545 -0.1227
   31SAPC  C216 4164   4.213   5.357   7.701 -1.1516  0.4513 -0.1096
   31SAPC  H16R 4165   4.151   5.449   7.689 -2.0663 -0.2066 -0.4711
   31SAPC  H16S 4166   4.172   5.292   7.780 -0.1092 -2.7581 -2.1240
   31SAPC  C217 4167   4.211   5.277   7.569  0.0672 -0.5793 -0.1292
   31SAPC  H17R 4168   4.108   5.238   7.557  0.6340 -2.2794  0.3261
   31SAPC  H17S 4169   4.271   5.185   7.587 -1.3322 -0.9079  3.1731
   31SAPC  C218 4170   4.252   5.354   7.443 -0.1193 -0.3067 -0.0910
   31SAPC  H18R 4171   4.347   5.412   7.451 -0.4465  0.3156 -0.6468
   31SAPC  H18S 4172   4.187   5.444   7.444  2.4087  1.6232 -1.4846
   31SAPC  C219 4173   4.259   5.284   7.313  0.1823  0.3554  0.6684
   31SAPC  H19R 4174   4.347   5.217   7.320 -0.3092 -0.6671 -2.1614
   31SAPC  H19S 4175   4.280   5.352   7.228 -1.6620  1.5090  1.1185
   31SAPC  C220 4176   4.141   5.197   7.275 -0.0251  0.3923  0.2689
   31SAPC  H20R 4177   4.155   5.149   7.176  0.3819  2.0594 -0.5041
   31SAPC  H20S 4178   4.047   5.256   7.274 -1.7685 -2.2912 -0.9704
   31SAPC  H20T 4179   4.116   5.117   7.348 -0.1413 -0.1085 -0.3176
   31SAPC   C33 4180   3.784   5.653   7.166  0.8426  0.3737 -0.6690
   31SAPC   H3X 4181   3.696   5.584   7.159  0.1035  1.4063 -1.8086
   31SAPC   H3Y 4182   3.749   5.758   7.178 -0.3786 -0.2664  1.6525
   31SAPC   C34 4183   3.871   5.609   7.283  0.3637  0.7304 -0.1038
   31SAPC   H4X 4184   3.954   5.684   7.281  1.2825 -0.2523  0.4185
   31SAPC   H4Y 4185   3.911   5.505   7.272  2.3469  1.3974  0.5003
   31SAPC   C35 4186   3.798   5.631   7.415 -0.4501  0.4834  0.2417
   31SAPC   H5X 4187   3.713   5.561   7.408 -1.5320  1.7117  0.8097
   31SAPC   H5Y 4188   3.751   5.732   7.423  1.1452  1.6103 -3.3030
   31SAPC   C36 4189   3.877   5.593   7.539  0.3344 -1.1754 -0.4407
   31SAPC   H6X 4190   3.969   5.652   7.557 -0.3835 -0.1319 -0.1280
   31SAPC   H6Y 4191   3.915   5.489   7.533 -2.3117 -2.1911 -0.3441
   31SAPC   C37 4192   3.799   5.602   7.668  0.3795 -0.3877 -0.1747
   31SAPC   H7X 4193   3.707   5.543   7.647  1.4438 -2.3129  0.5817
   31SAPC   H7Y 4194   3.763   5.706   7.686 -0.2807 -0.8377  1.1186
   31SAPC   C38 4195   3.875   5.547   7.789  0.0261 -0.7008 -0.1558
   31SAPC   H8X 4196   3.936   5.460   7.754 -0.7386 -0.8797 -1.0726
   31SAPC   H8Y 4197   3.796   5.519   7.862  1.9074 -1.8817  1.4943
   31SAPC   C39 4198   3.960   5.658   7.851  0.1542 -0.4455  0.5396
   31SAPC   H9X 4199   3.928   5.757   7.812  1.2378 -0.4281 -0.3314
   31SAPC   H9Y 4200   4.064   5.631   7.821 -0.4171 -1.9105 -0.1610
   31SAPC  C310 4201   3.961   5.657   8.005  0.0732  0.0101 -0.0233
   31SAPC  H10X 4202   4.061   5.693   8.037 -0.3341  0.0842  1.1688
   31SAPC  H10Y 4203   3.938   5.555   8.042  0.6202  0.0924  0.5533
   31SAPC  C311 4204   3.860   5.763   8.057 -0.2892  0.6614 -0.2901
   31SAPC  H11X 4205   3.758   5.736   8.021 -0.0125  1.2057 -1.4697
   31SAPC  H11Y 4206   3.894   5.860   8.016  1.5677  0.0695 -0.2217
   31SAPC  C312 4207   3.850   5.768   8.211 -0.2689  0.0710 -0.3033
   31SAPC  H12X 4208   3.949   5.772   8.263 -0.6811  1.0681  0.4282
   31SAPC  H12Y 4209   3.811   5.667   8.234 -1.4231  0.9008  1.5401
   31SAPC  C313 4210   3.767   5.889   8.265  0.5069  0.0686 -0.6795
   31SAPC  H13X 4211   3.672   5.889   8.206 -0.4471  0.6319  0.8186
   31SAPC  H13Y 4212   3.818   5.983   8.234  2.0291 -0.7748 -0.7461
   31SAPC  C314 4213   3.743   5.893   8.419  0.2774  0.1066 -0.0195
   31SAPC  H14X 4214   3.693   5.989   8.445 -0.8243  0.0378 -1.8347
   31SAPC  H14Y 4215   3.850   5.893   8.451 -0.0490  0.6906  1.0821
   31SAPC  C315 4216   3.668   5.776   8.474  0.0177 -0.2255  0.0505
   31SAPC  H15X 4217   3.726   5.682   8.480  0.7511  0.3188  1.8634
   31SAPC  H15Y 4218   3.576   5.770   8.412  1.2601 -0.1269 -1.8453
   31SAPC  C316 4219   3.624   5.806   8.622 -0.1273  0.7593  0.3276
   31SAPC  H16X 4220   3.554   5.892   8.616  0.0327  1.0114  1.9933
   31SAPC  H16Y 4221   3.713   5.834   8.682 -1.7793  1.7803  2.3221
   31SAPC  C317 4222   3.551   5.687   8.694  0.0906 -0.8500 -0.0195
   31SAPC  H17X 4223   3.578   5.590   8.647 -1.6441 -1.0723 -0.5690
   31SAPC  H17Y 4224   3.442   5.698   8.681  0.1286 -0.0350  0.3198
   31SAPC  C318 4225   3.586   5.684   8.844  0.2353 -0.1519 -0.9513
   31SAPC  H18X 4226   3.579   5.786   8.887  0.6867 -1.4055  2.2888
   31SAPC  H18Y 4227   3.689   5.649   8.870  0.6070  0.7068 -1.2707
   31SAPC  H18Z 4228   3.515   5.618   8.899 -0.4091  0.4428 -1.0716
   32SAPC     N 4229   5.996   0.409   6.131  0.2812 -0.4315 -0.5914
   32SAPC   C12 4230   5.884   0.315   6.151 -0.6637 -0.2281 -0.1867
   32SAPC  H12A 4231   5.918   0.215   6.133  0.6336 -0.3389  2.6459
   32SAPC  H12B 4232   5.798   0.337   6.089 -0.0417 -0.2948 -1.0730
   32SAPC   C13 4233   6.060   0.389   5.996 -0.1778 -0.0865  0.7371
   32SAPC  H13A 4234   5.989   0.398   5.915 -0.6418 -0.6237  1.0782
   32SAPC  H13B 4235   6.151   0.447   5.988  0.6486 -1.5115 -0.5801
   32SAPC  H13C 4236   6.087   0.285   5.982  0.7743  0.0576  1.5330
   32SAPC   C14 4237   5.939   0.553   6.137 -0.2588  0.2088  0.1576
   32SAPC  H14A 4238   5.918   0.578   6.240 -2.1820  0.0979 -0.1945
   32SAPC  H14B 4239   6.012   0.628   6.111 -1.1674  1.2868  0.6766
   32SAPC  H14C 4240   5.846   0.570   6.086  0.1927  2.3007 -0.0140
   32SAPC   C15 4241   6.100   0.390   6.240 -0.0900 -0.4320 -0.5614
   32SAPC  H15A 4242   6.158   0.299   6.236 -0.7582 -0.8450 -1.0986
   32SAPC  H15B 4243   6.172   0.470   6.237 -3.7392  2.8898 -2.9473
   32SAPC  H15C 4244   6.054   0.377   6.337 -0.9119  0.2288 -0.8601
   32SAPC   C11 4245   5.825   0.314   6.299 -0.7865  0.6666 -0.8718
   32SAPC  H11A 4246   5.721   0.275   6.308  0.0660 -0.8692  3.4936
   32SAPC  H11B 4247   5.810   0.420   6.331  3.1768  0.2205  2.9566
   32SAPC     P 4248   5.933   0.099   6.393  0.2454  0.3726 -0.0422
   32SAPC   O13 4249   5.953   0.055   6.256 -0.1024  0.1408 -0.9857
   32SAPC   O14 4250   6.040   0.065   6.490 -0.0367 -0.0943 -0.2859
   32SAPC   O12 4251   5.908   0.244   6.396 -0.1456 -0.5136  0.1290
   32SAPC   O11 4252   5.789   0.038   6.445  0.1091  0.1644 -0.1125
   32SAPC    C1 4253   5.772   0.058   6.589  0.0945  0.0726  0.2909
   32SAPC    HA 4254   5.821  -0.031   6.635  0.5561  0.2956  0.2222
   32SAPC    HB 4255   5.806   0.154   6.633  2.1609  0.8052 -2.7238
   32SAPC    C2 4256   5.628   0.036   6.630 -0.6636 -0.4158  0.5158
   32SAPC    HS 4257   5.567   0.121   6.595  0.7964 -0.1143 -1.3456
   32SAPC   O21 4258   5.627  -0.005   6.769 -0.4203  0.5203  0.6826
   32SAPC   C21 4259   5.615   0.104   6.850  0.2062  0.6619 -0.4654
   32SAPC   O22 4260   5.627   0.221   6.811 -0.0118 -0.4682 -0.1387
   32SAPC   C22 4261   5.639   0.063   7.000  0.2566  0.3363 -0.1386
   32SAPC   H2R 4262   5.556  -0.010   7.017  0.8684 -0.8465 -2.1423
   32SAPC   H2S 4263   5.734   0.006   7.002 -2.0919 -3.8210  0.9697
   32SAPC    C3 4264   5.560  -0.076   6.545 -0.2059  1.0296  0.1821
   32SAPC    HX 4265   5.614  -0.161   6.592 -0.9346 -0.0700 -0.9187
   32SAPC    HY 4266   5.576  -0.070   6.435 -2.4815  0.7303 -0.1990
   32SAPC   O31 4267   5.428  -0.078   6.591  0.4763 -0.3731  0.3068
   32SAPC   C31 4268   5.337  -0.102   6.503  0.1075  0.0671 -0.3578
   32SAPC   O32 4269   5.352  -0.138   6.385 -0.4112 -0.1323  0.4386
   32SAPC   C32 4270   5.196  -0.064   6.565  0.0476 -0.1474  0.0147
   32SAPC   H2X 4271   5.146  -0.161   6.586  1.3303 -1.2771 -1.9441
   32SAPC   H2Y 4272   5.139  -0.007   6.489 -0.0054  0.9287  0.8559
   32SAPC   C23 4273   5.635   0.171   7.112 -0.3121 -0.7737  0.2130
   32SAPC   H3R 4274   5.537   0.223   7.109 -0.5605 -1.3014 -1.3827
   32SAPC   H3S 4275   5.708   0.246   7.075 -2.6357  0.0436 -3.0105
   32SAPC   C24 4276   5.656   0.100   7.251  0.3456 -0.4114  0.2702
   32SAPC   H4R 4277   5.577   0.027   7.279  0.6724 -0.4434  1.0921
   32SAPC   H4S 4278   5.636   0.177   7.329 -0.3276  2.0643 -2.2366
   32SAPC   C25 4279   5.796   0.042   7.267  0.3508  0.0981  0.2010
   32SAPC   H5R 4280   5.870   0.050   7.186 -0.8774  2.8198 -0.7433
   32SAPC   C26 4281   5.838  -0.029   7.372 -0.5359 -0.0063  0.3426
   32SAPC   H6R 4282   5.943  -0.062   7.379  0.1416  2.2494  1.4243
   32SAPC   C27 4283   5.754  -0.061   7.495  0.0650  0.1123  0.0097
   32SAPC   H7R 4284   5.646  -0.052   7.470  0.1606 -2.3200 -1.3845
   32SAPC   H7S 4285   5.783   0.015   7.570 -1.1075  2.0247 -1.4314
   32SAPC   C28 4286   5.784  -0.192   7.540  0.1781 -0.4718 -0.2659
   32SAPC   H8R 4287   5.796  -0.266   7.459 -2.6321 -2.2660  0.8797
   32SAPC   C29 4288   5.778  -0.234   7.669  0.3913 -0.7355 -0.3330
   32SAPC   H9R 4289   5.812  -0.335   7.693  1.1381 -0.4263 -0.0472
   32SAPC  C210 4290   5.727  -0.154   7.786  0.3624  0.5624 -0.0018
   32SAPC  H10R 4291   5.651  -0.216   7.839 -0.2583 -1.3622 -2.9855
   32SAPC  H10S 4292   5.669  -0.071   7.740 -0.2303  1.4059  2.2506
   32SAPC  C211 4293   5.840  -0.100   7.877 -0.9038  0.5170  0.3029
   32SAPC  H11R 4294   5.913  -0.050   7.812 -0.5696 -1.2334 -0.6821
   32SAPC  C212 4295   5.854  -0.103   8.012 -0.3201  0.1876  0.2559
   32SAPC  H12R 4296   5.934  -0.049   8.065 -0.4254 -1.4244  2.1088
   32SAPC  C213 4297   5.745  -0.158   8.105  0.5004 -0.4542 -0.3161
   32SAPC  H13R 4298   5.794  -0.222   8.181 -1.4437 -1.0088  0.5035
   32SAPC  H13S 4299   5.681  -0.230   8.050 -0.9415 -0.6465  1.5505
   32SAPC  C214 4300   5.660  -0.047   8.166  0.0329  0.6817 -0.7104
   32SAPC  H14R 4301   5.553  -0.058   8.145  0.4072  1.2014 -2.9762
   32SAPC  C215 4302   5.695   0.061   8.237  0.1713 -0.1352 -0.1257
   32SAPC  H15R 4303   5.608   0.119   8.270  1.1699  0.4837  1.4929
   32SAPC  C216 4304   5.838   0.098   8.284 -0.1290  0.5911 -0.3527
   32SAPC  H16R 4305   5.867   0.202   8.257  0.3587  0.1667 -1.4979
   32SAPC  H16S 4306   5.919   0.027   8.257  0.2926  0.3847  1.4500
   32SAPC  C217 4307   5.840   0.106   8.435 -0.8056  0.1170  0.0836
   32SAPC  H17R 4308   5.933   0.161   8.460 -1.6250  1.5592 -0.0287
   32SAPC  H17S 4309   5.853   0.003   8.477  2.2686  0.2081 -0.4818
   32SAPC  C218 4310   5.726   0.184   8.504  0.0730  0.4527 -0.8136
   32SAPC  H18R 4311   5.627   0.134   8.516  0.1624  0.5723  0.4850
   32SAPC  H18S 4312   5.709   0.273   8.439  0.4552  1.4727  0.4582
   32SAPC  C219 4313   5.769   0.238   8.635 -0.4229 -0.3033 -0.3105
   32SAPC  H19R 4314   5.688   0.301   8.678 -1.4708 -2.3502  0.7816
   32SAPC  H19S 4315   5.865   0.292   8.628 -0.4174 -0.2065  0.4519
   32SAPC  C220 4316   5.790   0.118   8.731 -0.6290 -0.0560 -0.2678
   32SAPC  H20R 4317   5.861   0.047   8.684 -0.4508  0.6734 -1.1047
   32SAPC  H20S 4318   5.690   0.068   8.740 -1.7163  2.3668  1.6014
   32SAPC  H20T 4319   5.833   0.143   8.830 -0.8375 -0.4145 -0.0830
   32SAPC   C33 4320   5.206   0.013   6.706 -0.2553 -0.3296 -0.3930
   32SAPC   H3X 4321   5.124   0.086   6.718 -1.1343 -1.2328 -0.7972
   32SAPC   H3Y 4322   5.300   0.072   6.700  0.1903 -0.9083  0.5991
   32SAPC   C34 4323   5.216  -0.068   6.835 -0.2111 -0.0976 -0.1938
   32SAPC   H4X 4324   5.313  -0.120   6.823 -0.9610 -1.0821 -2.3387
   32SAPC   H4Y 4325   5.132  -0.140   6.847  0.2245 -0.2442  2.1228
   32SAPC   C35 4326   5.216   0.022   6.959  0.5486 -0.2835 -0.2572
   32SAPC   H5X 4327   5.117   0.072   6.961  0.7109  0.0113  0.9045
   32SAPC   H5Y 4328   5.280   0.112   6.948 -3.3900  2.8191  1.0908
   32SAPC   C36 4329   5.245  -0.047   7.093  0.0381  0.7469 -0.2394
   32SAPC   H6X 4330   5.354  -0.070   7.102  0.6550  4.0721  1.7405
   32SAPC   H6Y 4331   5.192  -0.145   7.096 -0.3142  0.9503  0.3613
   32SAPC   C37 4332   5.205   0.042   7.216  0.2535  0.6296 -0.1559
   32SAPC   H7X 4333   5.103   0.082   7.196 -0.3106  0.6289  2.5021
   32SAPC   H7Y 4334   5.270   0.132   7.228 -0.6485  1.2619  0.0949
   32SAPC   C38 4335   5.199  -0.023   7.356 -0.4123  0.0140 -0.4707
   32SAPC   H8X 4336   5.271  -0.107   7.346  1.2711  1.4428 -0.5007
   32SAPC   H8Y 4337   5.106  -0.078   7.381 -1.0027  0.7223 -1.0889
   32SAPC   C39 4338   5.227   0.075   7.463  0.2756 -0.0167  0.0250
   32SAPC   H9X 4339   5.174   0.171   7.444 -0.4677 -0.4829 -0.2719
   32SAPC   H9Y 4340   5.336   0.093   7.479  0.4638 -0.1916 -1.0049
   32SAPC  C310 4341   5.187   0.020   7.600 -0.5697  0.5030 -0.6067
   32SAPC  H10X 4342   5.103  -0.053   7.604  1.9674 -2.5477 -0.6507
   32SAPC  H10Y 4343   5.173   0.107   7.668  1.2044  1.6371 -1.6548
   32SAPC  C311 4344   5.305  -0.059   7.671 -0.0847 -0.5258 -0.2722
   32SAPC  H11X 4345   5.392   0.004   7.700 -0.8778  0.9379 -1.0154
   32SAPC  H11Y 4346   5.343  -0.143   7.610  0.6195  1.8878 -3.2849
   32SAPC  C312 4347   5.245  -0.111   7.806  0.1869  0.3634  0.3397
   32SAPC  H12X 4348   5.154  -0.171   7.788 -0.3284  1.2128  0.0902
   32SAPC  H12Y 4349   5.211  -0.020   7.859  2.0356  0.7756  0.8461
   32SAPC  C313 4350   5.338  -0.191   7.899  0.5795 -0.0019 -0.4548
   32SAPC  H13X 4351   5.436  -0.139   7.907  0.7099 -0.1247 -1.1625
   32SAPC  H13Y 4352   5.356  -0.287   7.845 -1.1287  0.0984 -1.2521
   32SAPC  C314 4353   5.276  -0.227   8.036  0.6099  0.7475  0.4754
   32SAPC  H14X 4354   5.191  -0.297   8.022 -0.2449  1.2987  2.6765
   32SAPC  H14Y 4355   5.236  -0.133   8.079  0.1937  1.2916 -1.0779
   32SAPC  C315 4356   5.373  -0.302   8.133  1.0277  0.0879 -0.1719
   32SAPC  H15X 4357   5.422  -0.222   8.194 -2.3194  1.6469  0.5840
   32SAPC  H15Y 4358   5.456  -0.351   8.078  1.2492  0.9386 -0.6042
   32SAPC  C316 4359   5.300  -0.399   8.218  0.0038 -0.1347 -0.2351
   32SAPC  H16X 4360   5.248  -0.475   8.156  1.1624 -0.5543 -0.7158
   32SAPC  H16Y 4361   5.216  -0.352   8.274 -0.5447 -0.3343 -0.8911
   32SAPC  C317 4362   5.390  -0.468   8.326 -1.0310  0.6995 -0.0151
   32SAPC  H17X 4363   5.470  -0.528   8.277  0.3098  1.8539  0.7168
   32SAPC  H17Y 4364   5.324  -0.538   8.382 -1.5401  1.8515  0.8311
   32SAPC  C318 4365   5.459  -0.389   8.440  0.3660  0.4441  0.4451
   32SAPC  H18X 4366   5.400  -0.313   8.495 -0.3492  0.0982  0.1548
   32SAPC  H18Y 4367   5.551  -0.342   8.399 -0.8092  1.6017 -0.9157
   32SAPC  H18Z 4368   5.499  -0.463   8.513 -0.2764 -2.2227 -1.7995
   33POPC     N 4369   2.860   1.127  10.945 -0.2382  0.2661  0.6460
   33POPC   C12 4370   2.734   1.091  10.869 -0.2568  0.4742  0.7445
   33POPC  H12A 4371   2.670   1.043  10.942 -0.1599 -1.2085 -0.2395
   33POPC  H12B 4372   2.754   1.022  10.789 -2.6827  0.7426 -0.1357
   33POPC   C13 4373   2.823   1.206  11.064 -0.7001 -0.6681  0.3172
   33POPC  H13A 4374   2.789   1.307  11.046  0.3822 -0.2799  0.4159
   33POPC  H13B 4375   2.748   1.155  11.123 -0.4850 -3.0075 -1.3790
   33POPC  H13C 4376   2.908   1.209  11.131  0.8077 -1.2249 -1.5218
   33POPC   C14 4377   2.922   1.000  10.989  0.3773  0.7486 -0.7511
   33POPC  H14A 4378   2.860   0.942  11.056  1.4777 -1.6749 -1.7313
   33POPC  H14B 4379   2.943   0.938  10.903  1.7468  0.7855 -0.4545
   33POPC  H14C 4380   3.017   1.023  11.034  0.0438 -1.7090  1.3826
   33POPC   C15 4381   2.959   1.200  10.860  0.4956  0.6177 -0.4477
   33POPC  H15A 4382   3.049   1.204  10.920 -0.7075  0.3839  1.4427
   33POPC  H15B 4383   2.923   1.299  10.838  0.2869  0.8447  0.8872
   33POPC  H15C 4384   2.977   1.150  10.766 -2.3156 -0.2800 -0.5577
   33POPC   C11 4385   2.667   1.217  10.808 -0.4468 -0.8578  0.4192
   33POPC  H11A 4386   2.649   1.286  10.894 -0.6164 -0.4493  0.0588
   33POPC  H11B 4387   2.572   1.185  10.760 -0.7443  1.9946 -0.9763
   33POPC     P 4388   2.760   1.248  10.569 -0.0654  0.0781  0.2682
   33POPC   O13 4389   2.769   1.103  10.564 -0.0899 -0.0781 -0.0181
   33POPC   O14 4390   2.860   1.333  10.497  0.0137 -0.6161  0.6824
   33POPC   O12 4391   2.738   1.293  10.718 -0.0013  0.6439  0.1977
   33POPC   O11 4392   2.613   1.291  10.521 -0.2082  0.3540  0.4299
   33POPC    C1 4393   2.512   1.205  10.464 -0.3658  0.1599 -0.1888
   33POPC    HA 4394   2.531   1.102  10.500 -1.3238 -0.0112 -0.1785
   33POPC    HB 4395   2.410   1.240  10.490  0.4697  0.7604  2.4363
   33POPC    C2 4396   2.515   1.197  10.308  0.8337 -0.3512  0.1604
   33POPC    HS 4397   2.440   1.120  10.277 -0.6320  1.5625 -1.1303
   33POPC   O21 4398   2.639   1.161  10.257 -0.2331 -0.2423 -0.2714
   33POPC   C21 4399   2.673   1.032  10.283 -0.6777  0.2485  0.7593
   33POPC   O22 4400   2.597   0.939  10.307 -0.2417  0.0704  0.0978
   33POPC   C22 4401   2.820   1.011  10.250 -0.5485 -0.0982  0.3432
   33POPC   H2R 4402   2.868   1.016  10.350  3.1199  2.2488 -1.4190
   33POPC   H2S 4403   2.847   1.092  10.180 -1.5396  0.4102  0.5304
   33POPC    C3 4404   2.460   1.337  10.246  0.0965 -0.1683  0.1253
   33POPC    HX 4405   2.536   1.412  10.277  1.4234 -0.9958 -1.0446
   33POPC    HY 4406   2.365   1.364  10.297  0.2929 -0.4129  0.6350
   33POPC   O31 4407   2.434   1.321  10.102  0.2406 -0.0444  0.3398
   33POPC   C31 4408   2.518   1.386  10.018  0.7619 -0.7500  0.2776
   33POPC   O32 4409   2.611   1.458  10.053 -0.0926 -0.1249 -0.2358
   33POPC   C32 4410   2.503   1.346   9.872 -0.0244  0.6186  0.3918
   33POPC   H2X 4411   2.419   1.408   9.834 -1.5255 -2.2457 -1.1500
   33POPC   H2Y 4412   2.497   1.235   9.869 -1.2001  0.6955 -2.0054
   33POPC   C23 4413   2.858   0.880  10.177 -0.3628 -0.1451  0.0677
   33POPC   H3R 4414   2.815   0.803  10.244  1.5436 -1.3113  0.0220
   33POPC   H3S 4415   2.965   0.858  10.154 -1.1857 -2.3639 -1.9136
   33POPC   C24 4416   2.802   0.859  10.030 -0.6371  0.1262 -0.1785
   33POPC   H4R 4417   2.692   0.871  10.039 -0.5120  2.6504 -1.5071
   33POPC   H4S 4418   2.837   0.765   9.982  3.1193  2.6817 -2.6902
   33POPC   C25 4419   2.837   0.975   9.931  0.5377  0.4897  0.1061
   33POPC   H5R 4420   2.948   0.978   9.926  0.4295  2.1071 -1.7092
   33POPC   H5S 4421   2.803   1.076   9.963 -0.5415 -0.1481  1.0327
   33POPC   C26 4422   2.786   0.942   9.791  0.5082  0.8294  0.2516
   33POPC   H6R 4423   2.676   0.947   9.778  0.3592 -1.4481  0.5615
   33POPC   H6S 4424   2.817   0.841   9.759 -1.1682  0.2752  0.3329
   33POPC   C27 4425   2.863   1.034   9.693 -0.2657 -0.5920  0.0932
   33POPC   H7R 4426   2.971   1.023   9.719  0.4640 -1.0651 -2.8913
   33POPC   H7S 4427   2.816   1.135   9.698  0.1649 -0.3653 -0.3271
   33POPC   C28 4428   2.846   0.993   9.544  0.1632 -0.0655 -1.2941
   33POPC   H8R 4429   2.742   0.975   9.509 -0.1371  3.3497 -2.3351
   33POPC   H8S 4430   2.889   0.891   9.543 -1.3790 -0.7306 -1.3582
   33POPC   C29 4431   2.938   1.086   9.456 -0.9601 -0.0799 -0.1244
   33POPC   H91 4432   3.018   1.145   9.504 -3.9049  3.2205  0.8688
   33POPC  C210 4433   2.908   1.110   9.324  1.0416 -0.4894 -0.4428
   33POPC  H101 4434   2.982   1.167   9.266  1.1269 -1.3871 -1.2341
   33POPC  C211 4435   2.791   1.047   9.249  0.0027 -0.2335  0.6485
   33POPC  H11R 4436   2.731   1.135   9.216  1.9405 -0.0039 -2.4450
   33POPC  H11S 4437   2.720   0.990   9.311 -1.2094  0.5377 -0.0139
   33POPC  C212 4438   2.838   0.964   9.134  0.3486 -0.4644  0.6437
   33POPC  H12R 4439   2.750   0.921   9.083  2.5002 -2.1412 -1.7681
   33POPC  H12S 4440   2.888   0.876   9.178 -1.0642 -2.5624 -1.8267
   33POPC  C213 4441   2.923   1.036   9.024  0.3773  0.4852 -0.2988
   33POPC  H13R 4442   2.953   0.948   8.963 -1.7243 -0.8955  0.5894
   33POPC  H13S 4443   3.016   1.087   9.057  0.8143 -2.2082  2.8570
   33POPC  C214 4444   2.849   1.130   8.932  0.2239  0.5071  0.8506
   33POPC  H14R 4445   2.889   1.234   8.929  0.7963  0.3550  2.5032
   33POPC  H14S 4446   2.748   1.153   8.972  0.3801  0.4133  1.2940
   33POPC  C215 4447   2.840   1.087   8.787  0.3015 -0.3220 -0.2027
   33POPC  H15R 4448   2.752   1.020   8.779  0.1927 -0.3309  0.8999
   33POPC  H15S 4449   2.930   1.028   8.757 -0.3423 -0.5682 -1.6634
   33POPC  C216 4450   2.802   1.199   8.687 -0.6421  0.3989 -0.0965
   33POPC  H16R 4451   2.865   1.173   8.599 -1.3669 -2.4798  0.1745
   33POPC  H16S 4452   2.843   1.294   8.727 -1.3183  1.5834 -2.1487
   33POPC  C217 4453   2.657   1.215   8.664 -0.2998 -0.2943 -0.1350
   33POPC  H17R 4454   2.605   1.245   8.758 -1.6646  0.5405 -1.1313
   33POPC  H17S 4455   2.617   1.113   8.643 -0.5464 -0.6328  1.8641
   33POPC  C218 4456   2.635   1.306   8.535 -1.1411  0.4276  0.5166
   33POPC  H18R 4457   2.525   1.299   8.519 -1.1587  2.9677 -0.7819
   33POPC  H18S 4458   2.684   1.262   8.446 -0.6441 -0.6788  1.3301
   33POPC  H18T 4459   2.665   1.410   8.561 -1.4405  0.3453  1.2098
   33POPC   C33 4460   2.625   1.390   9.786 -0.0076 -0.2999  0.5252
   33POPC   H3X 4461   2.709   1.332   9.829  0.1994 -1.0010 -0.7949
   33POPC   H3Y 4462   2.643   1.500   9.789  1.3491 -0.4961 -0.0174
   33POPC   C34 4463   2.612   1.351   9.633  0.0821  0.2512 -0.3961
   33POPC   H4X 4464   2.605   1.240   9.634 -2.1965  0.3684  0.3627
   33POPC   H4Y 4465   2.701   1.377   9.572  0.3675 -2.3527 -1.1698
   33POPC   C35 4466   2.477   1.396   9.564 -0.3580 -0.1192  0.4218
   33POPC   H5X 4467   2.451   1.503   9.580 -2.5566 -0.1173 -2.7288
   33POPC   H5Y 4468   2.400   1.331   9.611 -0.6981 -1.6065 -2.1146
   33POPC   C36 4469   2.485   1.367   9.409  0.3981  0.0315 -0.0898
   33POPC   H6X 4470   2.385   1.380   9.362  0.0215 -2.5933 -0.0621
   33POPC   H6Y 4471   2.498   1.257   9.402 -1.3380 -0.1828 -0.0219
   33POPC   C37 4472   2.573   1.466   9.334  0.3256 -0.1847  0.3332
   33POPC   H7X 4473   2.680   1.447   9.354  0.3733 -0.0187  0.2374
   33POPC   H7Y 4474   2.548   1.572   9.357  3.5394  0.5873  0.4365
   33POPC   C38 4475   2.557   1.453   9.179 -0.4546 -0.1297 -0.4002
   33POPC   H8X 4476   2.451   1.480   9.161 -0.1952  0.9520 -0.3334
   33POPC   H8Y 4477   2.579   1.345   9.163 -2.7548 -0.8548  1.1447
   33POPC   C39 4478   2.648   1.545   9.087 -0.3844 -0.6623  0.9121
   33POPC   H9X 4479   2.747   1.504   9.060 -0.7116 -1.2191  0.5572
   33POPC   H9Y 4480   2.669   1.634   9.152 -1.4614  1.4832 -1.5845
   33POPC  C310 4481   2.569   1.585   8.964 -0.6403  0.0600 -0.6999
   33POPC  H10X 4482   2.481   1.647   8.994 -1.3282 -0.5124 -1.5163
   33POPC  H10Y 4483   2.533   1.488   8.924  0.6296 -0.2442 -1.1314
   33POPC  C311 4484   2.649   1.656   8.852 -0.0840  0.1438 -0.4696
   33POPC  H11X 4485   2.741   1.597   8.830 -0.1381 -0.0344 -0.2243
   33POPC  H11Y 4486   2.687   1.752   8.895 -1.6255  0.0774  1.0868
   33POPC  C312 4487   2.575   1.691   8.729 -0.0538 -0.4834  0.5442
   33POPC  H12X 4488   2.491   1.762   8.745 -0.9626 -1.3527 -0.2902
   33POPC  H12Y 4489   2.539   1.595   8.687 -1.5711 -0.5053  1.8439
   33POPC  C313 4490   2.672   1.752   8.630  0.8946  0.4155  0.6599
   33POPC  H13X 4491   2.781   1.737   8.643  1.1128  1.5280  0.2280
   33POPC  H13Y 4492   2.670   1.859   8.660  0.4715 -0.2413  3.0670
   33POPC  C314 4493   2.641   1.726   8.481  0.3918  0.2092  0.2446
   33POPC  H14X 4494   2.573   1.639   8.481 -3.4523  3.0992  1.3227
   33POPC  H14Y 4495   2.740   1.700   8.436  1.4829  1.7062  1.7009
   33POPC  C315 4496   2.562   1.844   8.420  0.1919 -0.0381  0.0162
   33POPC  H15X 4497   2.623   1.936   8.403 -1.9929  1.3078 -0.8481
   33POPC  H15Y 4498   2.473   1.864   8.484  0.1477  0.7923 -0.2896
   33POPC  C316 4499   2.490   1.796   8.289 -0.9091 -0.1484  0.1839
   33POPC  H16X 4500   2.432   1.885   8.256  2.5382  1.7966 -0.8431
   33POPC  H16Y 4501   2.423   1.716   8.326  0.1623  0.1669  2.9269
   33POPC  H16Z 4502   2.559   1.762   8.209 -2.1650 -2.3721  0.0021
   34POPC     N 4503   2.707   1.662  10.749  0.5476 -0.2107 -0.1822
   34POPC   C12 4504   2.554   1.684  10.745  0.3690  0.5928 -0.9701
   34POPC  H12A 4505   2.528   1.781  10.707 -1.7117 -0.4690 -2.3323
   34POPC  H12B 4506   2.510   1.681  10.844  0.3707  1.4224 -0.9402
   34POPC   C13 4507   2.753   1.548  10.842 -0.1045 -0.4562 -0.7864
   34POPC  H13A 4508   2.860   1.551  10.849  0.1744 -2.2441 -3.4735
   34POPC  H13B 4509   2.711   1.563  10.940 -0.5594  2.2761 -1.3440
   34POPC  H13C 4510   2.721   1.452  10.804  0.6878 -1.1953  0.3844
   34POPC   C14 4511   2.762   1.653  10.608 -0.6727 -0.4038  0.7808
   34POPC  H14A 4512   2.737   1.744  10.555  0.5884 -1.7200 -2.1760
   34POPC  H14B 4513   2.869   1.642  10.609 -0.2973  2.5474 -0.9981
   34POPC  H14C 4514   2.715   1.571  10.555  1.5405 -1.3857  0.2801
   34POPC   C15 4515   2.767   1.791  10.807 -0.1245  0.3138 -0.5476
   34POPC  H15A 4516   2.777   1.874  10.738  0.8678 -1.6562 -2.8227
   34POPC  H15B 4517   2.871   1.768  10.822 -0.3032 -0.3383 -0.3277
   34POPC  H15C 4518   2.718   1.819  10.899 -1.4074 -4.2828  0.2802
   34POPC   C11 4519   2.472   1.582  10.660 -0.6033 -0.4962 -0.2979
   34POPC  H11A 4520   2.477   1.481  10.706 -1.2027 -1.3264 -2.0116
   34POPC  H11B 4521   2.519   1.581  10.559  2.0166  1.1007  0.8401
   34POPC     P 4522   2.298   1.760  10.581  0.0112  0.0001  0.0026
   34POPC   O13 4523   2.382   1.866  10.647  0.4529 -0.4836 -0.1566
   34POPC   O14 4524   2.154   1.774  10.596 -0.0967  0.1309  0.4473
   34POPC   O12 4525   2.330   1.620  10.647 -0.4175 -0.3126  0.2418
   34POPC   O11 4526   2.340   1.753  10.428  0.3247  0.1543  0.2088
   34POPC    C1 4527   2.260   1.678  10.335 -0.3395  0.6619  0.6690
   34POPC    HA 4528   2.178   1.621  10.385 -0.4040 -0.8353 -1.0828
   34POPC    HB 4529   2.322   1.594  10.295  0.2645  0.3315  2.2679
   34POPC    C2 4530   2.201   1.764  10.221  0.2351 -0.4534  0.5327
   34POPC    HS 4531   2.128   1.698  10.170 -0.1218  0.9507 -0.8029
   34POPC   O21 4532   2.311   1.817  10.139 -0.4016  0.1392  0.4523
   34POPC   C21 4533   2.365   1.727  10.061 -0.7910 -0.6304 -0.1324
   34POPC   O22 4534   2.336   1.612  10.058  0.1368 -0.3060  0.4101
   34POPC   C22 4535   2.481   1.786   9.992  0.6274  0.4144  0.3059
   34POPC   H2R 4536   2.572   1.736  10.032  2.3310  1.4528 -2.1704
   34POPC   H2S 4537   2.496   1.890  10.029  0.0603  0.9275 -0.8944
   34POPC    C3 4538   2.115   1.885  10.280  0.1828 -0.0810 -0.6015
   34POPC    HX 4539   2.170   1.949  10.353  0.1207  0.0938 -0.7069
   34POPC    HY 4540   2.040   1.834  10.345 -0.1172  1.0914 -0.0147
   34POPC   O31 4541   2.052   1.964  10.172  1.0052  0.4099 -0.1213
   34POPC   C31 4542   2.105   2.089  10.165 -0.6019 -0.5879 -0.0963
   34POPC   O32 4543   2.186   2.141  10.246  0.3458  0.1770 -0.2247
   34POPC   C32 4544   2.062   2.148  10.037 -0.1369 -0.2316 -0.0401
   34POPC   H2X 4545   2.041   2.255  10.054  0.7876 -0.3925  2.2644
   34POPC   H2Y 4546   1.980   2.090   9.990 -2.9969  1.2793  2.9288
   34POPC   C23 4547   2.477   1.761   9.836 -0.0346  0.6305  0.5850
   34POPC   H3R 4548   2.378   1.804   9.809 -0.9376 -1.8966 -0.2343
   34POPC   H3S 4549   2.482   1.651   9.827 -0.0028  0.6490  0.3809
   34POPC   C24 4550   2.592   1.836   9.761 -0.2450  0.3583 -0.2992
   34POPC   H4R 4551   2.692   1.798   9.787 -1.3178 -2.6010 -0.3871
   34POPC   H4S 4552   2.585   1.941   9.797  0.9496  0.7312 -1.1302
   34POPC   C25 4553   2.578   1.818   9.609 -0.0237  0.4625 -0.2493
   34POPC   H5R 4554   2.581   1.710   9.587  2.7141  0.3211  0.6477
   34POPC   H5S 4555   2.668   1.850   9.552  0.5129 -1.1220 -0.3015
   34POPC   C26 4556   2.458   1.886   9.545 -0.5702  0.6474  0.7459
   34POPC   H6R 4557   2.478   1.995   9.552  1.9345  0.2919 -0.5333
   34POPC   H6S 4558   2.364   1.868   9.603 -1.4400  2.2168 -0.1364
   34POPC   C27 4559   2.441   1.837   9.401  0.1153  0.2588 -0.1579
   34POPC   H7R 4560   2.357   1.890   9.351 -1.0321 -0.8031  0.6248
   34POPC   H7S 4561   2.422   1.728   9.395  1.0170  0.1364 -0.9849
   34POPC   C28 4562   2.556   1.863   9.307  0.2480  0.5899 -0.2800
   34POPC   H8R 4563   2.532   1.822   9.207  0.9226  0.4770 -0.3986
   34POPC   H8S 4564   2.643   1.805   9.344 -0.5826  0.1685  1.0308
   34POPC   C29 4565   2.595   2.008   9.301 -0.0397 -0.0780 -0.0054
   34POPC   H91 4566   2.666   2.043   9.377  1.7237 -2.4946 -0.4855
   34POPC  C210 4567   2.550   2.098   9.208 -0.0923 -0.5379 -0.2815
   34POPC  H101 4568   2.584   2.203   9.201 -3.6593  0.6101 -1.2900
   34POPC  C211 4569   2.458   2.058   9.092 -0.0907  0.3706 -0.5969
   34POPC  H11R 4570   2.393   2.144   9.063 -0.3866  1.3886  2.8397
   34POPC  H11S 4571   2.395   1.971   9.121  1.7810  0.3730  3.9384
   34POPC  C212 4572   2.515   1.999   8.968  0.0263  0.3540 -0.0571
   34POPC  H12R 4573   2.429   1.961   8.909 -1.2659  0.2369  1.8471
   34POPC  H12S 4574   2.579   1.911   8.991 -0.7095 -0.6447 -1.7311
   34POPC  C213 4575   2.602   2.089   8.881  0.1961  0.1941  0.1493
   34POPC  H13R 4576   2.666   2.019   8.823  0.2308  1.0087 -0.7906
   34POPC  H13S 4577   2.660   2.154   8.951  0.0060 -2.4015  2.8389
   34POPC  C214 4578   2.521   2.177   8.789  0.0420 -0.4021  0.5264
   34POPC  H14R 4579   2.442   2.228   8.848  1.3415  3.9018 -1.2300
   34POPC  H14S 4580   2.466   2.104   8.726  0.0220 -0.2400  0.3560
   34POPC  C215 4581   2.609   2.272   8.703  0.3954  0.4258  0.5800
   34POPC  H15R 4582   2.657   2.208   8.627  1.6131  3.2703 -1.1359
   34POPC  H15S 4583   2.686   2.325   8.763  1.8148 -0.7596 -0.1792
   34POPC  C216 4584   2.531   2.384   8.632  0.5916  0.4854 -0.2413
   34POPC  H16R 4585   2.472   2.431   8.714  0.2774 -1.0506  0.4464
   34POPC  H16S 4586   2.464   2.339   8.555  0.2626  0.2681  0.1661
   34POPC  C217 4587   2.619   2.492   8.567 -0.7850 -0.9558 -0.3334
   34POPC  H17R 4588   2.665   2.453   8.474 -0.3922 -0.5253 -0.3204
   34POPC  H17S 4589   2.710   2.520   8.625  0.0140 -0.7112 -1.6864
   34POPC  C218 4590   2.534   2.618   8.525 -0.5541  0.2730  0.1890
   34POPC  H18R 4591   2.467   2.649   8.608  1.2386  0.2821  1.6661
   34POPC  H18S 4592   2.473   2.597   8.435  0.5675 -0.8210 -0.3253
   34POPC  H18T 4593   2.605   2.700   8.499  0.7976 -0.4193  1.6385
   34POPC   C33 4594   2.180   2.135   9.938  0.2611  0.7369  0.4396
   34POPC   H3X 4595   2.221   2.031   9.935  0.0971  0.7116 -1.9730
   34POPC   H3Y 4596   2.263   2.205   9.961 -0.9948  2.2586  0.4142
   34POPC   C34 4597   2.143   2.173   9.788  0.1447 -0.0025 -0.1876
   34POPC   H4X 4598   2.091   2.271   9.790  2.4172  1.2382  2.8609
   34POPC   H4Y 4599   2.083   2.096   9.737 -0.9214 -0.3456  1.5451
   34POPC   C35 4600   2.264   2.184   9.693  0.2294 -0.7189  0.9018
   34POPC   H5X 4601   2.332   2.096   9.688  0.8242 -0.1669 -0.6320
   34POPC   H5Y 4602   2.325   2.272   9.719 -1.2482  1.0313 -1.3807
   34POPC   C36 4603   2.223   2.211   9.542  0.4236 -0.4941  0.4580
   34POPC   H6X 4604   2.316   2.215   9.482  1.5676 -0.6888  2.1733
   34POPC   H6Y 4605   2.166   2.306   9.541  0.8415 -0.2403  0.5488
   34POPC   C37 4606   2.127   2.108   9.481 -0.3566  0.7033 -0.1827
   34POPC   H7X 4607   2.027   2.113   9.530  0.7530  0.8346  2.1014
   34POPC   H7Y 4608   2.172   2.006   9.476  0.3721  0.9173  1.7808
   34POPC   C38 4609   2.085   2.141   9.337  0.0112 -0.0636  0.4224
   34POPC   H8X 4610   2.168   2.159   9.266  0.2600 -3.3516 -0.1689
   34POPC   H8Y 4611   2.044   2.244   9.341  1.7431  0.6259  1.0567
   34POPC   C39 4612   1.984   2.039   9.272 -0.8960  0.2249  0.0941
   34POPC   H9X 4613   1.902   2.022   9.344 -1.0739 -0.7650 -0.3358
   34POPC   H9Y 4614   2.024   1.937   9.256 -2.5338 -0.4281  0.1508
   34POPC  C310 4615   1.937   2.082   9.130 -0.2650  0.5229 -0.1283
   34POPC  H10X 4616   1.911   2.189   9.144  1.7585  0.7559  2.1031
   34POPC  H10Y 4617   1.853   2.021   9.090  1.2783 -1.1282 -0.9256
   34POPC  C311 4618   2.029   2.079   9.016  0.4489 -0.8814  1.1678
   34POPC  H11X 4619   2.079   1.980   9.021  2.3295  0.0072  0.2061
   34POPC  H11Y 4620   2.108   2.157   9.019 -1.3424  1.1309 -1.6284
   34POPC  C312 4621   1.954   2.094   8.884  0.0242  0.4469 -0.6572
   34POPC  H12X 4622   1.895   2.188   8.874 -2.2051 -0.6811  1.2061
   34POPC  H12Y 4623   1.884   2.011   8.861 -0.4250  0.0369  2.0332
   34POPC  C313 4624   2.045   2.072   8.764 -0.5975 -0.7751  0.5112
   34POPC  H13X 4625   2.119   1.989   8.775  0.3866  0.2078  1.3902
   34POPC  H13Y 4626   2.104   2.164   8.741  0.7721 -1.6873  0.3104
   34POPC  C314 4627   1.970   2.022   8.633 -0.6858 -0.3741 -0.0312
   34POPC  H14X 4628   1.889   2.096   8.616 -0.6598 -0.0823  1.0613
   34POPC  H14Y 4629   1.924   1.921   8.643  0.7220 -0.7554  3.2609
   34POPC  C315 4630   2.061   2.023   8.505  0.3272 -0.4997 -0.4284
   34POPC  H15X 4631   2.139   1.944   8.514  1.7648  0.6201 -2.6215
   34POPC  H15Y 4632   2.117   2.119   8.503 -0.3634 -0.0986 -0.6731
   34POPC  C316 4633   1.977   2.000   8.383 -0.1534 -0.1580  1.3000
   34POPC  H16X 4634   2.033   2.008   8.288 -1.8803 -1.0173  0.1799
   34POPC  H16Y 4635   1.900   2.080   8.391 -1.2074 -0.9729 -0.4363
   34POPC  H16Z 4636   1.931   1.899   8.383  0.9796 -0.6899 -0.4361
   35POPC     N 4637   0.822   5.984  11.421 -0.9885  0.0777  0.1505
   35POPC   C12 4638   0.955   5.916  11.392 -0.3613 -0.4223  0.6514
   35POPC  H12A 4639   0.929   5.812  11.374  0.0452 -0.2889 -0.7488
   35POPC  H12B 4640   1.024   5.917  11.476 -2.0247 -0.7572  2.0609
   35POPC   C13 4641   0.736   5.916  11.530  0.0640 -0.5119 -1.0764
   35POPC  H13A 4642   0.705   5.819  11.494  1.9439 -1.6252  0.2178
   35POPC  H13B 4643   0.780   5.904  11.628  0.3758 -0.7479 -1.2441
   35POPC  H13C 4644   0.639   5.957  11.553 -1.4920 -2.8749 -3.1119
   35POPC   C14 4645   0.850   6.125  11.476 -0.3151 -0.3675  0.0752
   35POPC  H14A 4646   0.924   6.121  11.554  0.3638  1.1011 -0.4572
   35POPC  H14B 4647   0.898   6.193  11.406  0.1299 -0.6057  0.1462
   35POPC  H14C 4648   0.754   6.171  11.493 -0.7237 -1.4420  0.7007
   35POPC   C15 4649   0.747   5.993  11.287 -0.2578 -0.4434  0.0462
   35POPC  H15A 4650   0.648   6.037  11.288  0.9504  2.5934 -3.1719
   35POPC  H15B 4651   0.745   5.900  11.231  1.8222 -0.9264  0.7126
   35POPC  H15C 4652   0.795   6.048  11.207  0.9300 -1.7680 -0.1878
   35POPC   C11 4653   1.049   5.963  11.266  0.0886  0.0275 -0.2638
   35POPC  H11A 4654   0.987   5.941  11.177 -0.5020 -1.5709  0.5192
   35POPC  H11B 4655   1.136   5.893  11.266 -0.3008 -0.4537 -1.5610
   35POPC     P 4656   1.087   6.207  11.154  0.2771 -0.0749 -0.2080
   35POPC   O13 4657   1.097   6.340  11.207 -0.6877 -1.0291  0.1540
   35POPC   O14 4658   0.967   6.184  11.066 -0.2240 -0.6401  0.7706
   35POPC   O12 4659   1.082   6.104  11.279  0.0005 -0.2961  0.0344
   35POPC   O11 4660   1.220   6.158  11.089  0.6511  0.2741 -0.3553
   35POPC    C1 4661   1.296   6.243  11.004  0.0922  0.1402  0.2980
   35POPC    HA 4662   1.396   6.197  10.987 -0.4356 -1.3949  1.2986
   35POPC    HB 4663   1.302   6.342  11.055  2.0114 -1.2564  2.8669
   35POPC    C2 4664   1.217   6.247  10.871  0.4149  0.0898 -0.1665
   35POPC    HS 4665   1.113   6.281  10.891  0.3878 -0.4522  0.6386
   35POPC   O21 4666   1.222   6.116  10.817  0.0585 -0.6421 -0.5068
   35POPC   C21 4667   1.120   6.079  10.743  0.0028 -0.6461 -0.5109
   35POPC   O22 4668   1.012   6.134  10.733  0.3136 -0.3646 -0.3090
   35POPC   C22 4669   1.157   5.940  10.674  0.6037  0.3882 -0.2690
   35POPC   H2R 4670   1.142   5.867  10.756 -3.4227 -0.1650 -1.3507
   35POPC   H2S 4671   1.265   5.931  10.650  0.7523 -1.5240  1.0322
   35POPC    C3 4672   1.265   6.347  10.769 -0.4037  0.0511  0.2420
   35POPC    HX 4673   1.375   6.334  10.771 -0.1975  1.5804 -0.4190
   35POPC    HY 4674   1.250   6.453  10.798  0.4423  0.4413 -0.7559
   35POPC   O31 4675   1.196   6.339  10.641  0.0276  0.4146 -0.0254
   35POPC   C31 4676   1.254   6.394  10.533  1.1374 -0.7380 -0.6117
   35POPC   O32 4677   1.371   6.425  10.520  0.1605 -0.2605 -0.1716
   35POPC   C32 4678   1.151   6.413  10.411  0.1969  0.1147 -0.6377
   35POPC   H2X 4679   1.094   6.504  10.440  0.7944 -0.8667  4.0030
   35POPC   H2Y 4680   1.074   6.333  10.415 -1.2382  1.4469 -1.2468
   35POPC   C23 4681   1.076   5.904  10.545  0.3170 -0.5311  0.2871
   35POPC   H3R 4682   0.968   5.932  10.548  0.6253  1.3166 -3.1230
   35POPC   H3S 4683   1.073   5.794  10.526  1.8318 -0.3562 -1.0145
   35POPC   C24 4684   1.130   5.973  10.416 -0.1620 -0.2544 -0.0729
   35POPC   H4R 4685   1.241   5.961  10.420 -0.3018 -1.2323  1.5844
   35POPC   H4S 4686   1.118   6.083  10.420 -0.8568 -0.3811  1.3441
   35POPC   C25 4687   1.065   5.919  10.287  0.2373  0.2298  0.2703
   35POPC   H5R 4688   0.960   5.953  10.293  1.0991  2.8327  1.5678
   35POPC   H5S 4689   1.070   5.808  10.293 -0.7900 -0.1430 -3.8136
   35POPC   C26 4690   1.118   5.970  10.155  0.3192  0.4161  0.5864
   35POPC   H6R 4691   1.227   5.947  10.161  0.1378 -0.2290  1.5624
   35POPC   H6S 4692   1.114   6.080  10.161 -2.1951  0.4772 -1.5688
   35POPC   C27 4693   1.039   5.910  10.036  0.0624 -0.1597 -0.0189
   35POPC   H7R 4694   0.935   5.949  10.034  0.6490  1.4947  1.2257
   35POPC   H7S 4695   1.023   5.803  10.061  0.2332 -0.7090 -2.1222
   35POPC   C28 4696   1.100   5.934   9.900 -0.5908 -0.0078  0.2771
   35POPC   H8R 4697   1.039   5.891   9.817  0.1020 -0.1747 -0.1472
   35POPC   H8S 4698   1.200   5.885   9.895  0.0085  0.8617  2.8831
   35POPC   C29 4699   1.112   6.080   9.868 -0.8735  0.0818 -0.2310
   35POPC   H91 4700   1.143   6.136   9.957 -1.1510 -1.5584  0.9134
   35POPC  C210 4701   1.089   6.140   9.749 -0.1107 -0.2561 -0.7137
   35POPC  H101 4702   1.087   6.250   9.737  1.4334 -0.1636 -0.2061
   35POPC  C211 4703   1.046   6.074   9.614  0.0732 -0.0784  0.3576
   35POPC  H11R 4704   0.954   6.115   9.568  0.4009 -1.0358 -1.1857
   35POPC  H11S 4705   1.033   5.964   9.624 -0.6223 -0.0463 -0.1784
   35POPC  C212 4706   1.164   6.095   9.514 -0.1436 -0.1646 -0.7823
   35POPC  H12R 4707   1.256   6.057   9.564 -0.1730 -0.1472 -0.7151
   35POPC  H12S 4708   1.191   6.203   9.505  1.3922 -0.4108  0.6212
   35POPC  C213 4709   1.152   6.038   9.372 -0.0012  0.2986 -0.1879
   35POPC  H13R 4710   1.120   5.932   9.381 -2.1929  0.8557 -0.9860
   35POPC  H13S 4711   1.253   6.040   9.327 -1.0124 -1.7976 -2.6510
   35POPC  C214 4712   1.056   6.112   9.283 -0.3924  0.9784 -0.8129
   35POPC  H14R 4713   1.090   6.217   9.273  0.7094  0.7524  0.4109
   35POPC  H14S 4714   0.962   6.132   9.337 -0.0748  0.9187 -0.2330
   35POPC  C215 4715   1.019   6.050   9.148  0.0448  0.2964 -0.3934
   35POPC  H15R 4716   0.918   6.088   9.120 -0.3668 -1.8250 -1.9927
   35POPC  H15S 4717   1.005   5.941   9.165  2.8974  0.3040  2.3264
   35POPC  C216 4718   1.113   6.096   9.032 -0.2013  0.3422 -0.3391
   35POPC  H16R 4719   1.210   6.055   9.066  0.2936 -0.5787 -2.7809
   35POPC  H16S 4720   1.114   6.207   9.026 -1.0869  0.3924  0.2936
   35POPC  C217 4721   1.093   6.052   8.891  0.5506  0.1419  0.2498
   35POPC  H17R 4722   1.121   5.945   8.879 -3.8210 -1.0724  0.0136
   35POPC  H17S 4723   1.150   6.112   8.817 -1.4852  2.5622  0.5920
   35POPC  C218 4724   0.946   6.064   8.844 -0.2207  0.5523  0.1886
   35POPC  H18R 4725   0.937   6.022   8.742 -0.9967  0.4779  0.2849
   35POPC  H18S 4726   0.915   6.171   8.834  1.0915  0.9780  0.4812
   35POPC  H18T 4727   0.877   6.020   8.918 -0.0711 -0.6467 -0.3841
   35POPC   C33 4728   1.221   6.423  10.267  0.0139 -0.3264 -0.6040
   35POPC   H3X 4729   1.259   6.326  10.228 -0.6122  0.2850 -2.8011
   35POPC   H3Y 4730   1.309   6.491  10.266 -0.9020  0.8730  0.0779
   35POPC   C34 4731   1.132   6.472  10.156  0.4053  0.2453 -0.2868
   35POPC   H4X 4732   1.090   6.572  10.179 -1.9635 -1.0729  1.4194
   35POPC   H4Y 4733   1.043   6.407  10.146  0.5995 -0.0934  0.1706
   35POPC   C35 4734   1.193   6.472  10.017  0.1809  0.0854 -0.3759
   35POPC   H5X 4735   1.221   6.369   9.988 -0.8447 -0.8111  1.7081
   35POPC   H5Y 4736   1.293   6.515  10.037 -0.6380  1.2919  1.3130
   35POPC   C36 4737   1.103   6.536   9.910  1.0176  0.2787 -0.4656
   35POPC   H6X 4738   1.077   6.639   9.941 -0.8460 -0.2341 -0.2334
   35POPC   H6Y 4739   1.010   6.475   9.909  1.9588 -1.1595 -2.0961
   35POPC   C37 4740   1.172   6.546   9.776  0.2652  0.1528  0.1945
   35POPC   H7X 4741   1.243   6.462   9.760  0.0146 -0.2745  1.3283
   35POPC   H7Y 4742   1.236   6.637   9.787 -0.4332  0.6663  0.0424
   35POPC   C38 4743   1.081   6.576   9.654  0.4370 -0.6365  0.1657
   35POPC   H8X 4744   1.035   6.676   9.663  1.6731 -0.0607  0.2353
   35POPC   H8Y 4745   1.002   6.499   9.658  2.1182 -2.5913 -2.4343
   35POPC   C39 4746   1.157   6.555   9.529 -1.0071 -0.0813 -0.6586
   35POPC   H9X 4747   1.225   6.467   9.525 -1.4496 -0.4193 -0.8035
   35POPC   H9Y 4748   1.218   6.644   9.505 -0.0308 -0.9505 -1.4787
   35POPC  C310 4749   1.066   6.521   9.408 -0.4113  0.1338  0.3214
   35POPC  H10X 4750   0.987   6.596   9.384 -0.4875 -0.5778 -1.7579
   35POPC  H10Y 4751   1.030   6.420   9.437 -0.6325  0.3625  0.8426
   35POPC  C311 4752   1.128   6.506   9.266  0.0303 -0.7904 -0.1107
   35POPC  H11X 4753   1.215   6.438   9.253 -0.6915 -1.6069 -0.6715
   35POPC  H11Y 4754   1.174   6.604   9.240 -0.0180 -1.0317 -1.1119
   35POPC  C312 4755   1.026   6.481   9.160 -0.1642  0.4034 -0.1199
   35POPC  H12X 4756   0.944   6.555   9.178  1.5254  2.0311  1.1479
   35POPC  H12Y 4757   0.974   6.384   9.172 -1.3089  1.0610  0.3536
   35POPC  C313 4758   1.085   6.510   9.026 -0.1855 -0.3631  0.1278
   35POPC  H13X 4759   1.171   6.442   9.011  1.0710  1.6918 -2.5384
   35POPC  H13Y 4760   1.130   6.612   9.019 -0.1687 -0.3673  0.1783
   35POPC  C314 4761   0.985   6.487   8.907  0.3410  0.4392  0.1034
   35POPC  H14X 4762   0.957   6.380   8.908 -2.1040  1.0547  1.8450
   35POPC  H14Y 4763   1.036   6.509   8.810  0.1166  0.4086 -0.0222
   35POPC  C315 4764   0.861   6.577   8.914 -0.0393 -0.2989 -0.5087
   35POPC  H15X 4765   0.900   6.679   8.892  0.9494 -0.7198 -0.7479
   35POPC  H15Y 4766   0.812   6.573   9.013 -0.0356 -2.3701 -0.5753
   35POPC  C316 4767   0.757   6.547   8.804  0.2997  0.1596  0.0491
   35POPC  H16X 4768   0.657   6.565   8.848 -0.2098 -1.1271 -0.5449
   35POPC  H16Y 4769   0.764   6.441   8.769  0.9545 -0.1527  1.0976
   35POPC  H16Z 4770   0.759   6.612   8.714  1.8753 -0.4821 -0.4068
   36POPC     N 4771   1.691   4.374  11.095 -0.1144  0.2400 -0.2170
   36POPC   C12 4772   1.654   4.508  11.144 -0.5440  0.0437  0.4347
   36POPC  H12A 4773   1.698   4.517  11.242  0.2958  0.2929  0.0300
   36POPC  H12B 4774   1.547   4.509  11.164 -0.4361  1.3621  0.9357
   36POPC   C13 4775   1.823   4.375  11.037  0.2596  0.3662 -0.3090
   36POPC  H13A 4776   1.857   4.274  11.024 -0.2509 -0.0645  1.4842
   36POPC  H13B 4777   1.835   4.429  10.944  1.0075 -0.3708 -0.6456
   36POPC  H13C 4778   1.889   4.432  11.102  0.4197 -1.4303  1.1514
   36POPC   C14 4779   1.690   4.271  11.208 -0.1096 -0.8654 -0.1970
   36POPC  H14A 4780   1.773   4.286  11.276  1.0814 -2.1651 -1.3186
   36POPC  H14B 4781   1.595   4.263  11.259  0.2424 -2.4582  0.2361
   36POPC  H14C 4782   1.714   4.176  11.163  1.4689  0.9194 -3.3426
   36POPC   C15 4783   1.591   4.318  10.997  0.5365  0.3722 -1.1475
   36POPC  H15A 4784   1.621   4.218  10.969  0.0068 -0.4020  0.9407
   36POPC  H15B 4785   1.572   4.372  10.905  1.8596  0.6520 -1.2639
   36POPC  H15C 4786   1.498   4.302  11.049  1.9733 -0.2332  1.3239
   36POPC   C11 4787   1.680   4.625  11.050  0.2094 -0.4628  0.0288
   36POPC  H11A 4788   1.786   4.625  11.015  0.1260  2.9669 -0.4067
   36POPC  H11B 4789   1.662   4.716  11.111  0.1574  0.8983 -1.9451
   36POPC     P 4790   1.475   4.705  10.905  0.0196 -0.2092 -0.1204
   36POPC   O13 4791   1.507   4.850  10.914  0.0550 -0.1985 -0.1505
   36POPC   O14 4792   1.376   4.654  11.003 -0.2035  0.4889 -0.2219
   36POPC   O12 4793   1.606   4.613  10.927 -0.5724 -0.4992 -0.3721
   36POPC   O11 4794   1.420   4.663  10.766  0.1646  0.0198 -0.4454
   36POPC    C1 4795   1.407   4.518  10.741  0.2934  0.3233  0.4384
   36POPC    HA 4796   1.334   4.469  10.810 -0.4753 -0.2918 -0.8020
   36POPC    HB 4797   1.502   4.463  10.756 -0.4986 -1.2316 -0.2392
   36POPC    C2 4798   1.358   4.468  10.598 -0.5281 -0.3727  0.8254
   36POPC    HS 4799   1.386   4.361  10.589  3.0295  0.5802 -0.2417
   36POPC   O21 4800   1.428   4.549  10.496 -0.1651  0.6963 -0.2390
   36POPC   C21 4801   1.558   4.537  10.478  0.4010  0.8649  0.2440
   36POPC   O22 4802   1.631   4.460  10.541  0.3969 -0.0483 -0.6688
   36POPC   C22 4803   1.602   4.642  10.382 -0.4911 -0.5839 -0.4046
   36POPC   H2R 4804   1.695   4.680  10.431 -0.1418 -0.0710 -1.4612
   36POPC   H2S 4805   1.533   4.728  10.374 -0.0462 -0.0501  1.2942
   36POPC    C3 4806   1.202   4.466  10.583  0.0597  0.0813  0.5418
   36POPC    HX 4807   1.160   4.562  10.620 -0.0652  0.3920 -0.3785
   36POPC    HY 4808   1.157   4.386  10.646  0.3731 -0.4165  0.1343
   36POPC   O31 4809   1.158   4.451  10.444  0.5773  0.2152 -0.2074
   36POPC   C31 4810   1.023   4.468  10.440  0.2494  0.3867  0.1981
   36POPC   O32 4811   0.952   4.490  10.538 -0.2726  0.0435  0.3369
   36POPC   C32 4812   0.982   4.466  10.297  0.7978  1.1448 -0.1655
   36POPC   H2X 4813   0.886   4.520  10.289 -0.2169 -1.0483 -5.8792
   36POPC   H2Y 4814   0.963   4.362  10.261 -1.3311  2.2699 -2.4642
   36POPC   C23 4815   1.639   4.584  10.244  0.0071 -0.1183 -0.3105
   36POPC   H3R 4816   1.685   4.671  10.193  0.9874 -1.4332 -1.7112
   36POPC   H3S 4817   1.547   4.555  10.190  0.2266 -3.4147  0.9563
   36POPC   C24 4818   1.744   4.471  10.249 -0.1624  0.6398 -0.3941
   36POPC   H4R 4819   1.708   4.391  10.317 -2.6251  0.3895 -1.9356
   36POPC   H4S 4820   1.841   4.508  10.289 -0.0680 -0.5983  0.5482
   36POPC   C25 4821   1.765   4.411  10.107  0.5443 -0.0636  0.2065
   36POPC   H5R 4822   1.673   4.354  10.083  1.5794 -2.8032  2.4444
   36POPC   H5S 4823   1.837   4.327  10.113 -0.3751 -0.7724  1.6594
   36POPC   C26 4824   1.806   4.495   9.986 -0.4124 -0.8754  0.2941
   36POPC   H6R 4825   1.901   4.547  10.014 -3.2086  3.5466  2.1310
   36POPC   H6S 4826   1.735   4.581   9.979 -1.5259 -1.5242  3.0224
   36POPC   C27 4827   1.816   4.441   9.845 -0.6863  1.4390  0.7242
   36POPC   H7R 4828   1.883   4.352   9.845 -0.5019  1.5754  2.1418
   36POPC   H7S 4829   1.880   4.507   9.783  1.7763 -1.0960  0.4730
   36POPC   C28 4830   1.678   4.398   9.782  0.6884  0.5697  0.0901
   36POPC   H8R 4831   1.634   4.317   9.843 -0.6401  0.0205 -1.5514
   36POPC   H8S 4832   1.696   4.353   9.682 -0.7941 -1.0205  0.5215
   36POPC   C29 4833   1.575   4.515   9.766  0.0183  0.3022 -0.8459
   36POPC   H91 4834   1.533   4.554   9.860 -0.8712 -1.2717 -0.5718
   36POPC  C210 4835   1.544   4.586   9.649 -1.3486 -0.3442 -0.1458
   36POPC  H101 4836   1.477   4.673   9.656 -1.1540 -0.0535 -1.6366
   36POPC  C211 4837   1.596   4.554   9.509  0.7185  0.2892 -0.1007
   36POPC  H11R 4838   1.515   4.571   9.435  1.0832  3.2094  0.0939
   36POPC  H11S 4839   1.619   4.445   9.505 -2.2642 -0.3494 -0.8292
   36POPC  C212 4840   1.713   4.627   9.441  1.0283  0.5132 -0.2220
   36POPC  H12R 4841   1.812   4.593   9.479  0.3692 -0.4076  0.6910
   36POPC  H12S 4842   1.699   4.735   9.465 -0.5187  0.4478 -0.7864
   36POPC  C213 4843   1.720   4.612   9.292  0.1941 -0.2077  0.1247
   36POPC  H13R 4844   1.622   4.656   9.263  0.1257  0.3730  1.2444
   36POPC  H13S 4845   1.732   4.507   9.256  1.5012  0.1170 -0.4185
   36POPC  C214 4846   1.829   4.699   9.229  0.0570  0.1180  0.2701
   36POPC  H14R 4847   1.933   4.676   9.262  1.6782  1.8165 -3.3564
   36POPC  H14S 4848   1.799   4.803   9.255  0.6281  0.6896 -1.3076
   36POPC  C215 4849   1.818   4.693   9.079  0.0207 -0.1091 -0.5187
   36POPC  H15R 4850   1.710   4.711   9.061 -0.2862 -1.4025  0.0048
   36POPC  H15S 4851   1.838   4.593   9.034  0.1971  0.4545 -1.7288
   36POPC  C216 4852   1.877   4.812   8.999 -1.0684 -0.3666  0.1873
   36POPC  H16R 4853   1.982   4.789   8.969 -0.8746  1.2887 -0.4679
   36POPC  H16S 4854   1.873   4.901   9.066 -0.7543 -2.0285  2.4789
   36POPC  C217 4855   1.790   4.858   8.881  0.0643 -0.4452  0.6870
   36POPC  H17R 4856   1.846   4.936   8.825 -0.4031 -1.8827 -1.8758
   36POPC  H17S 4857   1.694   4.895   8.924 -0.0894 -1.0468  0.8732
   36POPC  C218 4858   1.751   4.761   8.769  0.6814 -0.2759  0.0092
   36POPC  H18R 4859   1.701   4.816   8.687  0.6328 -1.1628 -0.5597
   36POPC  H18S 4860   1.682   4.684   8.810  1.4823 -0.8626  0.2739
   36POPC  H18T 4861   1.843   4.707   8.736  1.1824  0.2047  0.6048
   36POPC   C33 4862   1.095   4.521  10.196  0.4836 -0.0751 -0.0781
   36POPC   H3X 4863   1.196   4.482  10.220  0.1902 -0.6502  0.2128
   36POPC   H3Y 4864   1.099   4.631  10.215  1.1168  0.2368 -1.9312
   36POPC   C34 4865   1.068   4.501  10.045 -0.7319  0.1216  0.2383
   36POPC   H4X 4866   0.962   4.522  10.021 -1.1767 -2.9279 -0.6905
   36POPC   H4Y 4867   1.089   4.394  10.022 -2.6182 -0.1548 -0.2636
   36POPC   C35 4868   1.174   4.590   9.967 -0.0419 -0.1154 -0.2982
   36POPC   H5X 4869   1.271   4.585  10.020  0.0357  1.3145 -0.2867
   36POPC   H5Y 4870   1.144   4.696   9.973 -3.6663 -1.0304 -1.0380
   36POPC   C36 4871   1.186   4.551   9.820  0.1978 -0.3775 -0.1560
   36POPC   H6X 4872   1.210   4.443   9.817 -2.0076 -0.9844  2.1687
   36POPC   H6Y 4873   1.270   4.607   9.774 -0.4661  0.2384 -0.6328
   36POPC   C37 4874   1.054   4.586   9.738  1.1975 -0.2200 -0.1478
   36POPC   H7X 4875   1.061   4.696   9.740  0.9325 -0.2027 -0.1423
   36POPC   H7Y 4876   0.962   4.558   9.794  2.0068  0.0044  1.3485
   36POPC   C38 4877   1.063   4.521   9.599 -0.8176  0.0640 -0.8042
   36POPC   H8X 4878   0.981   4.563   9.536 -1.6228 -2.0849 -1.2385
   36POPC   H8Y 4879   1.050   4.411   9.604  1.6201 -0.3070 -1.9774
   36POPC   C39 4880   1.194   4.543   9.513 -0.3046 -0.2697 -0.4294
   36POPC   H9X 4881   1.268   4.471   9.555 -0.2992  0.2521  0.4531
   36POPC   H9Y 4882   1.235   4.643   9.537 -1.3466  0.4872 -1.6919
   36POPC  C310 4883   1.171   4.538   9.366 -0.3047 -0.3196  0.2930
   36POPC  H10X 4884   1.116   4.630   9.335  0.5075  0.3118  0.6971
   36POPC  H10Y 4885   1.098   4.459   9.340 -0.4853 -0.1672  0.3302
   36POPC  C311 4886   1.296   4.526   9.272  0.8109  0.4659  1.1540
   36POPC  H11X 4887   1.358   4.440   9.306  1.6241  0.0293 -1.2958
   36POPC  H11Y 4888   1.347   4.624   9.284 -0.7149  1.4572 -0.2974
   36POPC  C312 4889   1.237   4.509   9.129 -0.0043  0.3456  0.8648
   36POPC  H12X 4890   1.227   4.608   9.080  0.2875  0.0398  0.1933
   36POPC  H12Y 4891   1.141   4.454   9.134  0.4481 -0.4841  0.6415
   36POPC  C313 4892   1.324   4.426   9.029  0.3948 -1.0860  0.0746
   36POPC  H13X 4893   1.279   4.440   8.929  0.6097 -2.9915 -0.3158
   36POPC  H13Y 4894   1.323   4.318   9.055 -0.2860 -0.7948  1.2963
   36POPC  C314 4895   1.466   4.484   9.017  0.3406 -0.1574 -0.2240
   36POPC  H14X 4896   1.511   4.487   9.118 -0.6688 -0.5501  0.2458
   36POPC  H14Y 4897   1.444   4.581   8.966  0.8391 -0.3028 -0.7226
   36POPC  C315 4898   1.572   4.406   8.929  1.1777 -0.9443 -0.0508
   36POPC  H15X 4899   1.652   4.482   8.916  0.3630  0.4454  2.5520
   36POPC  H15Y 4900   1.520   4.385   8.834  0.1005  2.1159 -0.2170
   36POPC  C316 4901   1.624   4.279   9.004 -0.0099  0.5021  0.2968
   36POPC  H16X 4902   1.684   4.316   9.090 -0.3969  1.4891  0.1448
   36POPC  H16Y 4903   1.679   4.214   8.932 -2.1605 -0.7921 -0.2198
   36POPC  H16Z 4904   1.538   4.228   9.052 -0.9626 -0.5364 -2.4090
   37POPC     N 4905   0.385   0.219   6.199 -0.0449 -0.1301 -0.7253
   37POPC   C12 4906   0.368   0.110   6.309 -0.6824 -0.5009 -0.2478
   37POPC  H12A 4907   0.449   0.120   6.380  0.1262 -0.1232 -1.2184
   37POPC  H12B 4908   0.364   0.009   6.273  1.1021 -0.6182 -0.1655
   37POPC   C13 4909   0.489   0.188   6.100  0.7304  0.0512  0.3945
   37POPC  H13A 4910   0.457   0.120   6.021 -1.1331 -0.0627  1.2253
   37POPC  H13B 4911   0.530   0.272   6.047 -0.8079 -1.0860 -2.7561
   37POPC  H13C 4912   0.573   0.143   6.151  1.9811  3.1479  1.1245
   37POPC   C14 4913   0.260   0.241   6.114  0.2725 -0.2113  0.5182
   37POPC  H14A 4914   0.235   0.160   6.048  0.1531 -0.7951  1.2796
   37POPC  H14B 4915   0.171   0.266   6.170 -0.0274 -1.7059  0.7202
   37POPC  H14C 4916   0.288   0.323   6.049  0.0256  0.0698  0.7606
   37POPC   C15 4917   0.413   0.352   6.259  0.4968  0.1807 -0.5554
   37POPC  H15A 4918   0.515   0.366   6.290  1.4148 -1.0430 -2.9523
   37POPC  H15B 4919   0.351   0.382   6.343  0.3853  1.0282 -0.9448
   37POPC  H15C 4920   0.386   0.418   6.179  2.7341  1.0855 -0.6037
   37POPC   C11 4921   0.225   0.115   6.375  0.2645  0.0218 -0.4241
   37POPC  H11A 4922   0.201   0.035   6.448  1.5212 -1.6180 -1.7604
   37POPC  H11B 4923   0.162   0.083   6.290 -0.0615  0.0799 -0.2047
   37POPC     P 4924   0.193   0.300   6.572 -0.5803  0.2020 -0.2726
   37POPC   O13 4925   0.127   0.433   6.568  0.5079  0.2693  0.2324
   37POPC   O14 4926   0.330   0.285   6.618 -0.4642 -0.2564 -0.2962
   37POPC   O12 4927   0.185   0.247   6.423  0.0489 -0.3301  0.4589
   37POPC   O11 4928   0.107   0.186   6.644  0.0482 -0.3531 -0.1319
   37POPC    C1 4929  -0.035   0.179   6.652 -0.3469 -0.4032  0.6351
   37POPC    HA 4930  -0.074   0.076   6.662  2.0401 -1.4210 -0.2659
   37POPC    HB 4931  -0.072   0.211   6.552  1.3361  2.4810  0.8841
   37POPC    C2 4932  -0.093   0.271   6.756  0.7523 -0.4458 -0.5953
   37POPC    HS 4933  -0.059   0.376   6.740 -1.3660  0.1147 -1.5664
   37POPC   O21 4934  -0.055   0.216   6.883  0.4174 -1.3823  0.2342
   37POPC   C21 4935  -0.049   0.304   6.976 -0.7080  0.4549  0.1856
   37POPC   O22 4936  -0.063   0.426   6.966 -0.1652 -0.3848 -0.6180
   37POPC   C22 4937   0.001   0.232   7.105 -0.0887  0.2431  0.6806
   37POPC   H2R 4938   0.099   0.191   7.074 -1.3776 -2.5363  0.0589
   37POPC   H2S 4939  -0.073   0.151   7.125 -0.5907  0.6351  0.4223
   37POPC    C3 4940  -0.253   0.279   6.746 -0.4432  0.4064  0.1184
   37POPC    HX 4941  -0.289   0.174   6.751 -0.4552  0.3557 -0.9287
   37POPC    HY 4942  -0.271   0.316   6.643  1.1007 -0.3930 -0.4446
   37POPC   O31 4943  -0.320   0.361   6.842  0.3836  0.0332  0.0171
   37POPC   C31 4944  -0.336   0.491   6.804 -0.2569 -0.3805  0.5511
   37POPC   O32 4945  -0.275   0.537   6.708 -0.3718  0.5439  0.6375
   37POPC   C32 4946  -0.422   0.561   6.903 -0.3691  0.4045 -0.1133
   37POPC   H2X 4947  -0.527   0.527   6.891 -0.3323  0.1663  0.2277
   37POPC   H2Y 4948  -0.420   0.671   6.893 -0.3143  0.1099 -4.0734
   37POPC   C23 4949  -0.005   0.338   7.223 -0.0809 -0.9246 -0.9294
   37POPC   H3R 4950  -0.086   0.413   7.232  0.3457 -0.5931  0.2255
   37POPC   H3S 4951   0.085   0.403   7.227 -0.0269 -1.0848  1.0701
   37POPC   C24 4952  -0.006   0.270   7.355  0.0340  0.0485 -0.0832
   37POPC   H4R 4953   0.027   0.165   7.340 -0.0340  0.2582 -1.7529
   37POPC   H4S 4954  -0.109   0.262   7.396 -0.8193 -0.6453 -2.2950
   37POPC   C25 4955   0.082   0.339   7.461 -0.0783  0.2978 -0.2179
   37POPC   H5R 4956   0.034   0.437   7.480  0.0247  0.0380  1.4485
   37POPC   H5S 4957   0.189   0.347   7.429  0.0429 -0.4000 -0.0011
   37POPC   C26 4958   0.071   0.267   7.600  0.3243 -0.1539 -0.2763
   37POPC   H6R 4959   0.150   0.290   7.675  0.4052  0.0080 -0.4108
   37POPC   H6S 4960   0.069   0.159   7.574 -1.1733  0.1199 -1.2998
   37POPC   C27 4961  -0.063   0.309   7.673 -0.0133  0.1602 -0.3525
   37POPC   H7R 4962  -0.088   0.244   7.759 -0.3575 -0.5253 -0.9639
   37POPC   H7S 4963  -0.147   0.306   7.601 -0.5360 -1.2766  0.2925
   37POPC   C28 4964  -0.082   0.452   7.727 -0.4665  0.0737 -0.3519
   37POPC   H8R 4965  -0.053   0.520   7.643 -0.2731  1.0873  0.5199
   37POPC   H8S 4966  -0.004   0.473   7.804  0.3539  0.8448 -1.3727
   37POPC   C29 4967  -0.226   0.476   7.767 -0.5944 -0.2927  0.0533
   37POPC   H91 4968  -0.291   0.515   7.687  0.8042 -0.4718 -1.2025
   37POPC  C210 4969  -0.277   0.445   7.889  0.7800 -0.3221 -0.3688
   37POPC  H101 4970  -0.384   0.464   7.907  1.1296  2.3851 -1.0089
   37POPC  C211 4971  -0.197   0.394   8.002  0.8348 -0.2149 -0.6585
   37POPC  H11R 4972  -0.095   0.361   7.976  0.3071 -1.8151 -0.7329
   37POPC  H11S 4973  -0.255   0.307   8.040  0.9652 -0.6447 -1.4331
   37POPC  C212 4974  -0.189   0.491   8.123 -0.7871 -0.4327 -0.0237
   37POPC  H12R 4975  -0.109   0.567   8.108 -0.9202 -0.0159  1.3176
   37POPC  H12S 4976  -0.158   0.427   8.208 -0.1265  0.5684  0.5030
   37POPC  C213 4977  -0.321   0.558   8.173  0.1674  0.3237  0.5381
   37POPC  H13R 4978  -0.404   0.483   8.172  0.8495 -0.4387  0.1271
   37POPC  H13S 4979  -0.347   0.628   8.091  0.6239  0.9275  0.9101
   37POPC  C214 4980  -0.297   0.632   8.302  0.0253 -1.0917 -0.7666
   37POPC  H14R 4981  -0.228   0.718   8.288 -2.6537  1.1524 -0.5597
   37POPC  H14S 4982  -0.263   0.554   8.373 -2.1334 -1.9531 -0.6426
   37POPC  C215 4983  -0.422   0.691   8.367 -0.7874  0.2864  0.2930
   37POPC  H15R 4984  -0.505   0.618   8.364 -0.7008  0.2364 -2.5318
   37POPC  H15S 4985  -0.452   0.787   8.319  1.6011  2.0832  2.2810
   37POPC  C216 4986  -0.395   0.722   8.519 -0.3122 -0.2879  0.1530
   37POPC  H16R 4987  -0.325   0.807   8.534  0.3735 -1.2669  2.9309
   37POPC  H16S 4988  -0.344   0.627   8.548 -2.4028 -1.2616  0.7580
   37POPC  C217 4989  -0.528   0.754   8.595 -0.4668 -0.5081  0.0067
   37POPC  H17R 4990  -0.577   0.655   8.592 -0.7407 -0.3713 -0.0738
   37POPC  H17S 4991  -0.597   0.820   8.538 -0.1691  2.2193  2.6825
   37POPC  C218 4992  -0.515   0.800   8.737  0.5766 -0.0061  0.9632
   37POPC  H18R 4993  -0.466   0.900   8.740 -1.0368  0.7882  1.2441
   37POPC  H18S 4994  -0.461   0.723   8.797 -0.7145 -2.7429 -1.2669
   37POPC  H18T 4995  -0.615   0.805   8.785  0.2474 -0.8574  0.3690
   37POPC   C33 4996  -0.385   0.526   7.044  0.1981  0.0126  0.3711
   37POPC   H3X 4997  -0.276   0.530   7.065  0.4614 -3.8315  0.2609
   37POPC   H3Y 4998  -0.420   0.421   7.059 -0.7687  0.1089 -1.1261
   37POPC   C34 4999  -0.446   0.617   7.160  0.2359  0.1412  0.3482
   37POPC   H4X 5000  -0.557   0.614   7.166  0.1500  2.4291  0.1131
   37POPC   H4Y 5001  -0.429   0.725   7.141 -0.1679  0.2140  0.3896
   37POPC   C35 5002  -0.387   0.579   7.297  0.1936  0.2850  0.2911
   37POPC   H5X 5003  -0.408   0.661   7.369  0.0601  1.3959 -0.9806
   37POPC   H5Y 5004  -0.278   0.592   7.287 -0.0330  1.3428 -1.0156
   37POPC   C36 5005  -0.428   0.440   7.360 -0.2600  0.2106  0.0580
   37POPC   H6X 5006  -0.353   0.426   7.440  0.0647 -3.4877 -0.8154
   37POPC   H6Y 5007  -0.403   0.366   7.281 -0.1195  0.7613 -0.4186
   37POPC   C37 5008  -0.576   0.450   7.394  0.7144 -0.4868  0.2734
   37POPC   H7X 5009  -0.639   0.436   7.304  0.1973 -1.0159  0.7128
   37POPC   H7Y 5010  -0.592   0.546   7.448 -3.1743 -0.8255 -0.1677
   37POPC   C38 5011  -0.626   0.327   7.474  0.4423 -0.3178 -0.2134
   37POPC   H8X 5012  -0.579   0.237   7.431 -0.5368 -0.8555 -0.1723
   37POPC   H8Y 5013  -0.735   0.316   7.455  0.2780  2.1947 -1.0400
   37POPC   C39 5014  -0.597   0.349   7.624 -0.3093 -0.6314 -0.5268
   37POPC   H9X 5015  -0.617   0.450   7.665 -1.7735 -0.2051 -2.2452
   37POPC   H9Y 5016  -0.487   0.339   7.631 -0.4306 -1.3497  0.4160
   37POPC  C310 5017  -0.675   0.248   7.711  0.3126  0.2149  0.3655
   37POPC  H10X 5018  -0.648   0.148   7.670 -0.1157  0.6116 -0.8952
   37POPC  H10Y 5019  -0.783   0.270   7.696  0.8965  2.0058 -1.3641
   37POPC  C311 5020  -0.628   0.253   7.857  0.5035  0.2343 -0.3564
   37POPC  H11X 5021  -0.641   0.353   7.901 -1.3110  0.9409 -2.3869
   37POPC  H11Y 5022  -0.519   0.232   7.861  1.0423  2.9215 -0.1191
   37POPC  C312 5023  -0.711   0.156   7.941 -0.3683  0.4387 -0.2421
   37POPC  H12X 5024  -0.698   0.053   7.901 -2.9019 -0.6326  1.5889
   37POPC  H12Y 5025  -0.814   0.196   7.954 -0.9405 -0.1058 -2.9062
   37POPC  C313 5026  -0.651   0.140   8.080  0.0141  0.9185  0.0675
   37POPC  H13X 5027  -0.549   0.095   8.077  0.2168  1.4577 -1.3882
   37POPC  H13Y 5028  -0.714   0.065   8.132 -2.1850  2.6883  0.0033
   37POPC  C314 5029  -0.638   0.263   8.168 -0.9807  0.9117  0.2646
   37POPC  H14X 5030  -0.735   0.315   8.153 -1.9368 -0.7121  0.6473
   37POPC  H14Y 5031  -0.551   0.325   8.138 -0.3935  0.3675  0.8426
   37POPC  C315 5032  -0.619   0.231   8.316 -0.1324 -0.2300 -0.4160
   37POPC  H15X 5033  -0.701   0.169   8.356 -0.0495  1.3455  2.2622
   37POPC  H15Y 5034  -0.623   0.325   8.375  0.1915 -0.2103 -0.4237
   37POPC  C316 5035  -0.481   0.164   8.328  0.2253  0.0398  0.4234
   37POPC  H16X 5036  -0.453   0.146   8.434 -1.9194  2.6543  1.4796
   37POPC  H16Y 5037  -0.402   0.222   8.276  0.1661 -1.9928 -2.0131
   37POPC  H16Z 5038  -0.484   0.062   8.285 -2.1344  0.3076 -0.1499
   38POPC     N 5039   1.832   3.131   5.928 -0.4815 -0.7972  0.4279
   38POPC   C12 5040   1.767   3.246   6.013  0.3263  0.2572  0.2344
   38POPC  H12A 5041   1.661   3.248   5.991  0.1759 -1.2310  0.7182
   38POPC  H12B 5042   1.809   3.339   5.979 -0.4924 -0.0476 -1.6675
   38POPC   C13 5043   1.785   3.000   5.969 -1.2959  0.0008 -0.7458
   38POPC  H13A 5044   1.677   2.993   5.971 -1.4110  1.7236  1.0361
   38POPC  H13B 5045   1.838   2.922   5.918 -0.0045 -0.8102  1.7590
   38POPC  H13C 5046   1.818   2.979   6.070 -0.2448  1.8851 -0.6589
   38POPC   C14 5047   1.800   3.153   5.784 -0.4583 -0.4952  0.0129
   38POPC  H14A 5048   1.867   3.090   5.728  0.7077  1.6065 -1.0132
   38POPC  H14B 5049   1.701   3.117   5.759 -0.0055 -0.8633 -1.2544
   38POPC  H14C 5050   1.813   3.251   5.739  0.1614  0.3331  1.9173
   38POPC   C15 5051   1.985   3.144   5.952  0.4415  0.5605 -0.0056
   38POPC  H15A 5052   2.035   3.091   5.873 -0.6397  1.5891 -1.4160
   38POPC  H15B 5053   1.999   3.101   6.050 -1.3484 -2.9233 -1.1738
   38POPC  H15C 5054   2.016   3.248   5.952 -1.1849  1.0667  0.4482
   38POPC   C11 5055   1.775   3.232   6.172 -0.1356  0.6749  0.1650
   38POPC  H11A 5056   1.720   3.137   6.191 -0.9524  1.0423 -0.2831
   38POPC  H11B 5057   1.717   3.315   6.218 -0.7986  1.7882 -2.5562
   38POPC     P 5058   1.933   3.192   6.372 -0.2086  0.1672  0.4357
   38POPC   O13 5059   2.077   3.202   6.409  0.2720  0.1466  0.4605
   38POPC   O14 5060   1.885   3.053   6.375  0.1148 -0.3585 -0.4725
   38POPC   O12 5061   1.909   3.237   6.223 -0.1347 -0.0198  0.2528
   38POPC   O11 5062   1.832   3.289   6.446 -0.3501  0.1574 -0.0298
   38POPC    C1 5063   1.725   3.237   6.517  0.0560 -0.0404 -0.7516
   38POPC    HA 5064   1.749   3.222   6.625  1.9876 -1.0936 -1.3038
   38POPC    HB 5065   1.678   3.150   6.467 -1.0762  0.7941 -1.1643
   38POPC    C2 5066   1.610   3.340   6.509 -0.4654 -0.1218  0.3517
   38POPC    HS 5067   1.603   3.360   6.400  0.2889  0.6610  0.4405
   38POPC   O21 5068   1.663   3.462   6.562 -0.3640  0.0345 -0.0990
   38POPC   C21 5069   1.591   3.567   6.575  0.1172  0.5520 -0.7870
   38POPC   O22 5070   1.479   3.584   6.533 -0.1954 -0.9801  0.4393
   38POPC   C22 5071   1.677   3.674   6.638  0.5166 -0.0237 -0.2342
   38POPC   H2R 5072   1.707   3.746   6.559 -1.0543  1.8459  0.8253
   38POPC   H2S 5073   1.775   3.633   6.670  0.8273  0.1247 -0.9787
   38POPC    C3 5074   1.483   3.274   6.576 -0.6451 -0.0791 -0.8211
   38POPC    HX 5075   1.455   3.189   6.511 -1.0859 -1.3639  1.0369
   38POPC    HY 5076   1.398   3.344   6.588 -0.4110 -0.0495  0.7262
   38POPC   O31 5077   1.527   3.220   6.709  0.0044  0.0054  0.3885
   38POPC   C31 5078   1.504   3.308   6.803  0.0175  0.0216  0.4438
   38POPC   O32 5079   1.433   3.403   6.802  0.2537 -0.1040  0.3465
   38POPC   C32 5080   1.578   3.251   6.931  0.0219 -0.3698  0.9385
   38POPC   H2X 5081   1.685   3.280   6.932 -0.2499  0.7874 -1.0606
   38POPC   H2Y 5082   1.558   3.142   6.924 -2.1428  0.1524 -2.0723
   38POPC   C23 5083   1.617   3.771   6.743 -0.0239 -0.3464  0.6679
   38POPC   H3R 5084   1.512   3.798   6.718  0.4699 -0.6601 -1.9719
   38POPC   H3S 5085   1.679   3.863   6.750 -2.4952  1.5112 -0.7703
   38POPC   C24 5086   1.621   3.714   6.885  0.5461  0.8769  0.5964
   38POPC   H4R 5087   1.721   3.667   6.896 -0.0297 -0.3854  0.4392
   38POPC   H4S 5088   1.532   3.648   6.896 -0.0908  1.5197 -0.5724
   38POPC   C25 5089   1.601   3.813   6.999 -0.9241 -0.3433 -0.5984
   38POPC   H5R 5090   1.495   3.849   6.997 -2.5524 -4.3124  3.9691
   38POPC   H5S 5091   1.668   3.901   6.991  0.1747 -1.1285 -0.0309
   38POPC   C26 5092   1.641   3.747   7.141  0.0307  0.2228  0.5209
   38POPC   H6R 5093   1.752   3.742   7.153 -0.0065 -3.0242  0.0706
   38POPC   H6S 5094   1.594   3.646   7.141  1.0860 -0.2974  2.3724
   38POPC   C27 5095   1.575   3.818   7.262  0.4815 -0.5437  0.1591
   38POPC   H7R 5096   1.467   3.824   7.237  1.1544 -2.1619 -3.4691
   38POPC   H7S 5097   1.594   3.925   7.287 -2.0357  0.0063 -0.1487
   38POPC   C28 5098   1.577   3.730   7.381 -0.1226  0.7899 -0.1980
   38POPC   H8R 5099   1.519   3.640   7.351  1.5516 -1.1226  2.1745
   38POPC   H8S 5100   1.509   3.772   7.458 -0.3430  1.3934 -0.7161
   38POPC   C29 5101   1.708   3.685   7.444  0.2616  0.1239 -0.2394
   38POPC   H91 5102   1.790   3.689   7.370  0.9078 -0.3350  0.4509
   38POPC  C210 5103   1.726   3.645   7.569  0.3604  0.2383  0.3545
   38POPC  H101 5104   1.823   3.604   7.601  1.6886  1.8367 -1.5095
   38POPC  C211 5105   1.613   3.635   7.669 -0.1057 -0.9834 -0.2544
   38POPC  H11R 5106   1.613   3.529   7.700  0.2847 -1.7492 -2.7322
   38POPC  H11S 5107   1.518   3.660   7.617 -1.2686 -1.7853  1.4630
   38POPC  C212 5108   1.606   3.730   7.792 -0.1160 -0.7421  0.1181
   38POPC  H12R 5109   1.499   3.724   7.821 -0.7922  2.1069 -1.6168
   38POPC  H12S 5110   1.621   3.830   7.747  1.9417 -2.2145 -2.6770
   38POPC  C213 5111   1.712   3.689   7.897 -0.5656  0.3836  0.3719
   38POPC  H13R 5112   1.787   3.765   7.928  0.6464 -0.5388 -0.2518
   38POPC  H13S 5113   1.778   3.612   7.852  0.5367 -0.4895  3.3492
   38POPC  C214 5114   1.646   3.636   8.021 -0.6383  0.2834 -0.5341
   38POPC  H14R 5115   1.721   3.592   8.089 -1.3401 -0.1191 -0.0106
   38POPC  H14S 5116   1.579   3.550   8.000  1.7125 -1.2917 -1.8848
   38POPC  C215 5117   1.564   3.732   8.105  0.1099 -0.1679 -0.0267
   38POPC  H15R 5118   1.486   3.773   8.037  1.0611  0.6432 -0.6295
   38POPC  H15S 5119   1.636   3.805   8.147 -0.2587  1.7294 -2.5652
   38POPC  C216 5120   1.478   3.663   8.219  0.1997  0.4383  0.0777
   38POPC  H16R 5121   1.536   3.587   8.275 -1.5972 -1.5972 -0.7722
   38POPC  H16S 5122   1.398   3.607   8.166  0.0226  0.3785  0.4134
   38POPC  C217 5123   1.411   3.754   8.327  0.9680  0.8615  0.0750
   38POPC  H17R 5124   1.491   3.818   8.368  1.2813 -0.1384  1.0253
   38POPC  H17S 5125   1.356   3.691   8.401 -0.3514  0.2332 -1.3903
   38POPC  C218 5126   1.311   3.852   8.272 -0.3145 -0.1358 -0.3079
   38POPC  H18R 5127   1.245   3.805   8.197  0.0630  1.8253 -1.9186
   38POPC  H18S 5128   1.359   3.938   8.219 -0.1516  1.0333  1.6562
   38POPC  H18T 5129   1.263   3.896   8.363 -0.2650 -0.0493 -0.3226
   38POPC   C33 5130   1.514   3.307   7.063 -0.2687  0.7246 -0.2647
   38POPC   H3X 5131   1.412   3.266   7.066  0.4268 -1.0295 -0.2983
   38POPC   H3Y 5132   1.503   3.417   7.051 -3.3980  0.2407 -2.3292
   38POPC   C34 5133   1.600   3.286   7.187 -0.0158 -0.4683  0.0850
   38POPC   H4X 5134   1.697   3.338   7.175 -0.6466  0.2133 -2.5709
   38POPC   H4Y 5135   1.630   3.179   7.188 -0.8521 -0.7240 -0.8923
   38POPC   C35 5136   1.522   3.319   7.321 -1.3199  0.2906  0.1390
   38POPC   H5X 5137   1.439   3.245   7.312  0.0577 -1.4536  1.3238
   38POPC   H5Y 5138   1.484   3.423   7.318 -0.7048  0.5310  0.5771
   38POPC   C36 5139   1.606   3.288   7.449 -0.3260 -0.0904 -0.7153
   38POPC   H6X 5140   1.690   3.357   7.472 -1.1127  1.0104 -1.1160
   38POPC   H6Y 5141   1.666   3.196   7.431  0.3902  0.1797  0.2749
   38POPC   C37 5142   1.515   3.251   7.572 -0.0543 -0.1815  0.3344
   38POPC   H7X 5143   1.455   3.162   7.545  1.9563 -1.4397 -0.1044
   38POPC   H7Y 5144   1.458   3.347   7.569  0.3496  0.0208 -1.8773
   38POPC   C38 5145   1.578   3.223   7.708 -0.8296 -0.7281 -0.7566
   38POPC   H8X 5146   1.654   3.300   7.732 -1.4285  0.2945 -2.0611
   38POPC   H8Y 5147   1.633   3.127   7.693  3.0376  0.9828  1.7662
   38POPC   C39 5148   1.465   3.234   7.811 -0.8324 -0.0516 -0.1774
   38POPC   H9X 5149   1.403   3.142   7.808 -0.4584 -0.3806  1.5298
   38POPC   H9Y 5150   1.395   3.317   7.788 -0.7530 -0.5150 -2.2657
   38POPC  C310 5151   1.528   3.245   7.955  0.2558  0.0174 -0.2291
   38POPC  H10X 5152   1.446   3.251   8.030 -1.0536  0.6690 -1.6764
   38POPC  H10Y 5153   1.594   3.335   7.956  0.9322 -0.4754 -0.2030
   38POPC  C311 5154   1.627   3.129   7.989  0.2510 -0.2907  0.4989
   38POPC  H11X 5155   1.713   3.141   7.919 -2.1474  0.1246 -2.4987
   38POPC  H11Y 5156   1.590   3.025   7.975  0.2313 -0.0324 -1.5818
   38POPC  C312 5157   1.687   3.137   8.126 -0.0557 -0.1951  0.1675
   38POPC  H12X 5158   1.741   3.045   8.156 -0.3668  0.0180  1.4105
   38POPC  H12Y 5159   1.601   3.138   8.196 -1.0135 -0.8180 -0.9840
   38POPC  C313 5160   1.779   3.256   8.147  0.2911  0.4922  0.0289
   38POPC  H13X 5161   1.717   3.343   8.119  1.2398  0.9061 -0.7977
   38POPC  H13Y 5162   1.862   3.251   8.074  1.0165  1.4370  0.7716
   38POPC  C314 5163   1.821   3.272   8.305 -0.9322  0.3958 -0.1671
   38POPC  H14X 5164   1.874   3.177   8.327  1.4469  1.6506 -0.3223
   38POPC  H14Y 5165   1.731   3.267   8.370  0.4916 -1.1608  1.7493
   38POPC  C315 5166   1.897   3.401   8.341  0.0175  0.4216 -0.4292
   38POPC  H15X 5167   1.877   3.424   8.447  1.0146 -0.1886 -0.0936
   38POPC  H15Y 5168   1.849   3.487   8.289 -2.8818 -0.0255  1.4107
   38POPC  C316 5169   2.045   3.406   8.325 -0.0703 -0.1053  0.4944
   38POPC  H16X 5170   2.097   3.321   8.373 -1.2464 -0.6201  0.8917
   38POPC  H16Y 5171   2.083   3.505   8.359  1.4058 -0.4995  0.0238
   38POPC  H16Z 5172   2.073   3.402   8.218  0.9646 -1.4371  0.8048
   39POPC     N 5173   4.228   1.278   6.122 -1.0891 -0.6057 -0.2285
   39POPC   C12 5174   4.314   1.322   6.241 -0.4832  0.4278 -0.2974
   39POPC  H12A 5175   4.268   1.406   6.292 -1.4733 -1.0043  1.1957
   39POPC  H12B 5176   4.404   1.375   6.212 -0.4155  0.3395 -0.2503
   39POPC   C13 5177   4.213   1.385   6.020  0.4706 -0.1134 -0.2518
   39POPC  H13A 5178   4.209   1.484   6.063 -0.6147 -0.4161  0.3482
   39POPC  H13B 5179   4.300   1.395   5.956  0.7190  0.5910  0.1932
   39POPC  H13C 5180   4.128   1.383   5.953  0.3313  0.1045 -0.0835
   39POPC   C14 5181   4.268   1.150   6.065  0.2494  0.6770  0.6252
   39POPC  H14A 5182   4.269   1.076   6.144  0.6021  1.4776  1.3779
   39POPC  H14B 5183   4.203   1.123   5.984 -0.8493  1.5758  1.1917
   39POPC  H14C 5184   4.366   1.137   6.022  0.1260  2.8297 -0.3833
   39POPC   C15 5185   4.092   1.255   6.175 -0.7104 -0.0910  0.4236
   39POPC  H15A 5186   4.055   1.345   6.221  0.9957  0.1117  1.4409
   39POPC  H15B 5187   4.093   1.175   6.248 -3.1361 -0.0090  0.5964
   39POPC  H15C 5188   4.025   1.233   6.093 -0.6334  1.1357  0.0315
   39POPC   C11 5189   4.370   1.222   6.344  0.9274  0.1017 -0.3786
   39POPC  H11A 5190   4.281   1.181   6.397  1.5103  1.4452  1.6784
   39POPC  H11B 5191   4.429   1.285   6.414 -0.7346 -0.8104  1.8877
   39POPC     P 5192   4.458   0.977   6.324  0.1900  0.0750 -0.0948
   39POPC   O13 5193   4.568   0.911   6.258 -0.4682  0.0268  0.6520
   39POPC   O14 5194   4.327   0.923   6.293  0.4708 -0.3204  0.2918
   39POPC   O12 5195   4.467   1.128   6.286 -0.2562 -0.0684 -0.2308
   39POPC   O11 5196   4.479   0.993   6.475 -0.1341  0.0012 -0.1291
   39POPC    C1 5197   4.600   1.031   6.536 -0.1368  0.6929  0.2655
   39POPC    HA 5198   4.607   1.140   6.553  0.7858  1.0297 -1.9996
   39POPC    HB 5199   4.688   0.999   6.476 -1.0965 -0.8651 -0.3537
   39POPC    C2 5200   4.616   0.956   6.677 -0.6745  0.1269  0.1019
   39POPC    HS 5201   4.633   0.849   6.654  0.8968  0.0800  1.4536
   39POPC   O21 5202   4.508   0.988   6.763  0.1182  0.6170  0.8032
   39POPC   C21 5203   4.475   0.890   6.849  0.0925 -0.8235 -0.3003
   39POPC   O22 5204   4.527   0.782   6.854 -0.7423  0.3847  0.1728
   39POPC   C22 5205   4.366   0.938   6.940  0.1572 -1.2882  0.3777
   39POPC   H2R 5206   4.302   0.850   6.963 -2.0743  0.6051  1.6269
   39POPC   H2S 5207   4.307   1.013   6.883 -0.8413 -0.9732  1.7921
   39POPC    C3 5208   4.747   1.002   6.744  0.6838 -0.3827  0.1628
   39POPC    HX 5209   4.730   1.112   6.750 -0.6320 -0.6320  1.0773
   39POPC    HY 5210   4.831   0.979   6.675  0.4031 -1.6747  0.2370
   39POPC   O31 5211   4.768   0.944   6.870  0.3057 -0.4049 -0.5174
   39POPC   C31 5212   4.866   0.847   6.873 -0.2604  0.4775  0.2336
   39POPC   O32 5213   4.926   0.797   6.781 -0.5761 -0.4483  0.1310
   39POPC   C32 5214   4.880   0.807   7.021 -0.4236  0.5331  0.0200
   39POPC   H2X 5215   4.862   0.901   7.078 -3.4120  0.6270 -0.9513
   39POPC   H2Y 5216   4.800   0.734   7.044  0.1968  0.6477  2.6938
   39POPC   C23 5217   4.426   1.000   7.074  0.1113  0.0875  0.0053
   39POPC   H3R 5218   4.346   1.029   7.146  1.7683 -1.7924  2.6967
   39POPC   H3S 5219   4.490   1.089   7.059 -0.5919  0.3488 -1.5239
   39POPC   C24 5220   4.510   0.885   7.135  0.3141  0.3961 -0.3794
   39POPC   H4R 5221   4.600   0.885   7.070  0.2618 -2.2156 -0.5178
   39POPC   H4S 5222   4.455   0.788   7.130  1.0479 -0.0301 -0.2833
   39POPC   C25 5223   4.564   0.912   7.274  0.3687  0.4735  0.9383
   39POPC   H5R 5224   4.608   1.015   7.277  1.4344  0.1041 -1.0616
   39POPC   H5S 5225   4.658   0.853   7.283  1.0637  1.7207  2.2549
   39POPC   C26 5226   4.460   0.887   7.387 -0.2936 -1.0433 -0.2344
   39POPC   H6R 5227   4.429   0.781   7.373 -0.5075 -0.7192 -2.4198
   39POPC   H6S 5228   4.373   0.951   7.362 -0.7595 -0.9393  1.5872
   39POPC   C27 5229   4.505   0.910   7.531 -0.6270  0.2829  0.6435
   39POPC   H7R 5230   4.424   0.906   7.608 -0.1622  0.9976  1.1699
   39POPC   H7S 5231   4.549   1.012   7.534 -0.0858  0.0431  0.9985
   39POPC   C28 5232   4.627   0.812   7.565  0.9556  0.2575 -0.3187
   39POPC   H8R 5233   4.709   0.827   7.492  0.5497  0.0599 -0.8184
   39POPC   H8S 5234   4.602   0.706   7.542  2.1926  0.1941 -1.4425
   39POPC   C29 5235   4.700   0.827   7.697  0.5219  0.7789  0.8101
   39POPC   H91 5236   4.753   0.924   7.700 -0.1294  1.2747 -2.3587
   39POPC  C210 5237   4.726   0.736   7.795  1.0309  0.1561  0.2950
   39POPC  H101 5238   4.778   0.773   7.884  1.2658 -1.1263  0.6917
   39POPC  C211 5239   4.668   0.596   7.790  0.8828 -0.1460 -0.4589
   39POPC  H11R 5240   4.747   0.521   7.766 -0.7686 -1.6117 -1.4331
   39POPC  H11S 5241   4.586   0.587   7.716  1.0964 -0.7581 -0.6317
   39POPC  C212 5242   4.604   0.556   7.924 -0.3203 -0.0428  0.6918
   39POPC  H12R 5243   4.677   0.548   8.008  0.8380  3.5517  0.0882
   39POPC  H12S 5244   4.558   0.455   7.918  0.1462 -0.2105 -0.1598
   39POPC  C213 5245   4.497   0.664   7.963 -0.3269 -0.8785 -0.0979
   39POPC  H13R 5246   4.433   0.681   7.874  0.3699  1.6413 -0.1479
   39POPC  H13S 5247   4.559   0.753   7.988 -0.4871  0.0640 -2.8392
   39POPC  C214 5248   4.418   0.636   8.088 -0.9777 -1.0471 -0.0477
   39POPC  H14R 5249   4.352   0.548   8.077  0.7209 -2.5015  1.0235
   39POPC  H14S 5250   4.355   0.722   8.117  0.5555  0.6592 -1.5597
   39POPC  C215 5251   4.509   0.607   8.211  0.0262  1.1815  0.2253
   39POPC  H15R 5252   4.550   0.505   8.192 -0.4652  0.9916  0.1674
   39POPC  H15S 5253   4.439   0.599   8.297 -1.2045 -0.1956 -0.8646
   39POPC  C216 5254   4.623   0.689   8.268  0.8842 -0.3481  0.4873
   39POPC  H16R 5255   4.597   0.796   8.284  0.1016 -0.4064 -0.3337
   39POPC  H16S 5256   4.703   0.686   8.191 -1.3973  0.7150 -2.0064
   39POPC  C217 5257   4.672   0.642   8.405 -0.7457  0.4851  0.0877
   39POPC  H17R 5258   4.779   0.672   8.399 -0.4232 -1.2110 -3.9592
   39POPC  H17S 5259   4.674   0.531   8.404 -1.4736  0.4670  0.5132
   39POPC  C218 5260   4.619   0.698   8.535 -0.3639 -0.2678  0.2260
   39POPC  H18R 5261   4.666   0.797   8.552  2.3373 -1.6296  1.0041
   39POPC  H18S 5262   4.648   0.629   8.618  0.8369 -1.5787 -1.2445
   39POPC  H18T 5263   4.509   0.705   8.540 -0.4306 -1.3551  0.4113
   39POPC   C33 5264   5.017   0.746   7.061 -0.7185 -0.0788 -0.1634
   39POPC   H3X 5265   5.093   0.794   6.995 -1.6356  0.5275 -0.7852
   39POPC   H3Y 5266   5.023   0.638   7.034  0.4344 -0.5722  1.9168
   39POPC   C34 5267   5.060   0.766   7.202 -0.6612 -0.8391  0.0520
   39POPC   H4X 5268   5.018   0.859   7.247  0.5130 -0.8609  1.2646
   39POPC   H4Y 5269   5.168   0.754   7.227  0.0399  2.7822 -0.9192
   39POPC   C35 5270   5.004   0.659   7.290 -0.9880 -0.6321  0.1659
   39POPC   H5X 5271   5.038   0.558   7.256  2.0775  0.6139 -0.7169
   39POPC   H5Y 5272   4.894   0.665   7.295 -0.9949 -0.4204 -0.2361
   39POPC   C36 5273   5.032   0.680   7.439 -0.3496 -0.0596  0.0781
   39POPC   H6X 5274   4.978   0.771   7.474  0.0309  0.1938  0.0189
   39POPC   H6Y 5275   5.139   0.703   7.458 -0.7385  0.1917  2.0324
   39POPC   C37 5276   4.984   0.548   7.521  0.2316  0.3875  0.5730
   39POPC   H7X 5277   5.012   0.458   7.463  1.7773  1.7004 -0.7693
   39POPC   H7Y 5278   4.874   0.549   7.530 -0.0716  1.0486 -2.6590
   39POPC   C38 5279   5.053   0.556   7.660 -0.0938 -0.2878 -0.2395
   39POPC   H8X 5280   4.997   0.636   7.714  2.9759  2.0450 -0.3791
   39POPC   H8Y 5281   5.161   0.578   7.654  0.5414 -2.8636  1.2567
   39POPC   C39 5282   5.051   0.426   7.739 -0.0597 -0.7838 -0.8769
   39POPC   H9X 5283   5.107   0.342   7.692 -0.7977 -0.3249 -2.6280
   39POPC   H9Y 5284   4.946   0.390   7.745 -0.1952 -0.4487 -1.1743
   39POPC  C310 5285   5.123   0.439   7.883 -0.2145  0.8553  0.0113
   39POPC  H10X 5286   5.106   0.539   7.929 -0.2702  0.2893  1.2531
   39POPC  H10Y 5287   5.233   0.423   7.881  0.1799  3.5450 -1.7277
   39POPC  C311 5288   5.053   0.330   7.971 -0.3973 -0.4600  0.3172
   39POPC  H11X 5289   5.079   0.229   7.932 -0.2829  0.2689 -1.5810
   39POPC  H11Y 5290   4.942   0.341   7.965 -0.1288  1.9456 -0.9396
   39POPC  C312 5291   5.089   0.329   8.120 -0.3582 -0.2527  0.0998
   39POPC  H12X 5292   5.064   0.435   8.143 -0.5069  0.3065 -2.5147
   39POPC  H12Y 5293   5.196   0.307   8.135  0.0253  1.9282  0.8471
   39POPC  C313 5294   5.003   0.229   8.202 -0.1551  0.0950 -0.3324
   39POPC  H13X 5295   5.047   0.223   8.304  0.7342  1.9178 -0.5917
   39POPC  H13Y 5296   5.004   0.127   8.159  0.4275 -0.4938  1.0462
   39POPC  C314 5297   4.862   0.279   8.226 -0.0281 -0.2130  0.2784
   39POPC  H14X 5298   4.812   0.310   8.132 -0.6856  0.3980  0.8214
   39POPC  H14Y 5299   4.863   0.370   8.289  0.1270  0.1545 -0.2513
   39POPC  C315 5300   4.769   0.176   8.290  0.1594  0.5805  0.4194
   39POPC  H15X 5301   4.785   0.162   8.399  0.1715 -4.2341 -0.1151
   39POPC  H15Y 5302   4.787   0.075   8.246 -0.7593 -0.7195  2.9484
   39POPC  C316 5303   4.623   0.211   8.290 -0.0197 -0.1616  0.0917
   39POPC  H16X 5304   4.603   0.303   8.350 -0.8994  0.7523 -1.5647
   39POPC  H16Y 5305   4.562   0.130   8.337  1.9500  0.4202  3.8442
   39POPC  H16Z 5306   4.588   0.230   8.186 -2.4137  1.3405  1.0988
   40POPC     N 5307   4.263   4.568   6.153 -0.2248  0.0580  0.1469
   40POPC   C12 5308   4.164   4.680   6.161 -0.1030  0.0060 -0.0846
   40POPC  H12A 5309   4.076   4.648   6.216  1.8465 -1.8357  2.0631
   40POPC  H12B 5310   4.130   4.707   6.062 -0.6033  1.4494  0.4699
   40POPC   C13 5311   4.215   4.449   6.085 -0.6420  0.6419 -0.1821
   40POPC  H13A 5312   4.203   4.461   5.979  0.1272 -2.6507 -0.6888
   40POPC  H13B 5313   4.276   4.361   6.099 -3.5727 -1.0545  2.8859
   40POPC  H13C 5314   4.115   4.426   6.119 -0.9802  2.9474  0.4986
   40POPC   C14 5315   4.382   4.605   6.071 -0.1277  0.1392  0.1500
   40POPC  H14A 5316   4.359   4.623   5.967  3.1115 -1.0967 -0.8679
   40POPC  H14B 5317   4.436   4.688   6.113 -0.3739  1.5869 -2.3104
   40POPC  H14C 5318   4.454   4.524   6.073  1.2588  1.3390 -0.0120
   40POPC   C15 5319   4.307   4.531   6.288 -0.2274  0.3664  0.5170
   40POPC  H15A 5320   4.223   4.492   6.344  0.0945 -2.7187 -1.0077
   40POPC  H15B 5321   4.332   4.622   6.339  1.4561  0.6078 -0.6886
   40POPC  H15C 5322   4.393   4.467   6.298  0.5897  0.9220 -2.4114
   40POPC   C11 5323   4.212   4.821   6.216  0.1486  0.1194 -0.0586
   40POPC  H11A 5324   4.136   4.889   6.171  0.6178  1.9081  1.7418
   40POPC  H11B 5325   4.312   4.850   6.179  0.9470 -0.4004  1.6627
   40POPC     P 5326   4.169   4.934   6.452  0.3160 -0.0431  0.0437
   40POPC   O13 5327   4.022   4.961   6.440  0.7162  0.2181  0.3227
   40POPC   O14 5328   4.265   5.040   6.416  0.2092  0.1218  0.3922
   40POPC   O12 5329   4.195   4.813   6.358  0.2453  0.1728  0.1232
   40POPC   O11 5330   4.201   4.889   6.604 -0.0913  0.1345 -0.1233
   40POPC    C1 5331   4.214   4.753   6.639 -1.2319 -0.3574 -0.3874
   40POPC    HA 5332   4.284   4.694   6.575 -0.2956  0.8771 -0.5257
   40POPC    HB 5333   4.116   4.701   6.634 -1.0992 -0.5572 -0.8969
   40POPC    C2 5334   4.261   4.738   6.784 -0.5466 -0.4449 -0.8925
   40POPC    HS 5335   4.247   4.631   6.810 -0.4811 -0.1735  0.2818
   40POPC   O21 5336   4.185   4.829   6.865  0.4819 -0.8525 -0.2961
   40POPC   C21 5337   4.149   4.781   6.978 -0.6338 -0.1179 -0.4533
   40POPC   O22 5338   4.152   4.659   7.009  0.3039 -0.1494 -0.0235
   40POPC   C22 5339   4.098   4.895   7.056 -0.3221 -1.2775 -0.0161
   40POPC   H2R 5340   3.999   4.910   7.006 -1.0718  1.0691  2.0939
   40POPC   H2S 5341   4.154   4.988   7.037 -2.2816 -0.1772 -0.5681
   40POPC    C3 5342   4.416   4.776   6.794  0.4828  0.3732  0.2495
   40POPC    HX 5343   4.435   4.880   6.760  0.2151  0.9413  1.7901
   40POPC    HY 5344   4.466   4.707   6.723 -2.7453 -2.1501  0.2924
   40POPC   O31 5345   4.477   4.759   6.926 -0.0277 -0.6865  0.1873
   40POPC   C31 5346   4.474   4.868   7.005 -0.2065 -0.3301  0.2568
   40POPC   O32 5347   4.437   4.982   6.977 -0.3617  0.4604 -0.0327
   40POPC   C32 5348   4.524   4.833   7.142 -0.4407  0.4739 -0.2120
   40POPC   H2X 5349   4.604   4.756   7.147 -2.0725 -1.2114  0.4175
   40POPC   H2Y 5350   4.445   4.793   7.208  0.6891 -3.1689 -0.9476
   40POPC   C23 5351   4.080   4.859   7.207  0.2736  0.9355  0.0766
   40POPC   H3R 5352   4.164   4.911   7.258 -0.0096  1.0674  0.4129
   40POPC   H3S 5353   4.093   4.750   7.225  1.5731  1.1899  0.7510
   40POPC   C24 5354   3.944   4.899   7.272  0.0688  0.2856 -0.1750
   40POPC   H4R 5355   3.867   4.889   7.192  1.4357 -0.5790 -1.3902
   40POPC   H4S 5356   3.958   5.002   7.312  0.3119  0.6214 -1.1168
   40POPC   C25 5357   3.889   4.806   7.374  0.3742  0.1396  0.2528
   40POPC   H5R 5358   3.890   4.700   7.338 -2.0943 -0.1728  0.9964
   40POPC   H5S 5359   3.782   4.821   7.398  0.1130 -1.2294  0.0036
   40POPC   C26 5360   3.969   4.817   7.507  0.0461  0.1084  0.2416
   40POPC   H6R 5361   3.981   4.927   7.520  0.1603  0.2377 -0.9299
   40POPC   H6S 5362   4.068   4.767   7.504  0.2754  0.5602  0.1957
   40POPC   C27 5363   3.879   4.763   7.624 -0.2951  0.0439  0.3932
   40POPC   H7R 5364   3.790   4.829   7.623 -0.3421  0.0717  2.9272
   40POPC   H7S 5365   3.937   4.776   7.718 -0.1188 -1.8946  0.5754
   40POPC   C28 5366   3.837   4.615   7.604 -0.1035  0.0312  0.4886
   40POPC   H8R 5367   3.780   4.604   7.509  1.0053  0.5432 -0.2534
   40POPC   H8S 5368   3.776   4.578   7.689  3.9923 -1.6649  2.8815
   40POPC   C29 5369   3.958   4.527   7.599 -0.1850  0.5720  0.4606
   40POPC   H91 5370   4.033   4.550   7.522  0.0116 -2.8074 -0.4457
   40POPC  C210 5371   3.978   4.421   7.680  0.6366 -0.5784  0.6592
   40POPC  H101 5372   4.070   4.361   7.677 -0.2087 -1.8070 -0.7451
   40POPC  C211 5373   3.887   4.374   7.791  0.2849  0.3831  0.5242
   40POPC  H11R 5374   3.879   4.266   7.768 -0.5948  0.8279 -1.3364
   40POPC  H11S 5375   3.781   4.408   7.792 -0.0939 -0.7496  2.5237
   40POPC  C212 5376   3.942   4.406   7.933  0.6428  0.4506 -0.3490
   40POPC  H12R 5377   3.922   4.510   7.968 -1.0537 -0.3426  1.1371
   40POPC  H12S 5378   4.051   4.387   7.940  0.7336  1.5587  1.7183
   40POPC  C213 5379   3.868   4.320   8.039 -0.6235  0.4551  0.2611
   40POPC  H13R 5380   3.880   4.215   8.005 -3.4120  0.4951 -0.9758
   40POPC  H13S 5381   3.760   4.347   8.042 -0.2783  1.7264  2.3582
   40POPC  C214 5382   3.931   4.336   8.183  0.4735  0.7895  1.1897
   40POPC  H14R 5383   3.940   4.445   8.199 -0.2429  0.9581  0.4861
   40POPC  H14S 5384   4.034   4.296   8.189  1.5902  2.7940 -2.8768
   40POPC  C215 5385   3.847   4.290   8.301  0.0784  0.6234  0.2698
   40POPC  H15R 5386   3.747   4.337   8.294 -0.9370 -1.4821  0.2866
   40POPC  H15S 5387   3.893   4.335   8.392  0.9146 -0.3801  0.3522
   40POPC  C216 5388   3.831   4.141   8.303  0.0801 -0.1810  0.0346
   40POPC  H16R 5389   3.928   4.096   8.274  0.2755 -0.1380  0.6085
   40POPC  H16S 5390   3.756   4.119   8.224 -1.2057 -0.6892  1.3736
   40POPC  C217 5391   3.793   4.085   8.441  0.8865  0.6875  0.1563
   40POPC  H17R 5392   3.707   4.148   8.473  1.2258 -0.1653  2.8978
   40POPC  H17S 5393   3.883   4.103   8.504  0.8681  1.6446 -0.0867
   40POPC  C218 5394   3.755   3.933   8.452  0.2814  0.8798 -0.0533
   40POPC  H18R 5395   3.682   3.905   8.372  0.3375 -0.5013  0.3535
   40POPC  H18S 5396   3.706   3.905   8.548  1.2476 -1.1095 -0.1139
   40POPC  H18T 5397   3.842   3.867   8.430  0.0740  0.4239  0.4738
   40POPC   C33 5398   4.587   4.951   7.222  0.3145 -0.4024 -0.2844
   40POPC   H3X 5399   4.556   5.048   7.177  1.4071 -0.1473 -0.4966
   40POPC   H3Y 5400   4.697   4.957   7.203  0.3511  1.7392  0.4965
   40POPC   C34 5401   4.552   4.949   7.366 -0.0010 -0.3485 -0.2966
   40POPC   H4X 5402   4.570   4.850   7.414 -0.2186 -0.7978 -1.1204
   40POPC   H4Y 5403   4.444   4.956   7.394  0.1432 -0.5654  0.3176
   40POPC   C35 5404   4.628   5.059   7.446 -0.2562 -0.0004 -0.0784
   40POPC   H5X 5405   4.602   5.159   7.407 -0.6555  0.8919  2.4130
   40POPC   H5Y 5406   4.737   5.050   7.428 -0.3933 -0.7990 -0.5828
   40POPC   C36 5407   4.614   5.055   7.604  0.1948  0.3340  0.3904
   40POPC   H6X 5408   4.646   4.960   7.652 -3.5365 -1.3061 -0.1997
   40POPC   H6Y 5409   4.510   5.074   7.638  0.6141  0.2668  1.7273
   40POPC   C37 5410   4.704   5.164   7.659 -0.4217  0.0747 -0.2592
   40POPC   H7X 5411   4.671   5.260   7.612 -3.4813 -0.5473  0.4893
   40POPC   H7Y 5412   4.809   5.143   7.631 -0.4753  0.1369 -0.4987
   40POPC   C38 5413   4.696   5.189   7.809 -0.4098 -0.2085  0.2926
   40POPC   H8X 5414   4.589   5.218   7.819 -0.4232 -0.1516  0.0027
   40POPC   H8Y 5415   4.761   5.273   7.842 -1.5270 -0.1907  2.5290
   40POPC   C39 5416   4.724   5.069   7.902  0.4666 -0.2061  0.5399
   40POPC   H9X 5417   4.824   5.020   7.904  0.6335  0.0896 -0.3933
   40POPC   H9Y 5418   4.647   5.002   7.856  0.3810  0.1437  0.1698
   40POPC  C310 5419   4.677   5.106   8.042 -0.4580 -0.2211 -0.3059
   40POPC  H10X 5420   4.586   5.169   8.035 -0.4976 -0.0388  1.6750
   40POPC  H10Y 5421   4.739   5.185   8.090 -1.5145  0.3407  0.1514
   40POPC  C311 5422   4.656   4.982   8.123  0.4010 -0.0109  0.0260
   40POPC  H11X 5423   4.736   4.908   8.103 -0.3244 -1.2885  1.7735
   40POPC  H11Y 5424   4.572   4.929   8.074  0.2167  1.1165 -0.9118
   40POPC  C312 5425   4.627   5.018   8.262  0.3883 -1.0088 -0.2054
   40POPC  H12X 5426   4.677   5.111   8.298 -0.5089 -0.4461 -0.4013
   40POPC  H12Y 5427   4.660   4.938   8.331  0.8763  1.4679  2.5325
   40POPC  C313 5428   4.477   5.034   8.287 -0.1795  0.4594 -0.1744
   40POPC  H13X 5429   4.416   4.941   8.286 -2.2393  1.7526  0.8982
   40POPC  H13Y 5430   4.422   5.087   8.206  2.1557  3.1571 -0.0565
   40POPC  C314 5431   4.451   5.095   8.419 -0.1986 -0.5162  0.0566
   40POPC  H14X 5432   4.481   5.201   8.413  0.2810 -0.6644 -0.1968
   40POPC  H14Y 5433   4.516   5.040   8.491 -2.5569 -0.7226  2.0820
   40POPC  C315 5434   4.316   5.072   8.483  0.2210 -0.2193 -0.3160
   40POPC  H15X 5435   4.275   4.970   8.465  0.5109 -0.2734 -0.6878
   40POPC  H15Y 5436   4.249   5.152   8.445 -0.0482 -0.6839 -0.8315
   40POPC  C316 5437   4.321   5.101   8.637 -0.1341 -0.1457  0.1806
   40POPC  H16X 5438   4.362   5.015   8.693  0.5453  0.4281  0.5711
   40POPC  H16Y 5439   4.215   5.124   8.662  0.4167  1.0571  1.5037
   40POPC  H16Z 5440   4.387   5.189   8.652 -0.2561  0.0640 -0.4913
   41CHL1    C3 5441   3.450   2.170  10.047 -0.5702 -0.4577  0.1825
   41CHL1    H3 5442   3.549   2.167   9.997 -1.7350 -1.3367 -2.1431
   41CHL1    O3 5443   3.452   2.134  10.187  0.4024  0.6256 -0.7344
   41CHL1   H3' 5444   3.405   2.203  10.234  1.7065  0.8658  0.2278
   41CHL1    C4 5445   3.410   2.316  10.038  0.0677 -0.2681  0.3192
   41CHL1   H4A 5446   3.305   2.323  10.072 -0.8267  0.0786 -2.4165
   41CHL1   H4B 5447   3.471   2.385  10.101 -1.5153  2.7265 -1.3135
   41CHL1    C5 5448   3.424   2.354   9.891  0.0140 -0.4779  0.1490
   41CHL1    C6 5449   3.513   2.442   9.844 -0.1904 -0.3638 -0.0618
   41CHL1    H6 5450   3.583   2.495   9.912  0.6398 -0.5455 -0.7682
   41CHL1    C7 5451   3.523   2.483   9.697 -0.1917 -0.3632  0.4364
   41CHL1   H7A 5452   3.525   2.594   9.693  1.1944 -0.3408  1.3061
   41CHL1   H7B 5453   3.615   2.441   9.652 -0.2338 -1.5460  1.4156
   41CHL1    C8 5454   3.415   2.421   9.607 -0.0220 -0.5917  0.5550
   41CHL1    H8 5455   3.324   2.479   9.634 -0.6669 -1.6855  0.7859
   41CHL1   C14 5456   3.456   2.424   9.459  0.0393 -0.5124  0.6255
   41CHL1   H14 5457   3.537   2.348   9.452 -0.3033 -0.7067 -1.3546
   41CHL1   C15 5458   3.507   2.555   9.400 -0.6049  0.5735 -0.0536
   41CHL1  H15A 5459   3.444   2.645   9.418 -0.2598  0.4602  1.7976
   41CHL1  H15B 5460   3.614   2.572   9.426 -1.4488  0.8350  3.4188
   41CHL1   C16 5461   3.509   2.529   9.251  0.5437  0.2455  0.3744
   41CHL1  H16A 5462   3.438   2.607   9.216 -0.8735 -1.8273 -1.5113
   41CHL1  H16B 5463   3.612   2.530   9.208 -1.0124 -1.6063 -3.6920
   41CHL1   C17 5464   3.439   2.387   9.233  0.0327 -0.0747  0.5271
   41CHL1   H17 5465   3.520   2.311   9.244  0.9291  0.8937  0.7491
   41CHL1   C13 5466   3.352   2.370   9.356  0.3395 -0.1606 -0.2810
   41CHL1   C18 5467   3.231   2.459   9.352  0.4825 -0.5079  0.1990
   41CHL1  H18A 5468   3.251   2.567   9.337  2.0658 -0.5831  1.5916
   41CHL1  H18B 5469   3.164   2.417   9.274  1.8546  0.3750 -1.4924
   41CHL1  H18C 5470   3.166   2.462   9.443 -0.8554 -0.3356 -0.7451
   41CHL1   C12 5471   3.315   2.228   9.401 -0.0050 -0.1035  0.1753
   41CHL1  H12A 5472   3.237   2.188   9.333 -0.7602  0.3230  0.7873
   41CHL1  H12B 5473   3.405   2.164   9.386 -0.6183 -0.4695 -2.1147
   41CHL1   C11 5474   3.266   2.214   9.550  0.8737 -0.1615 -0.5192
   41CHL1  H11A 5475   3.175   2.277   9.546  0.4567 -0.7771 -0.6794
   41CHL1  H11B 5476   3.236   2.109   9.566 -1.7086  0.5994 -0.1761
   41CHL1    C9 5477   3.368   2.280   9.653 -0.6406  0.2232  0.3696
   41CHL1    H9 5478   3.459   2.219   9.635 -0.8779  0.0635 -0.2970
   41CHL1   C10 5479   3.332   2.265   9.801 -0.6055 -0.1726 -0.3812
   41CHL1   C19 5480   3.190   2.321   9.818 -0.6440  1.0073  0.5733
   41CHL1  H19A 5481   3.122   2.267   9.749  0.8768  1.3432 -1.2058
   41CHL1  H19B 5482   3.161   2.310   9.925 -2.0356  1.2860  0.2430
   41CHL1  H19C 5483   3.187   2.428   9.789 -0.7761  0.9507  0.3806
   41CHL1    C1 5484   3.347   2.116   9.826  0.2533 -0.7111 -0.8049
   41CHL1   H1A 5485   3.249   2.073   9.796 -1.6075  0.3907  3.2754
   41CHL1   H1B 5486   3.428   2.064   9.770  1.0018 -1.2440  0.7319
   41CHL1    C2 5487   3.361   2.078   9.967 -0.6958  0.1696  0.6638
   41CHL1   H2A 5488   3.398   1.974   9.975  0.6819  0.5355 -0.6563
   41CHL1   H2B 5489   3.266   2.085  10.025 -0.3224  0.4226  1.2436
   41CHL1   C20 5490   3.385   2.353   9.087 -0.0713 -0.6426 -0.5540
   41CHL1   H20 5491   3.308   2.429   9.067  0.3017 -0.6475 -2.0807
   41CHL1   C21 5492   3.301   2.225   9.088  0.2073 -0.5091  0.0105
   41CHL1  H21A 5493   3.352   2.142   9.141  0.5589 -0.5652 -0.4062
   41CHL1  H21B 5494   3.269   2.187   8.988  0.1154 -0.9822  0.2192
   41CHL1  H21C 5495   3.212   2.247   9.149  0.0817 -2.1632  0.4607
   41CHL1   C22 5496   3.488   2.352   8.972 -0.9331 -0.2256  0.0379
   41CHL1  H22A 5497   3.568   2.430   8.971 -1.0343 -0.1098  0.7804
   41CHL1  H22B 5498   3.551   2.261   8.973 -0.0569  0.3790  1.1385
   41CHL1   C23 5499   3.415   2.368   8.834 -1.2788 -0.2732  0.1264
   41CHL1  H23A 5500   3.360   2.272   8.827 -1.9778  0.0810  0.7261
   41CHL1  H23B 5501   3.339   2.449   8.831  0.3338  1.3499  1.6841
   41CHL1   C24 5502   3.500   2.377   8.709  0.5039  0.4164 -0.0859
   41CHL1  H24A 5503   3.565   2.287   8.706 -1.6838 -1.2395  0.6552
   41CHL1  H24B 5504   3.427   2.378   8.626 -0.2845  1.6465  0.6118
   41CHL1   C25 5505   3.592   2.506   8.700  0.0265 -0.2856  0.8221
   41CHL1   H25 5506   3.666   2.502   8.782  0.8697  0.2074  0.0936
   41CHL1   C26 5507   3.665   2.512   8.564 -0.9495  0.3577  0.6756
   41CHL1  H26A 5508   3.599   2.519   8.474  1.1415 -0.3015 -0.9529
   41CHL1  H26B 5509   3.731   2.602   8.559 -1.3979  0.7993  2.3442
   41CHL1  H26C 5510   3.721   2.417   8.551 -0.9189 -0.0591  3.5456
   41CHL1   C27 5511   3.503   2.633   8.710 -0.6524 -1.2157  0.0160
   41CHL1  H27A 5512   3.428   2.631   8.628 -0.5210 -2.6579 -0.0684
   41CHL1  H27B 5513   3.442   2.635   8.803 -1.3895  0.1706 -0.4705
   41CHL1  H27C 5514   3.566   2.724   8.698  0.7679 -1.9141  1.9827
   42CHL1    C3 5515   3.331   1.447   9.930 -0.2559 -0.6722  0.3949
   42CHL1    H3 5516   3.433   1.486   9.909  0.4263 -2.7886 -0.3732
   42CHL1    O3 5517   3.325   1.397  10.062 -0.0483  0.3172 -0.0453
   42CHL1   H3' 5518   3.245   1.344  10.066 -0.3387  0.6523 -1.2496
   42CHL1    C4 5519   3.222   1.555   9.913 -0.2565 -0.3011  0.1082
   42CHL1   H4A 5520   3.120   1.524   9.943  0.0546 -1.3960  0.0375
   42CHL1   H4B 5521   3.255   1.635   9.983 -0.4712 -1.3401  1.4091
   42CHL1    C5 5522   3.209   1.610   9.770  0.0395 -0.1781  0.0644
   42CHL1    C6 5523   3.235   1.734   9.741 -0.4567  0.1935  0.4719
   42CHL1    H6 5524   3.253   1.812   9.817 -0.8174  1.2228 -0.4977
   42CHL1    C7 5525   3.222   1.790   9.605 -0.6614 -0.7504 -0.1328
   42CHL1   H7A 5526   3.187   1.896   9.608 -1.2759 -0.9301 -0.8596
   42CHL1   H7B 5527   3.320   1.786   9.553 -0.3882 -0.7795  0.3848
   42CHL1    C8 5528   3.132   1.705   9.518  0.2364 -0.2264 -0.9083
   42CHL1    H8 5529   3.029   1.712   9.559  0.6813 -1.5233  0.4775
   42CHL1   C14 5530   3.144   1.757   9.373  0.3946 -0.2620 -0.9906
   42CHL1   H14 5531   3.253   1.751   9.353  0.9148  0.4559  1.4429
   42CHL1   C15 5532   3.103   1.902   9.346  0.0141 -0.2571 -0.8808
   42CHL1  H15A 5533   3.009   1.936   9.394  0.3190 -0.8242  0.1139
   42CHL1  H15B 5534   3.184   1.966   9.388  0.4180 -0.4558 -1.3499
   42CHL1   C16 5535   3.090   1.910   9.193 -0.5937 -0.3675 -0.2415
   42CHL1  H16A 5536   2.984   1.936   9.172 -1.1345 -2.5774 -0.3370
   42CHL1  H16B 5537   3.158   1.984   9.146 -0.6245 -0.2844 -0.1537
   42CHL1   C17 5538   3.101   1.764   9.141 -0.2171 -0.7807  0.3446
   42CHL1   H17 5539   3.209   1.745   9.122 -0.1604 -0.3433  0.2228
   42CHL1   C13 5540   3.073   1.676   9.264 -0.3906  1.4599 -0.0524
   42CHL1   C18 5541   2.920   1.673   9.289  0.2532  0.5924 -0.0684
   42CHL1  H18A 5542   2.873   1.773   9.292  2.5137  1.6495  1.6840
   42CHL1  H18B 5543   2.878   1.617   9.202  0.5522 -0.4054  0.4189
   42CHL1  H18C 5544   2.904   1.622   9.386 -0.5791  1.2726  0.1563
   42CHL1   C12 5545   3.133   1.530   9.272 -0.7245  0.4289  0.1217
   42CHL1  H12A 5546   3.095   1.461   9.193  0.7679 -0.9705  0.5913
   42CHL1  H12B 5547   3.241   1.535   9.250 -1.1910  0.6571 -2.3025
   42CHL1   C11 5548   3.118   1.463   9.413 -0.0470 -0.6202  0.6503
   42CHL1  H11A 5549   3.010   1.448   9.433 -0.7451  1.1660 -1.5452
   42CHL1  H11B 5550   3.164   1.362   9.411  0.6660 -0.2804 -1.5565
   42CHL1    C9 5551   3.178   1.557   9.522 -0.8364  0.0185  0.3548
   42CHL1    H9 5552   3.285   1.552   9.494 -0.3923 -0.1043  2.0174
   42CHL1   C10 5553   3.170   1.495   9.669 -0.3819 -1.1672  0.1690
   42CHL1   C19 5554   3.023   1.445   9.700  0.4698 -0.3631  0.0915
   42CHL1  H19A 5555   3.023   1.409   9.805  1.8107  0.3919  0.3653
   42CHL1  H19B 5556   2.945   1.524   9.694  0.7598 -0.2596 -2.5973
   42CHL1  H19C 5557   2.993   1.366   9.629 -0.8871  0.6333 -0.4748
   42CHL1    C1 5558   3.270   1.375   9.689  0.3870 -0.4468 -1.3439
   42CHL1   H1A 5559   3.222   1.291   9.635 -3.5144  0.2637  0.8049
   42CHL1   H1B 5560   3.367   1.407   9.646  0.2752  0.3429 -1.0152
   42CHL1    C2 5561   3.290   1.333   9.834 -0.2191 -0.1936 -0.2270
   42CHL1   H2A 5562   3.381   1.270   9.824  0.9647  1.1388  1.8372
   42CHL1   H2B 5563   3.209   1.269   9.873 -0.4944 -1.1632 -2.2991
   42CHL1   C20 5564   3.032   1.747   9.001  0.0192  0.2229  0.0156
   42CHL1   H20 5565   2.924   1.773   9.008 -0.0051  0.8849 -2.2480
   42CHL1   C21 5566   3.031   1.594   8.960 -0.3768 -0.4983 -0.4419
   42CHL1  H21A 5567   3.139   1.566   8.960 -0.3640 -0.6659  3.0925
   42CHL1  H21B 5568   2.978   1.572   8.865 -1.7309  2.2254 -0.3570
   42CHL1  H21C 5569   2.985   1.530   9.038 -0.7458  1.4707  1.0023
   42CHL1   C22 5570   3.105   1.837   8.900 -0.6073  0.1957  0.2998
   42CHL1  H22A 5571   3.081   1.939   8.937 -0.0225  0.7528 -0.8357
   42CHL1  H22B 5572   3.210   1.802   8.907  0.0693  2.3488  1.0655
   42CHL1   C23 5573   3.064   1.828   8.757  0.2083 -0.7733 -0.1516
   42CHL1  H23A 5574   3.083   1.724   8.724 -3.5440 -1.9050  0.9801
   42CHL1  H23B 5575   2.954   1.836   8.741  0.1171  1.1572  1.2067
   42CHL1   C24 5576   3.124   1.938   8.662  0.1487  0.4875 -0.0666
   42CHL1  H24A 5577   3.232   1.911   8.661  0.1599  0.4248  1.3480
   42CHL1  H24B 5578   3.079   1.920   8.562 -0.5627 -0.4654  0.4083
   42CHL1   C25 5579   3.102   2.081   8.704 -0.0691 -0.4254 -0.0102
   42CHL1   H25 5580   3.151   2.089   8.803 -3.2251 -2.8414  1.8392
   42CHL1   C26 5581   3.172   2.173   8.597 -0.1509 -0.3492 -0.2845
   42CHL1  H26A 5582   3.124   2.155   8.498 -1.7192  1.6471  0.0806
   42CHL1  H26B 5583   3.159   2.281   8.617 -0.4738 -0.7564  1.7720
   42CHL1  H26C 5584   3.279   2.143   8.593 -0.0033 -0.2511  2.2671
   42CHL1   C27 5585   2.956   2.123   8.728 -0.0454  0.1787  0.1288
   42CHL1  H27A 5586   2.894   2.105   8.638  1.1617  1.2639 -0.9307
   42CHL1  H27B 5587   2.906   2.069   8.811  1.4307 -0.6736  0.4700
   42CHL1  H27C 5588   2.938   2.230   8.752  2.8270  0.9765 -1.0633
   43CHL1    C3 5589   3.899   1.612   9.905 -0.5120 -0.4187 -0.0010
   43CHL1    H3 5590   3.984   1.554   9.863  1.9881  3.0264  0.0682
   43CHL1    O3 5591   3.913   1.632  10.044  0.3101  0.1173  0.1045
   43CHL1   H3' 5592   3.846   1.584  10.094  0.1607 -1.5098 -1.6160
   43CHL1    C4 5593   3.912   1.765   9.849  0.5229  0.1982  0.3887
   43CHL1   H4A 5594   3.844   1.825   9.912  1.8322 -0.3818  2.4105
   43CHL1   H4B 5595   4.018   1.796   9.867  0.1927  0.0997  2.7294
   43CHL1    C5 5596   3.865   1.777   9.708 -0.4932  0.0194 -0.3076
   43CHL1    C6 5597   3.939   1.849   9.621  0.1998 -0.3957 -0.0445
   43CHL1    H6 5598   4.034   1.889   9.660 -0.2079  0.5986 -0.0340
   43CHL1    C7 5599   3.899   1.867   9.477 -1.1050  0.1929  0.5544
   43CHL1   H7A 5600   3.922   1.974   9.454 -0.8949  0.1286  0.4624
   43CHL1   H7B 5601   3.979   1.812   9.423 -0.0427  0.8232  1.4629
   43CHL1    C8 5602   3.756   1.821   9.443 -0.0091  0.6828  0.0315
   43CHL1    H8 5603   3.683   1.901   9.469 -0.0282 -0.2306  2.9214
   43CHL1   C14 5604   3.755   1.808   9.289  0.5481 -0.4682  0.0456
   43CHL1   H14 5605   3.815   1.717   9.264 -0.0672 -0.9663  0.3578
   43CHL1   C15 5606   3.813   1.916   9.191 -0.6169  0.2290  0.1950
   43CHL1  H15A 5607   3.772   2.018   9.210  1.0721  0.6203  1.8959
   43CHL1  H15B 5608   3.922   1.937   9.187 -0.7659  1.1694  0.7578
   43CHL1   C16 5609   3.761   1.865   9.056  0.2719  0.3248  1.1700
   43CHL1  H16A 5610   3.715   1.953   9.006  1.1034 -0.3058 -0.7281
   43CHL1  H16B 5611   3.845   1.827   8.994 -0.2541 -1.0917  1.3202
   43CHL1   C17 5612   3.657   1.750   9.086  0.6090 -0.3939 -0.0247
   43CHL1   H17 5613   3.707   1.652   9.070  1.7420  0.0803  0.4952
   43CHL1   C13 5614   3.621   1.772   9.235 -0.5231  0.9447 -0.3797
   43CHL1   C18 5615   3.515   1.883   9.253  0.5572  0.6470  0.6530
   43CHL1  H18A 5616   3.416   1.835   9.232  0.1382  1.1398  1.5058
   43CHL1  H18B 5617   3.524   1.926   9.355  2.8811 -1.0746  1.2031
   43CHL1  H18C 5618   3.529   1.969   9.184 -2.5106  0.1990 -0.6212
   43CHL1   C12 5619   3.578   1.636   9.298  0.4795 -0.2144  0.2084
   43CHL1  H12A 5620   3.479   1.596   9.266  0.2171  0.8106 -0.3018
   43CHL1  H12B 5621   3.647   1.556   9.263  0.6968  0.1338 -0.1640
   43CHL1   C11 5622   3.579   1.653   9.450  0.8715  0.0517 -1.3573
   43CHL1  H11A 5623   3.506   1.734   9.471  1.3788  0.0074  0.7107
   43CHL1  H11B 5624   3.567   1.553   9.496  1.6229  0.2186 -0.7843
   43CHL1    C9 5625   3.715   1.702   9.515 -0.4561  0.2107 -0.1973
   43CHL1    H9 5626   3.785   1.622   9.484  0.5342  0.4381  1.3960
   43CHL1   C10 5627   3.730   1.705   9.666  0.4371 -0.4996  0.1001
   43CHL1   C19 5628   3.608   1.779   9.729 -0.3416 -0.6528 -0.1108
   43CHL1  H19A 5629   3.523   1.709   9.716 -0.1067 -0.7557 -1.0889
   43CHL1  H19B 5630   3.629   1.806   9.835 -0.9856 -1.0169  0.1123
   43CHL1  H19C 5631   3.589   1.871   9.671 -0.2936 -1.6272 -1.6954
   43CHL1    C1 5632   3.728   1.564   9.730  0.3245  0.1741  0.1594
   43CHL1   H1A 5633   3.623   1.532   9.710  0.8868 -1.3370 -0.4415
   43CHL1   H1B 5634   3.794   1.498   9.670  1.5272  0.6337  0.9680
   43CHL1    C2 5635   3.766   1.551   9.879  0.8404 -0.0899 -0.4654
   43CHL1   H2A 5636   3.769   1.445   9.914 -0.6764  0.1617  0.5067
   43CHL1   H2B 5637   3.685   1.591   9.944  1.2346 -1.5554  0.9654
   43CHL1   C20 5638   3.539   1.741   8.987  0.4416  0.6518  0.4423
   43CHL1   H20 5639   3.471   1.828   9.005 -0.8121 -0.6171  1.9543
   43CHL1   C21 5640   3.457   1.614   9.010 -0.1497  0.3182 -0.4192
   43CHL1  H21A 5641   3.398   1.621   9.103  1.6359 -1.3037  0.8741
   43CHL1  H21B 5642   3.528   1.529   9.005  1.8087  1.9323 -0.6956
   43CHL1  H21C 5643   3.390   1.600   8.922  0.7117 -1.3837 -0.8183
   43CHL1   C22 5644   3.585   1.745   8.840 -0.3345 -0.7366 -0.2596
   43CHL1  H22A 5645   3.671   1.813   8.826 -0.4349 -1.0092 -2.4897
   43CHL1  H22B 5646   3.624   1.643   8.820 -0.0210 -0.3602 -1.6310
   43CHL1   C23 5647   3.487   1.766   8.723 -0.1098 -0.3440 -0.5217
   43CHL1  H23A 5648   3.412   1.685   8.711 -2.8288  1.5069  2.9166
   43CHL1  H23B 5649   3.433   1.861   8.745  0.5865 -0.0373 -0.1183
   43CHL1   C24 5650   3.567   1.803   8.588 -0.3159 -0.1496 -0.3830
   43CHL1  H24A 5651   3.619   1.900   8.607 -1.1006  0.2713 -0.3592
   43CHL1  H24B 5652   3.633   1.717   8.564  1.1697  0.7816  0.2473
   43CHL1   C25 5653   3.479   1.836   8.462  0.9446  0.5760 -0.5199
   43CHL1   H25 5654   3.417   1.922   8.498  0.6114  0.1242 -0.0104
   43CHL1   C26 5655   3.559   1.883   8.347  0.1838 -0.3887  0.8197
   43CHL1  H26A 5656   3.599   1.983   8.375 -0.6406  0.3250 -0.4559
   43CHL1  H26B 5657   3.638   1.810   8.316  0.5754  0.5582 -0.4915
   43CHL1  H26C 5658   3.494   1.909   8.261 -2.5432  0.0325  2.9680
   43CHL1   C27 5659   3.391   1.718   8.417  0.5873 -0.6026  0.1065
   43CHL1  H27A 5660   3.359   1.731   8.311  0.2073 -0.0368  0.2915
   43CHL1  H27B 5661   3.451   1.624   8.426  0.2714 -0.9811 -1.4375
   43CHL1  H27C 5662   3.303   1.718   8.484  0.8929  0.8786  0.5164
   44CHL1    C3 5663   3.996   2.230  10.172 -0.7490 -0.0247 -1.3351
   44CHL1    H3 5664   4.086   2.291  10.194  0.4776 -1.3883 -2.4686
   44CHL1    O3 5665   3.954   2.189  10.301 -0.7659 -0.4280 -0.3198
   44CHL1   H3' 5666   3.879   2.131  10.285 -0.6330 -1.1775  1.6215
   44CHL1    C4 5667   3.874   2.307  10.111 -0.0216 -0.1039  0.5683
   44CHL1   H4A 5668   3.784   2.244  10.127  0.6676 -0.7330  2.1234
   44CHL1   H4B 5669   3.862   2.389  10.185  0.8094  0.3688  0.1852
   44CHL1    C5 5670   3.917   2.349   9.970 -0.1285 -0.2509 -0.5838
   44CHL1    C6 5671   3.908   2.477   9.925  0.5787 -0.0341  0.2420
   44CHL1    H6 5672   3.881   2.554   9.999 -0.2203  0.6702 -0.7719
   44CHL1    C7 5673   3.920   2.521   9.781  0.1652 -1.2254 -0.6192
   44CHL1   H7A 5674   3.833   2.583   9.749 -0.1107 -2.0114 -1.4347
   44CHL1   H7B 5675   4.017   2.573   9.767 -0.1727  0.0649  1.7116
   44CHL1    C8 5676   3.936   2.396   9.688  0.7335  0.2966  0.0751
   44CHL1    H8 5677   3.832   2.357   9.675  1.5264 -1.5997 -0.8539
   44CHL1   C14 5678   3.983   2.442   9.551 -0.0417  0.7007  0.0376
   44CHL1   H14 5679   4.090   2.468   9.560 -0.0664  0.5637  0.7486
   44CHL1   C15 5680   3.929   2.573   9.488 -0.4755  0.8519 -0.4104
   44CHL1  H15A 5681   3.821   2.577   9.515 -0.7333 -1.9860 -0.9387
   44CHL1  H15B 5682   3.994   2.654   9.527 -0.1237  0.2628  0.2224
   44CHL1   C16 5683   3.932   2.546   9.341 -0.5830  0.5150  0.0033
   44CHL1  H16A 5684   3.826   2.534   9.310 -1.0996  1.3434  1.4151
   44CHL1  H16B 5685   3.986   2.628   9.289  1.5164 -1.5978 -1.1899
   44CHL1   C17 5686   4.010   2.409   9.320  0.7303  0.0503 -1.1070
   44CHL1   H17 5687   4.116   2.440   9.330 -0.5444  4.5954 -0.0855
   44CHL1   C13 5688   3.976   2.332   9.445  0.1547 -0.7395 -0.2763
   44CHL1   C18 5689   3.843   2.264   9.430  0.2149 -0.5455  0.3848
   44CHL1  H18A 5690   3.845   2.175   9.364  1.1686 -0.0327 -0.2736
   44CHL1  H18B 5691   3.798   2.227   9.525 -0.3003 -2.0014 -0.4117
   44CHL1  H18C 5692   3.773   2.338   9.387  1.5931 -0.4111 -1.6690
   44CHL1   C12 5693   4.080   2.227   9.494  0.4868  0.4558 -0.1195
   44CHL1  H12A 5694   4.092   2.143   9.422  1.0705 -0.6035  1.1991
   44CHL1  H12B 5695   4.184   2.263   9.509 -0.1951  2.5442 -0.2684
   44CHL1   C11 5696   4.041   2.172   9.632 -0.2119  0.1979  0.2128
   44CHL1  H11A 5697   3.950   2.109   9.616 -0.2098  0.7466 -2.2128
   44CHL1  H11B 5698   4.118   2.098   9.662  0.3336  0.8231  0.3651
   44CHL1    C9 5699   4.015   2.280   9.742  0.3344  0.6644  0.2422
   44CHL1    H9 5700   4.115   2.312   9.776 -0.4173  0.7375  2.4684
   44CHL1   C10 5701   3.954   2.229   9.873 -0.3002 -0.3232  0.1503
   44CHL1   C19 5702   3.824   2.148   9.848  0.4799 -0.0282 -0.2485
   44CHL1  H19A 5703   3.799   2.093   9.941 -1.2943  1.1756 -0.0045
   44CHL1  H19B 5704   3.742   2.217   9.821  2.5512  2.2863 -0.8360
   44CHL1  H19C 5705   3.836   2.072   9.767  2.7448  0.0302  0.0070
   44CHL1    C1 5706   4.065   2.151   9.940  0.3337  0.3676  0.1113
   44CHL1   H1A 5707   4.081   2.061   9.877  0.6750  1.5078 -1.4803
   44CHL1   H1B 5708   4.168   2.194   9.938  0.8747 -0.9004  0.3927
   44CHL1    C2 5709   4.032   2.109  10.087 -0.3155 -0.1450  0.5551
   44CHL1   H2A 5710   4.118   2.057  10.134 -0.5238 -0.7425  0.2877
   44CHL1   H2B 5711   3.948   2.035  10.091 -0.9555  0.6397  2.4207
   44CHL1   C20 5712   3.999   2.334   9.186  0.7813  0.0824 -0.0958
   44CHL1   H20 5713   3.951   2.233   9.188  1.2108 -0.1451 -1.0772
   44CHL1   C21 5714   4.141   2.301   9.150 -0.3231 -0.0325  0.2911
   44CHL1  H21A 5715   4.199   2.394   9.169  1.1644 -0.7414 -0.6900
   44CHL1  H21B 5716   4.152   2.254   9.050  1.3520  1.4514 -0.2565
   44CHL1  H21C 5717   4.176   2.229   9.227 -0.8454 -0.4638  0.1240
   44CHL1   C22 5718   3.940   2.416   9.069 -0.0696 -0.0828  0.9778
   44CHL1  H22A 5719   3.830   2.413   9.088  0.4290 -3.2337  3.7999
   44CHL1  H22B 5720   3.973   2.522   9.070 -1.4749  0.4349 -1.9405
   44CHL1   C23 5721   3.949   2.368   8.918 -0.0910 -0.7637 -0.8551
   44CHL1  H23A 5722   3.888   2.439   8.858 -4.1198 -2.3831  1.1456
   44CHL1  H23B 5723   4.053   2.375   8.880  0.8209 -0.9404  1.5343
   44CHL1   C24 5724   3.910   2.218   8.901  0.5840  0.2458 -0.2764
   44CHL1  H24A 5725   3.975   2.144   8.953 -0.5757 -0.9566 -0.5083
   44CHL1  H24B 5726   3.804   2.217   8.934 -0.0780  0.9312 -2.3369
   44CHL1   C25 5727   3.920   2.188   8.752 -0.6065  0.1942  0.1511
   44CHL1   H25 5728   3.887   2.281   8.700 -0.0052  0.8243  0.8943
   44CHL1   C26 5729   4.058   2.159   8.693  0.3385 -0.0503 -0.0852
   44CHL1  H26A 5730   4.059   2.126   8.586 -2.5939  0.0937 -0.1770
   44CHL1  H26B 5731   4.136   2.237   8.707  2.6774 -2.7281  2.3713
   44CHL1  H26C 5732   4.100   2.074   8.751  1.2696  1.3374  1.2970
   44CHL1   C27 5733   3.814   2.082   8.706  0.2447  0.3759  0.4049
   44CHL1  H27A 5734   3.711   2.122   8.717  0.3688  0.3097  1.9174
   44CHL1  H27B 5735   3.811   2.076   8.595 -0.7357 -0.1839  0.4494
   44CHL1  H27C 5736   3.813   1.979   8.748 -1.4750 -0.3352 -1.2860
   45CHL1    C3 5737   0.931   1.484  10.108 -0.2489 -0.4213 -0.0130
   45CHL1    H3 5738   1.025   1.542  10.098 -0.2791 -0.1415  1.2401
   45CHL1    O3 5739   0.922   1.450  10.241  0.2695 -1.0292  0.1113
   45CHL1   H3' 5740   0.831   1.425  10.258  0.2062 -0.3070  0.8673
   45CHL1    C4 5741   0.809   1.568  10.067 -0.5186  0.3720 -0.4869
   45CHL1   H4A 5742   0.707   1.530  10.091 -0.0272 -0.4425  0.3207
   45CHL1   H4B 5743   0.818   1.659  10.131  0.4066  1.2981 -1.9148
   45CHL1    C5 5744   0.815   1.604   9.925  0.1277  0.4370 -0.1338
   45CHL1    C6 5745   0.812   1.733   9.886 -0.0986 -0.9234  0.2902
   45CHL1    H6 5746   0.797   1.814   9.958  1.4097 -1.9788  1.8313
   45CHL1    C7 5747   0.844   1.791   9.754  0.5084 -0.2898  0.3878
   45CHL1   H7A 5748   0.771   1.875   9.738  3.3822  1.8445 -2.1131
   45CHL1   H7B 5749   0.944   1.839   9.754  0.2396  0.2821  0.3578
   45CHL1    C8 5750   0.834   1.687   9.644 -0.5844 -0.2198 -0.0480
   45CHL1    H8 5751   0.907   1.726   9.570  2.0728 -0.4308  2.3672
   45CHL1   C14 5752   0.699   1.674   9.568  0.3691 -0.2831  0.0500
   45CHL1   H14 5753   0.624   1.647   9.646 -0.1340  0.4402 -0.1800
   45CHL1   C15 5754   0.666   1.804   9.492 -0.3161  0.4424  0.3508
   45CHL1  H15A 5755   0.572   1.847   9.533 -0.9848  0.0797 -0.7819
   45CHL1  H15B 5756   0.749   1.877   9.506  0.6541 -0.3017 -1.3657
   45CHL1   C16 5757   0.656   1.766   9.350  0.5413 -0.2938  0.2293
   45CHL1  H16A 5758   0.547   1.755   9.332  0.6096 -2.5346  0.9890
   45CHL1  H16B 5759   0.707   1.841   9.286  1.1406 -1.7653 -1.0405
   45CHL1   C17 5760   0.720   1.630   9.335 -0.5015  0.5989  0.1455
   45CHL1   H17 5761   0.831   1.634   9.344 -0.1469 -1.9416 -2.2566
   45CHL1   C13 5762   0.690   1.555   9.469  0.2768  0.3313  0.2188
   45CHL1   C18 5763   0.543   1.490   9.470  0.1238  0.1143 -0.4952
   45CHL1  H18A 5764   0.524   1.451   9.572  1.1507  1.5136  0.2409
   45CHL1  H18B 5765   0.459   1.554   9.434  0.2241  0.1588 -0.6517
   45CHL1  H18C 5766   0.547   1.402   9.403 -0.0262 -1.3894  1.4569
   45CHL1   C12 5767   0.787   1.439   9.489 -0.4094 -0.3015  0.2952
   45CHL1  H12A 5768   0.739   1.357   9.545 -0.0919  0.2336  1.3602
   45CHL1  H12B 5769   0.810   1.405   9.385  0.3284  0.9655  0.0315
   45CHL1   C11 5770   0.916   1.448   9.574 -0.4561 -0.6686 -0.1765
   45CHL1  H11A 5771   0.942   1.346   9.609 -1.3577 -0.6729  0.4758
   45CHL1  H11B 5772   1.003   1.481   9.512  1.5303 -2.5308  1.5169
   45CHL1    C9 5773   0.902   1.549   9.692 -0.0902 -0.2654 -0.3348
   45CHL1    H9 5774   1.006   1.575   9.722 -0.5532  0.2486  0.8399
   45CHL1   C10 5775   0.848   1.492   9.824  0.0860 -0.2132  0.6957
   45CHL1   C19 5776   0.718   1.413   9.811  0.6605  0.2087  1.0675
   45CHL1  H19A 5777   0.721   1.326   9.741 -1.1830  2.0158 -1.3579
   45CHL1  H19B 5778   0.689   1.383   9.914  2.1176 -2.6901  0.6753
   45CHL1  H19C 5779   0.642   1.481   9.767  2.0038  1.7708  1.1047
   45CHL1    C1 5780   0.952   1.380   9.877  0.1583  0.4163 -0.5678
   45CHL1   H1A 5781   0.953   1.294   9.806  0.7533  1.0398 -1.3304
   45CHL1   H1B 5782   1.052   1.428   9.877 -0.3526  1.5870  2.7264
   45CHL1    C2 5783   0.930   1.352  10.026  0.4733 -0.1038 -0.4184
   45CHL1   H2A 5784   1.013   1.285  10.059  0.4651  1.0660  2.0854
   45CHL1   H2B 5785   0.840   1.290  10.046  0.5820  0.6611  2.7197
   45CHL1   C20 5786   0.681   1.553   9.207 -0.5648 -0.1135  0.4519
   45CHL1   H20 5787   0.704   1.445   9.220 -1.9527 -0.6745 -1.5656
   45CHL1   C21 5788   0.770   1.607   9.099  0.0013  0.3575 -0.2700
   45CHL1  H21A 5789   0.772   1.545   9.007  3.3055 -1.2034  0.7573
   45CHL1  H21B 5790   0.878   1.601   9.126 -0.1525 -1.3331  0.0444
   45CHL1  H21C 5791   0.748   1.712   9.071  0.1233  0.5804  0.4654
   45CHL1   C22 5792   0.534   1.563   9.158  0.0260 -0.7007 -0.6727
   45CHL1  H22A 5793   0.457   1.546   9.236 -2.0273  0.4026 -2.4081
   45CHL1  H22B 5794   0.532   1.666   9.117 -2.8376 -0.5090 -0.1478
   45CHL1   C23 5795   0.501   1.464   9.051 -0.1604 -0.1965 -0.3639
   45CHL1  H23A 5796   0.581   1.470   8.974 -0.8538 -1.5392 -1.1899
   45CHL1  H23B 5797   0.501   1.364   9.100  1.7458  0.8030  1.8226
   45CHL1   C24 5798   0.363   1.478   8.981 -0.6301 -0.0353  0.4653
   45CHL1  H24A 5799   0.290   1.470   9.064  0.7709 -2.8657  1.4706
   45CHL1  H24B 5800   0.354   1.578   8.932  0.0524 -1.3552 -2.4689
   45CHL1   C25 5801   0.316   1.379   8.869 -0.5166 -0.2885  0.0446
   45CHL1   H25 5802   0.328   1.272   8.895  0.5872  0.4578  2.7480
   45CHL1   C26 5803   0.165   1.399   8.832  0.3318  0.1261 -0.3877
   45CHL1  H26A 5804   0.134   1.321   8.760  0.4060 -1.0377  0.8259
   45CHL1  H26B 5805   0.105   1.381   8.923  2.5717  0.7733  1.2810
   45CHL1  H26C 5806   0.149   1.500   8.788 -0.2448 -0.0468 -0.5676
   45CHL1   C27 5807   0.395   1.403   8.738  0.2291 -0.8188  0.5563
   45CHL1  H27A 5808   0.499   1.433   8.763 -0.2268  1.6116 -0.3136
   45CHL1  H27B 5809   0.401   1.305   8.687 -1.8752 -0.5270 -0.3038
   45CHL1  H27C 5810   0.343   1.483   8.681 -0.4957 -1.4753  0.2951
   46CHL1    C3 5811   3.384   5.306  10.002  0.4889  0.4782  1.1275
   46CHL1    H3 5812   3.468   5.254   9.951 -1.5481 -0.0755 -1.7355
   46CHL1    O3 5813   3.402   5.288  10.139  0.8467  0.1974  0.2128
   46CHL1   H3' 5814   3.315   5.262  10.169 -0.7712  1.1427 -3.4088
   46CHL1    C4 5815   3.382   5.457   9.970 -0.2274 -0.5428  0.3427
   46CHL1   H4A 5816   3.303   5.516  10.021  0.5647  1.2542 -0.4533
   46CHL1   H4B 5817   3.477   5.502  10.009  0.9002  0.8280 -3.7646
   46CHL1    C5 5818   3.368   5.490   9.819  0.1067  0.1840 -0.2369
   46CHL1    C6 5819   3.460   5.561   9.752 -0.3283 -0.2766 -1.1526
   46CHL1    H6 5820   3.548   5.596   9.808 -0.5578 -3.0578  1.0747
   46CHL1    C7 5821   3.443   5.593   9.609  0.0606 -0.3482 -0.4849
   46CHL1   H7A 5822   3.466   5.697   9.577 -1.9401  0.1743 -0.3107
   46CHL1   H7B 5823   3.516   5.533   9.551 -0.2119  1.2140 -2.5370
   46CHL1    C8 5824   3.306   5.552   9.540  0.6203  0.8598 -0.4255
   46CHL1    H8 5825   3.228   5.627   9.561 -2.1246 -2.5390  2.1442
   46CHL1   C14 5826   3.316   5.549   9.391  0.1042  0.2320 -0.0112
   46CHL1   H14 5827   3.384   5.462   9.376  0.4236  0.3340  0.8304
   46CHL1   C15 5828   3.375   5.672   9.315 -0.4345 -0.4043  0.3835
   46CHL1  H15A 5829   3.342   5.763   9.368  2.1328 -0.6683  2.5632
   46CHL1  H15B 5830   3.486   5.674   9.321 -0.4637 -2.2233  1.8099
   46CHL1   C16 5831   3.324   5.650   9.171  0.3018 -0.0584 -0.2810
   46CHL1  H16A 5832   3.257   5.738   9.155 -0.6966 -1.2464 -2.9511
   46CHL1  H16B 5833   3.401   5.651   9.091  0.5409 -2.0513 -0.0941
   46CHL1   C17 5834   3.239   5.521   9.176  0.1915 -0.5215  0.5063
   46CHL1   H17 5835   3.306   5.435   9.154 -0.1206 -0.2563 -1.6562
   46CHL1   C13 5836   3.186   5.508   9.319 -0.1752  0.0581 -0.7244
   46CHL1   C18 5837   3.073   5.607   9.342  0.7476 -0.2330 -0.0025
   46CHL1  H18A 5838   3.051   5.635   9.448  0.7201  0.0316 -0.0802
   46CHL1  H18B 5839   3.095   5.707   9.300 -2.1988  1.0061  1.2155
   46CHL1  H18C 5840   2.978   5.570   9.298  0.9570 -1.0676  0.2389
   46CHL1   C12 5841   3.158   5.367   9.371 -0.1453 -0.3671  0.4422
   46CHL1  H12A 5842   3.063   5.337   9.322  0.4976 -0.6627 -0.6372
   46CHL1  H12B 5843   3.235   5.293   9.340  0.8460  0.0868  1.7785
   46CHL1   C11 5844   3.136   5.365   9.521 -0.3360 -0.0682 -0.5998
   46CHL1  H11A 5845   3.052   5.431   9.550 -0.9559 -1.2705  0.3400
   46CHL1  H11B 5846   3.103   5.262   9.544  1.9281 -1.4390 -3.0834
   46CHL1    C9 5847   3.260   5.416   9.597  0.4163 -0.0723 -0.6439
   46CHL1    H9 5848   3.342   5.343   9.578  0.4428 -0.4596  0.8897
   46CHL1   C10 5849   3.245   5.416   9.754  0.2810  0.0551  1.2530
   46CHL1   C19 5850   3.123   5.503   9.801  0.2660 -0.4299  0.3261
   46CHL1  H19A 5851   3.027   5.457   9.769  0.7632 -1.7127  0.6352
   46CHL1  H19B 5852   3.128   5.517   9.911  1.3868 -0.1623  0.2508
   46CHL1  H19C 5853   3.128   5.604   9.757 -1.4474 -0.1633  0.7087
   46CHL1    C1 5854   3.240   5.262   9.804 -0.3914  0.1527  0.1501
   46CHL1   H1A 5855   3.152   5.209   9.761  0.2684 -0.1075 -0.9054
   46CHL1   H1B 5856   3.327   5.203   9.769  1.8896  4.1007 -1.0940
   46CHL1    C2 5857   3.247   5.255   9.958  0.4153 -0.2840 -0.2116
   46CHL1   H2A 5858   3.240   5.146   9.981 -0.6688 -0.3260 -0.6860
   46CHL1   H2B 5859   3.162   5.309  10.006 -0.0622 -0.6656 -0.6130
   46CHL1   C20 5860   3.138   5.514   9.059 -0.4738  0.2621  0.0614
   46CHL1   H20 5861   3.051   5.581   9.077 -0.5782  0.3226 -0.6193
   46CHL1   C21 5862   3.081   5.368   9.043 -0.4881  0.1855 -0.7121
   46CHL1  H21A 5863   3.025   5.338   9.134 -0.6397  0.8010 -0.6006
   46CHL1  H21B 5864   3.168   5.302   9.025 -0.9149 -0.1583 -1.5324
   46CHL1  H21C 5865   3.004   5.368   8.963 -0.6772  1.2435 -0.5480
   46CHL1   C22 5866   3.196   5.564   8.919  0.0424  0.4656  0.4762
   46CHL1  H22A 5867   3.240   5.665   8.906  1.0669 -0.2684 -1.9156
   46CHL1  H22B 5868   3.286   5.509   8.885 -0.3966  1.0177 -1.6625
   46CHL1   C23 5869   3.106   5.548   8.800  0.0610 -0.1651 -0.1054
   46CHL1  H23A 5870   3.089   5.439   8.791  0.5013 -0.3130  0.7642
   46CHL1  H23B 5871   3.007   5.591   8.828 -0.5318 -2.1666  0.9552
   46CHL1   C24 5872   3.150   5.625   8.673  0.3452 -0.8224 -0.1028
   46CHL1  H24A 5873   3.156   5.733   8.699 -2.7729 -0.8932  1.1142
   46CHL1  H24B 5874   3.250   5.587   8.642 -0.0507  0.3454 -2.9623
   46CHL1   C25 5875   3.062   5.615   8.550 -0.1401 -0.5321  0.2366
   46CHL1   H25 5876   3.010   5.518   8.567  0.8555 -1.2265 -0.5549
   46CHL1   C26 5877   2.956   5.723   8.522 -0.5725  0.6847  0.2960
   46CHL1  H26A 5878   2.884   5.728   8.607 -0.9294 -0.2259  0.0602
   46CHL1  H26B 5879   3.004   5.823   8.524 -0.8883  0.8483  3.3949
   46CHL1  H26C 5880   2.910   5.703   8.423  1.9927  0.7135 -0.9283
   46CHL1   C27 5881   3.146   5.606   8.424  0.0535  0.8341 -0.3177
   46CHL1  H27A 5882   3.202   5.700   8.410  3.4065 -1.0923 -0.2107
   46CHL1  H27B 5883   3.204   5.511   8.426 -1.6503 -0.2412 -0.6574
   46CHL1  H27C 5884   3.071   5.582   8.345 -0.1960  1.0623 -0.1527
   47CHL1    C3 5885   4.291   2.517  10.182  0.9349 -0.4594 -0.1553
   47CHL1    H3 5886   4.199   2.471  10.138  0.2193 -0.0672  0.9071
   47CHL1    O3 5887   4.288   2.486  10.319 -0.5678 -0.0776  0.0185
   47CHL1   H3' 5888   4.215   2.539  10.353 -0.0389  1.2817 -0.9308
   47CHL1    C4 5889   4.409   2.452  10.122  0.3922 -0.8664 -0.1090
   47CHL1   H4A 5890   4.502   2.499  10.161  1.3116 -2.1050 -0.7727
   47CHL1   H4B 5891   4.424   2.351  10.165  1.2105 -0.3079  0.9626
   47CHL1    C5 5892   4.416   2.468   9.977  0.1263 -0.5594 -0.5473
   47CHL1    C6 5893   4.407   2.367   9.900  0.0551 -0.3341 -0.4915
   47CHL1    H6 5894   4.409   2.264   9.936  2.7141 -1.2932 -3.1061
   47CHL1    C7 5895   4.407   2.381   9.751  0.1405 -0.4796  0.0822
   47CHL1   H7A 5896   4.470   2.300   9.709 -0.5098 -1.8570  1.7134
   47CHL1   H7B 5897   4.305   2.359   9.713  0.7285 -2.0336 -0.6492
   47CHL1    C8 5898   4.452   2.511   9.697  0.6338  0.1026  0.2959
   47CHL1    H8 5899   4.560   2.517   9.723  0.4009  1.2104  0.9978
   47CHL1   C14 5900   4.413   2.526   9.545 -0.3059  0.1320 -1.0607
   47CHL1   H14 5901   4.302   2.523   9.537 -0.3242 -1.3788 -0.5406
   47CHL1   C15 5902   4.474   2.421   9.450  0.4132  0.4849 -0.0815
   47CHL1  H15A 5903   4.584   2.421   9.468  0.0086  0.2508  2.6129
   47CHL1  H15B 5904   4.437   2.317   9.458  1.6854  0.1290  1.3548
   47CHL1   C16 5905   4.465   2.491   9.315 -0.3951 -0.6995 -0.3776
   47CHL1  H16A 5906   4.563   2.476   9.265 -1.7194 -3.2057 -2.3270
   47CHL1  H16B 5907   4.381   2.445   9.259 -1.5807  1.0462 -0.1051
   47CHL1   C17 5908   4.427   2.642   9.339 -0.5127 -0.4840  0.1977
   47CHL1   H17 5909   4.317   2.645   9.320 -0.4933 -1.4678 -0.0900
   47CHL1   C13 5910   4.452   2.666   9.490  0.3586 -0.2100  0.6401
   47CHL1   C18 5911   4.606   2.694   9.498  0.1110 -0.3363 -0.9383
   47CHL1  H18A 5912   4.648   2.618   9.429 -2.3970 -2.4791 -0.1839
   47CHL1  H18B 5913   4.625   2.798   9.464 -1.0307 -0.0608 -0.7512
   47CHL1  H18C 5914   4.640   2.691   9.604 -3.3972  1.1375  0.2999
   47CHL1   C12 5915   4.361   2.770   9.559  0.3028 -1.0137 -0.2332
   47CHL1  H12A 5916   4.385   2.872   9.523  0.6213 -0.7526  0.7071
   47CHL1  H12B 5917   4.252   2.748   9.547 -0.4399  2.4392 -0.1883
   47CHL1   C11 5918   4.378   2.763   9.712 -0.1528  0.8868  0.5042
   47CHL1  H11A 5919   4.477   2.806   9.738  0.4456 -0.2304  0.1235
   47CHL1  H11B 5920   4.305   2.829   9.763  0.8274  2.1956  0.2206
   47CHL1    C9 5921   4.378   2.619   9.774 -0.0927 -0.5143  0.0942
   47CHL1    H9 5922   4.271   2.590   9.763 -0.7547  1.6943  0.5033
   47CHL1   C10 5923   4.401   2.617   9.925  0.1685 -0.2494 -0.1108
   47CHL1   C19 5924   4.535   2.699   9.954 -0.3264  0.4289  0.1001
   47CHL1  H19A 5925   4.582   2.675  10.051 -1.8796 -0.2355  0.6954
   47CHL1  H19B 5926   4.620   2.664   9.891 -0.7468 -1.4051  0.5159
   47CHL1  H19C 5927   4.522   2.809   9.950  0.7918  0.5663  0.0937
   47CHL1    C1 5928   4.285   2.688   9.998 -0.0156  1.2384 -0.0816
   47CHL1   H1A 5929   4.262   2.794   9.970  0.6725  1.0076 -1.5793
   47CHL1   H1B 5930   4.194   2.630   9.971  1.3247  0.0832 -2.2510
   47CHL1    C2 5931   4.302   2.668  10.153  0.0995 -0.2535  0.8669
   47CHL1   H2A 5932   4.211   2.706  10.203  0.5103  1.2936  0.4823
   47CHL1   H2B 5933   4.381   2.731  10.201  0.8199  0.0646 -0.6994
   47CHL1   C20 5934   4.476   2.737   9.227 -0.3565 -0.0716 -0.2503
   47CHL1   H20 5935   4.586   2.744   9.244 -0.7936 -0.1336  2.7959
   47CHL1   C21 5936   4.410   2.877   9.241  0.7728 -0.1482 -0.1884
   47CHL1  H21A 5937   4.432   2.943   9.155  0.4605 -0.4930 -0.5381
   47CHL1  H21B 5938   4.448   2.940   9.325 -2.5711 -0.4371  1.6438
   47CHL1  H21C 5939   4.303   2.858   9.264  1.4032 -1.1617  2.1895
   47CHL1   C22 5940   4.462   2.693   9.080 -0.1300  0.2809  0.0797
   47CHL1  H22A 5941   4.529   2.752   9.014 -0.2588  1.4605  0.9809
   47CHL1  H22B 5942   4.487   2.586   9.067  2.3654  0.6278  1.6336
   47CHL1   C23 5943   4.321   2.709   9.030  0.4572 -0.5077  0.2810
   47CHL1  H23A 5944   4.261   2.658   9.109 -0.0486 -1.0242 -0.4334
   47CHL1  H23B 5945   4.282   2.813   9.022  0.0734 -0.6652  0.1450
   47CHL1   C24 5946   4.289   2.637   8.899  0.2455  0.6924 -0.9106
   47CHL1  H24A 5947   4.322   2.532   8.912 -2.5229  0.1610  2.4515
   47CHL1  H24B 5948   4.179   2.637   8.880  0.3882  1.8091 -1.7970
   47CHL1   C25 5949   4.360   2.701   8.770  0.0250  0.4130  0.5157
   47CHL1   H25 5950   4.467   2.705   8.799  0.4479 -0.9687 -0.8123
   47CHL1   C26 5951   4.326   2.612   8.647  0.8138 -0.7552 -0.2367
   47CHL1  H26A 5952   4.216   2.601   8.636  0.7734  0.7668 -1.6744
   47CHL1  H26B 5953   4.371   2.515   8.675 -0.2718 -0.9161  0.9890
   47CHL1  H26C 5954   4.374   2.639   8.550 -1.6511 -0.0453 -1.3161
   47CHL1   C27 5955   4.323   2.848   8.748  0.4272  0.4459 -0.4626
   47CHL1  H27A 5956   4.387   2.905   8.677  1.1910  1.1970  0.8189
   47CHL1  H27B 5957   4.221   2.848   8.704  0.0509  2.1904  0.4069
   47CHL1  H27C 5958   4.317   2.901   8.845  0.1156  2.0417 -1.3451
   48CHL1    C3 5959   4.912   2.150  10.037  0.3403  0.2070 -0.3527
   48CHL1    H3 5960   5.007   2.207  10.040  1.9215 -2.2880 -0.8759
   48CHL1    O3 5961   4.874   2.125  10.171  0.1557 -0.9431  0.2586
   48CHL1   H3' 5962   4.796   2.069  10.166 -1.3875  0.9662  1.7823
   48CHL1    C4 5963   4.794   2.217   9.964  0.1996  0.5288 -0.6515
   48CHL1   H4A 5964   4.701   2.158   9.965 -0.4342  1.5250  0.7230
   48CHL1   H4B 5965   4.769   2.302  10.032  0.2543 -0.9961  1.3298
   48CHL1    C5 5966   4.826   2.248   9.822  0.0053  0.0922  0.0303
   48CHL1    C6 5967   4.831   2.373   9.780  0.2038  0.3992 -0.0731
   48CHL1    H6 5968   4.790   2.449   9.848 -1.4067 -2.0155  1.6975
   48CHL1    C7 5969   4.866   2.408   9.639  0.1352 -0.3351  0.1516
   48CHL1   H7A 5970   4.792   2.481   9.598  0.5196  0.6059  1.0939
   48CHL1   H7B 5971   4.963   2.462   9.637  0.2364 -0.4962  0.7414
   48CHL1    C8 5972   4.874   2.290   9.544  0.4523 -0.1206  0.2278
   48CHL1    H8 5973   4.773   2.270   9.502  1.5620 -0.9803 -2.0921
   48CHL1   C14 5974   4.947   2.337   9.419 -0.1069 -0.6806 -0.1277
   48CHL1   H14 5975   5.055   2.355   9.439 -0.1210  0.8088 -1.2809
   48CHL1   C15 5976   4.887   2.455   9.339 -0.3644  0.3666  0.6342
   48CHL1  H15A 5977   4.777   2.441   9.333 -0.3235 -0.4650  1.8396
   48CHL1  H15B 5978   4.910   2.556   9.380 -2.5861  1.2320 -0.1727
   48CHL1   C16 5979   4.944   2.434   9.196  0.1065  0.3877 -0.1818
   48CHL1  H16A 5980   4.867   2.441   9.116  0.0328  1.7991 -0.0105
   48CHL1  H16B 5981   5.021   2.514   9.187  0.9932 -0.6368 -1.8716
   48CHL1   C17 5982   5.018   2.300   9.200 -0.1000  0.0366  0.2328
   48CHL1   H17 5983   5.123   2.318   9.234  0.2164  0.0878 -0.7418
   48CHL1   C13 5984   4.958   2.231   9.311  0.9258 -0.2866 -0.0119
   48CHL1   C18 5985   4.814   2.177   9.259 -0.6889 -0.5077  0.0313
   48CHL1  H18A 5986   4.748   2.145   9.342 -0.9709 -0.3607 -0.1365
   48CHL1  H18B 5987   4.771   2.261   9.200  2.0065  0.2116 -1.0131
   48CHL1  H18C 5988   4.828   2.089   9.193 -0.8488 -0.6928  0.2462
   48CHL1   C12 5989   5.041   2.120   9.376 -0.1946  0.9255 -0.0404
   48CHL1  H12A 5990   5.049   2.030   9.312  1.4870 -0.6603  2.2869
   48CHL1  H12B 5991   5.144   2.160   9.394 -0.8800  1.8211  2.1229
   48CHL1   C11 5992   4.981   2.064   9.511 -0.2433 -0.3874  0.1284
   48CHL1  H11A 5993   4.884   2.032   9.467 -1.5085  2.4856  0.7053
   48CHL1  H11B 5994   5.036   1.974   9.545  0.0508 -1.2102 -2.3855
   48CHL1    C9 5995   4.945   2.175   9.614  0.4562  0.4894 -0.0109
   48CHL1    H9 5996   5.042   2.215   9.649  0.4780  2.2182 -1.9435
   48CHL1   C10 5997   4.878   2.131   9.741  0.2285 -0.1392 -0.0869
   48CHL1   C19 5998   4.764   2.036   9.713 -0.2027 -0.7592  0.0812
   48CHL1  H19A 5999   4.697   2.098   9.648  0.2347  0.5652  0.8652
   48CHL1  H19B 6000   4.803   1.947   9.660  0.7709 -0.9487  1.1094
   48CHL1  H19C 6001   4.698   2.000   9.794  0.0400 -1.2556  0.0535
   48CHL1    C1 6002   4.989   2.056   9.831  0.4677 -0.7065 -0.1797
   48CHL1   H1A 6003   5.004   1.962   9.774  0.9221 -1.8347  1.7606
   48CHL1   H1B 6004   5.084   2.115   9.831  0.0506  0.0304  2.4074
   48CHL1    C2 6005   4.941   2.023   9.964 -0.2738  1.0106 -0.1703
   48CHL1   H2A 6006   5.017   1.973  10.029  3.0929  4.3738 -1.3650
   48CHL1   H2B 6007   4.852   1.956   9.962 -0.2967  0.9142  2.2129
   48CHL1   C20 6008   5.027   2.222   9.069  0.0214  0.6186  0.4989
   48CHL1   H20 6009   4.931   2.173   9.044 -0.4953  1.4803  0.7911
   48CHL1   C21 6010   5.146   2.113   9.078 -0.2236 -0.4517  0.4345
   48CHL1  H21A 6011   5.101   2.022   9.122  0.7068 -0.6150  1.0790
   48CHL1  H21B 6012   5.235   2.147   9.137 -0.9764  1.2446  0.6274
   48CHL1  H21C 6013   5.175   2.088   8.974  0.9518 -1.3479  0.9672
   48CHL1   C22 6014   5.061   2.314   8.947 -0.4140  0.0393 -0.6647
   48CHL1  H22A 6015   5.085   2.239   8.868  0.9435 -1.9684  1.5645
   48CHL1  H22B 6016   4.974   2.378   8.920  0.6401  0.4557 -3.2341
   48CHL1   C23 6017   5.173   2.420   8.962  0.1714  0.4704  0.3011
   48CHL1  H23A 6018   5.164   2.480   9.054  1.8977  0.7856  0.2899
   48CHL1  H23B 6019   5.271   2.368   8.976 -0.4196 -0.7783 -0.0982
   48CHL1   C24 6020   5.192   2.520   8.837  0.4216 -0.8247  0.6424
   48CHL1  H24A 6021   5.092   2.567   8.820 -0.9023 -3.3027  1.3487
   48CHL1  H24B 6022   5.261   2.602   8.869  0.4331 -0.8778  0.7519
   48CHL1   C25 6023   5.229   2.453   8.707  0.3328  0.4991 -0.0444
   48CHL1   H25 6024   5.164   2.364   8.696  1.1092 -0.0219 -0.4357
   48CHL1   C26 6025   5.200   2.549   8.593  0.6938  0.0545 -1.0334
   48CHL1  H26A 6026   5.277   2.629   8.582 -0.7204  1.6994  0.6507
   48CHL1  H26B 6027   5.218   2.500   8.495  0.5961  0.2080 -1.1268
   48CHL1  H26C 6028   5.095   2.584   8.593  0.1152 -1.6504 -1.8212
   48CHL1   C27 6029   5.366   2.397   8.715  0.2152 -0.0631 -0.5569
   48CHL1  H27A 6030   5.368   2.310   8.784 -0.0988  0.2176 -0.1931
   48CHL1  H27B 6031   5.396   2.366   8.613 -0.6771 -0.9579 -0.5521
   48CHL1  H27C 6032   5.434   2.482   8.734 -1.0951  1.1139 -1.1105
   49CHL1    C3 6033   3.122   4.689  10.115 -0.4021  0.1021 -0.6007
   49CHL1    H3 6034   3.016   4.716  10.095 -1.0336 -1.1042  0.9805
   49CHL1    O3 6035   3.144   4.661  10.253 -0.3591  0.6540  0.1541
   49CHL1   H3' 6036   3.237   4.680  10.270  0.1261 -0.2468 -1.3146
   49CHL1    C4 6037   3.164   4.565  10.034 -0.0676 -0.9722 -1.0745
   49CHL1   H4A 6038   3.272   4.541  10.044  0.3163  1.3773  0.8353
   49CHL1   H4B 6039   3.103   4.481  10.073 -0.9354  0.1624  0.0419
   49CHL1    C5 6040   3.143   4.592   9.891  0.0711 -0.1098 -0.3853
   49CHL1    C6 6041   3.055   4.519   9.817  0.5043 -0.2268 -0.1946
   49CHL1    H6 6042   3.016   4.430   9.868  1.3730  0.0223  0.9309
   49CHL1    C7 6043   3.012   4.541   9.675 -0.0929  0.0736 -0.4237
   49CHL1   H7A 6044   3.015   4.448   9.615  0.2049  0.0610 -0.3928
   49CHL1   H7B 6045   2.907   4.576   9.678  0.7790  2.7421  1.6818
   49CHL1    C8 6046   3.094   4.652   9.602  0.6999  0.6818  0.1125
   49CHL1    H8 6047   3.188   4.602   9.570 -0.6121 -2.6609  1.1864
   49CHL1   C14 6048   3.021   4.703   9.480 -0.5722 -0.7157  0.0701
   49CHL1   H14 6049   2.922   4.742   9.511 -0.1207 -0.0174  0.6819
   49CHL1   C15 6050   2.981   4.603   9.365  0.5140  0.3837 -0.2786
   49CHL1  H15A 6051   3.066   4.535   9.343 -0.0661 -1.0224  1.6833
   49CHL1  H15B 6052   2.895   4.539   9.395  0.8702  0.2801  0.5271
   49CHL1   C16 6053   2.954   4.685   9.234  0.2382  0.2155 -0.4174
   49CHL1  H16A 6054   3.028   4.654   9.157 -0.4609 -0.2041 -0.9139
   49CHL1  H16B 6055   2.845   4.685   9.215  0.2087 -0.2911 -0.2513
   49CHL1   C17 6056   3.000   4.830   9.271 -0.0803 -0.1503 -0.3139
   49CHL1   H17 6057   2.913   4.885   9.312  1.7412 -0.1363  3.8022
   49CHL1   C13 6058   3.097   4.815   9.395 -0.0181  0.0238  0.6564
   49CHL1   C18 6059   3.235   4.768   9.348  0.1111 -0.0721  0.2102
   49CHL1  H18A 6060   3.288   4.850   9.295  2.8826 -1.9009  0.0199
   49CHL1  H18B 6061   3.311   4.751   9.427  0.3334  1.5118  0.3550
   49CHL1  H18C 6062   3.225   4.675   9.287  0.4838 -1.1649  1.7759
   49CHL1   C12 6063   3.111   4.937   9.496  0.0452 -0.4741  0.4278
   49CHL1  H12A 6064   3.174   5.019   9.458 -1.9975  1.1678  0.4846
   49CHL1  H12B 6065   3.007   4.972   9.513  1.0150  1.8958  1.5830
   49CHL1   C11 6066   3.177   4.892   9.626 -0.1199 -0.4346 -0.1792
   49CHL1  H11A 6067   3.281   4.860   9.607  0.6019 -1.8141  5.4845
   49CHL1  H11B 6068   3.169   4.973   9.701  1.3580 -2.0507  1.7496
   49CHL1    C9 6069   3.115   4.766   9.699  0.2806 -0.3843  0.0947
   49CHL1    H9 6070   3.011   4.791   9.728 -0.2073 -0.9257 -1.1881
   49CHL1   C10 6071   3.186   4.726   9.825 -0.1412 -0.1828 -0.4519
   49CHL1   C19 6072   3.339   4.711   9.790 -0.1141  0.1634  0.0981
   49CHL1  H19A 6073   3.398   4.663   9.870 -1.8354 -1.2176  0.5573
   49CHL1  H19B 6074   3.346   4.639   9.706  0.5181  1.7671 -1.2486
   49CHL1  H19C 6075   3.391   4.804   9.757 -0.1158 -0.4699 -1.7464
   49CHL1    C1 6076   3.178   4.844   9.927 -0.2518  0.6242 -0.5465
   49CHL1   H1A 6077   3.255   4.916   9.892  0.5240 -0.2624 -0.6861
   49CHL1   H1B 6078   3.083   4.901   9.931 -0.1736  0.7181 -0.0460
   49CHL1    C2 6079   3.213   4.812  10.073  0.5369 -0.1956  0.0754
   49CHL1   H2A 6080   3.194   4.896  10.143 -0.4805 -0.0518 -0.3611
   49CHL1   H2B 6081   3.320   4.791  10.094 -0.1300 -2.6531  1.2095
   49CHL1   C20 6082   3.053   4.903   9.147  0.3069  0.2565  0.6338
   49CHL1   H20 6083   3.137   4.840   9.111 -0.1855  0.1590 -0.3635
   49CHL1   C21 6084   3.113   5.041   9.187 -0.2030 -0.3226  0.0854
   49CHL1  H21A 6085   3.047   5.103   9.252  0.0874  0.3917 -0.2872
   49CHL1  H21B 6086   3.151   5.093   9.096  1.3192 -0.5361  0.5897
   49CHL1  H21C 6087   3.211   5.022   9.236 -0.0502  1.5660  0.5734
   49CHL1   C22 6088   2.944   4.913   9.038 -0.1568 -0.1312 -0.0870
   49CHL1  H22A 6089   2.906   4.811   9.017  0.5910  0.2091 -3.2886
   49CHL1  H22B 6090   2.872   4.980   9.091 -0.2080  0.5603 -1.0280
   49CHL1   C23 6091   2.981   4.975   8.903 -0.2285 -0.0341 -0.4566
   49CHL1  H23A 6092   3.003   5.082   8.924 -1.9015  0.3615 -0.5704
   49CHL1  H23B 6093   3.063   4.926   8.847 -0.0303  0.3018 -0.4613
   49CHL1   C24 6094   2.864   4.987   8.806  0.4499 -0.4739  0.7509
   49CHL1  H24A 6095   2.797   4.899   8.807  0.9945 -0.8877  1.2599
   49CHL1  H24B 6096   2.807   5.075   8.844  1.2582  0.4972 -0.2668
   49CHL1   C25 6097   2.905   5.013   8.660  0.1338  0.5045  0.5730
   49CHL1   H25 6098   2.970   4.932   8.620  2.0589  0.4957  3.5877
   49CHL1   C26 6099   2.782   5.015   8.561  0.2967 -0.1038  0.4581
   49CHL1  H26A 6100   2.810   5.022   8.454  0.5265  0.5316  0.5630
   49CHL1  H26B 6101   2.722   4.922   8.568 -1.0386  0.5526 -1.6924
   49CHL1  H26C 6102   2.711   5.095   8.588  0.6134  0.6839 -1.0202
   49CHL1   C27 6103   2.979   5.153   8.651  0.6337  0.3169 -0.6727
   49CHL1  H27A 6104   3.013   5.176   8.547  1.8473  2.6055  0.2021
   49CHL1  H27B 6105   2.908   5.234   8.676 -2.7003 -2.2198 -1.4834
   49CHL1  H27C 6106   3.066   5.163   8.719  0.6955  0.3377 -0.7557
   50CHL1    C3 6107   0.322   6.639  10.284  0.3403  0.0703  0.6176
   50CHL1    H3 6108   0.354   6.744  10.270 -0.0843  0.2187  0.7458
   50CHL1    O3 6109   0.365   6.609  10.422 -0.2974 -0.1525  0.3295
   50CHL1   H3' 6110   0.325   6.674  10.480 -0.8160  0.9239 -1.1862
   50CHL1    C4 6111   0.167   6.624  10.270  0.2648 -0.0569 -0.1787
   50CHL1   H4A 6112   0.133   6.520  10.292 -0.7390 -0.0178 -1.4913
   50CHL1   H4B 6113   0.111   6.689  10.341 -1.0260 -0.7166 -0.5741
   50CHL1    C5 6114   0.120   6.638  10.132  0.0122 -0.6234 -0.2706
   50CHL1    C6 6115   0.013   6.715  10.101  0.0142 -0.7011 -0.5690
   50CHL1    H6 6116  -0.043   6.759  10.185 -0.6755 -1.2740 -0.7202
   50CHL1    C7 6117  -0.036   6.733   9.961  0.3825  0.6522 -0.2594
   50CHL1   H7A 6118  -0.147   6.730   9.965  0.3805 -1.2422 -1.3111
   50CHL1   H7B 6119  -0.002   6.836   9.937 -0.0304  0.7137 -0.5929
   50CHL1    C8 6120   0.028   6.635   9.857  0.3252 -0.3828  0.2509
   50CHL1    H8 6121  -0.022   6.538   9.880  1.1628 -1.0444 -0.6839
   50CHL1   C14 6122   0.003   6.687   9.721 -0.9513  0.1359  0.7483
   50CHL1   H14 6123   0.060   6.781   9.707 -2.5840  1.0053 -0.1418
   50CHL1   C15 6124  -0.146   6.729   9.687  0.3753  0.4587 -0.2388
   50CHL1  H15A 6125  -0.203   6.649   9.740 -0.4589  0.6936 -0.7575
   50CHL1  H15B 6126  -0.175   6.826   9.733  0.1555  0.9939 -1.4716
   50CHL1   C16 6127  -0.166   6.716   9.535  0.3238  0.4577 -0.2951
   50CHL1  H16A 6128  -0.251   6.649   9.510  0.3163 -0.6202  2.4738
   50CHL1  H16B 6129  -0.178   6.817   9.490  1.1680 -0.2682 -2.2338
   50CHL1   C17 6130  -0.030   6.653   9.490 -0.7124 -0.2450  0.3089
   50CHL1   H17 6131   0.031   6.743   9.470 -0.6630 -0.4903 -0.6743
   50CHL1   C13 6132   0.035   6.581   9.609  0.1106  0.3119  0.6254
   50CHL1   C18 6133  -0.038   6.451   9.630 -0.9229  0.4784 -0.1323
   50CHL1  H18A 6134  -0.017   6.407   9.730  1.2713  0.5835 -0.5152
   50CHL1  H18B 6135  -0.148   6.467   9.629 -1.1902 -1.0583  1.6034
   50CHL1  H18C 6136  -0.019   6.373   9.553  1.1171 -0.3647  1.1620
   50CHL1   C12 6137   0.192   6.570   9.621  0.0776 -0.4087  0.3704
   50CHL1  H12A 6138   0.228   6.488   9.555 -2.9906  0.5219 -2.6234
   50CHL1  H12B 6139   0.238   6.665   9.587  1.4183 -0.8457  0.9194
   50CHL1   C11 6140   0.240   6.534   9.764 -0.4379 -0.5898 -0.4497
   50CHL1  H11A 6141   0.236   6.423   9.774 -0.5304 -0.5656 -0.2037
   50CHL1  H11B 6142   0.349   6.551   9.775 -0.5024  0.4918 -1.3704
   50CHL1    C9 6143   0.173   6.616   9.883 -0.6469 -0.0704  0.0350
   50CHL1    H9 6144   0.219   6.716   9.871  1.9065 -1.0221  1.5008
   50CHL1   C10 6145   0.203   6.562  10.023 -0.1809 -0.3213  0.8228
   50CHL1   C19 6146   0.152   6.415  10.049 -0.0528  0.2093  0.1105
   50CHL1  H19A 6147   0.209   6.346   9.983 -0.1486  0.1021  0.1396
   50CHL1  H19B 6148   0.163   6.367  10.149  0.6575  0.8343  0.3374
   50CHL1  H19C 6149   0.044   6.392  10.035  0.2602 -1.6433  0.5408
   50CHL1    C1 6150   0.362   6.568  10.046  0.5990  0.5419  0.3757
   50CHL1   H1A 6151   0.409   6.496   9.976  0.3535 -0.8905  1.6548
   50CHL1   H1B 6152   0.399   6.670  10.023  0.7966  0.5219  0.6135
   50CHL1    C2 6153   0.395   6.536  10.188  0.0277  0.3723 -0.7400
   50CHL1   H2A 6154   0.505   6.541  10.204  0.3158 -0.8535 -2.1540
   50CHL1   H2B 6155   0.362   6.435  10.219  1.0751  0.4417  0.6065
   50CHL1   C20 6156  -0.044   6.572   9.358  0.4649 -0.8923 -0.3140
   50CHL1   H20 6157  -0.119   6.492   9.380 -0.3953 -0.6807 -2.3520
   50CHL1   C21 6158   0.094   6.514   9.312  0.4038  0.7516  0.4010
   50CHL1  H21A 6159   0.073   6.450   9.223  2.4985 -0.9836  1.1342
   50CHL1  H21B 6160   0.126   6.427   9.373  0.5889 -0.0182 -0.7843
   50CHL1  H21C 6161   0.167   6.592   9.285  2.1957 -1.0976 -0.1956
   50CHL1   C22 6162  -0.106   6.664   9.254 -0.5344 -0.1398 -0.0197
   50CHL1  H22A 6163  -0.212   6.685   9.278 -0.0708  2.7259 -0.2660
   50CHL1  H22B 6164  -0.058   6.765   9.245  0.9078 -0.9102 -1.3459
   50CHL1   C23 6165  -0.121   6.603   9.108 -0.3211  0.2377 -0.4518
   50CHL1  H23A 6166  -0.018   6.604   9.065 -1.0487 -1.0464 -2.2625
   50CHL1  H23B 6167  -0.147   6.497   9.129 -0.8071  0.4101 -0.1655
   50CHL1   C24 6168  -0.219   6.671   9.017  0.1477  0.4821  0.8743
   50CHL1  H24A 6169  -0.324   6.660   9.052  0.5072 -2.3071  1.2541
   50CHL1  H24B 6170  -0.185   6.776   9.015  1.7075 -0.0008  1.9640
   50CHL1   C25 6171  -0.200   6.619   8.868 -0.2688 -0.6345  0.1514
   50CHL1   H25 6172  -0.095   6.584   8.856 -0.0060  0.1475  0.1815
   50CHL1   C26 6173  -0.293   6.504   8.832  0.1308  0.0760 -0.4484
   50CHL1  H26A 6174  -0.397   6.533   8.859  0.8709  1.6463  0.7589
   50CHL1  H26B 6175  -0.307   6.475   8.726  0.0489 -2.7233  0.2637
   50CHL1  H26C 6176  -0.273   6.410   8.888 -3.7113  0.1637  1.2264
   50CHL1   C27 6177  -0.221   6.737   8.768 -0.1933  0.6076  0.6531
   50CHL1  H27A 6178  -0.202   6.705   8.663  1.4069  1.0511  0.7898
   50CHL1  H27B 6179  -0.328   6.765   8.777 -0.0250  1.4262  0.2108
   50CHL1  H27C 6180  -0.162   6.822   8.810  0.1215 -0.3713  2.2137
   51CHL1    C3 6181   0.913   3.207  10.216 -0.5337  0.1615 -0.4686
   51CHL1    H3 6182   0.954   3.104  10.213 -3.5893 -1.2849  2.8821
   51CHL1    O3 6183   0.889   3.246  10.348  0.0481  0.0918  0.0220
   51CHL1   H3' 6184   0.828   3.317  10.330 -1.2477 -0.7737  0.9392
   51CHL1    C4 6185   1.018   3.301  10.153 -0.2762 -0.2502  0.0159
   51CHL1   H4A 6186   0.988   3.407  10.164  1.3149  0.6233 -3.3457
   51CHL1   H4B 6187   1.111   3.291  10.213  0.8401 -1.2705 -1.8396
   51CHL1    C5 6188   1.046   3.268  10.005  0.0788  0.4637  0.5344
   51CHL1    C6 6189   1.173   3.234   9.964 -0.2955 -0.1679 -0.6538
   51CHL1    H6 6190   1.263   3.245  10.027  0.9368  0.2520 -2.4214
   51CHL1    C7 6191   1.201   3.213   9.818  0.9180  0.6293 -0.1187
   51CHL1   H7A 6192   1.284   3.282   9.793 -1.6614  3.6283 -0.7978
   51CHL1   H7B 6193   1.240   3.112   9.797  0.6740 -0.3326  3.6212
   51CHL1    C8 6194   1.087   3.243   9.722 -0.7821 -0.2502 -1.0053
   51CHL1    H8 6195   1.076   3.352   9.707 -1.8084 -0.3648 -1.1655
   51CHL1   C14 6196   1.114   3.169   9.590  0.0612  0.0957  0.1722
   51CHL1   H14 6197   1.099   3.062   9.615  1.2445  0.3637  2.0851
   51CHL1   C15 6198   1.255   3.187   9.526 -0.4648  0.1554 -0.0262
   51CHL1  H15A 6199   1.293   3.289   9.549  2.1745 -0.9102  0.5283
   51CHL1  H15B 6200   1.325   3.117   9.576 -1.8369 -3.6616 -3.1937
   51CHL1   C16 6201   1.229   3.151   9.383  0.0101  0.0895  0.2484
   51CHL1  H16A 6202   1.269   3.230   9.316  0.4085  1.3919  1.9958
   51CHL1  H16B 6203   1.287   3.060   9.355 -0.1629 -0.2435  0.9448
   51CHL1   C17 6204   1.077   3.139   9.359  0.1144  0.3392 -0.2614
   51CHL1   H17 6205   1.046   3.033   9.370 -2.0402  0.9904  0.2076
   51CHL1   C13 6206   1.004   3.200   9.483 -0.8733  0.3806  0.8620
   51CHL1   C18 6207   0.991   3.349   9.457 -0.3418 -0.2493 -0.1530
   51CHL1  H18A 6208   0.908   3.360   9.384 -1.5845 -2.1194  0.9701
   51CHL1  H18B 6209   0.960   3.402   9.549  0.2767  1.2786 -0.7989
   51CHL1  H18C 6210   1.088   3.389   9.417  0.8051 -1.9681  0.8601
   51CHL1   C12 6211   0.870   3.137   9.533  0.4622 -0.3125 -0.5857
   51CHL1  H12A 6212   0.790   3.157   9.458 -0.3531  0.0068  0.3488
   51CHL1  H12B 6213   0.890   3.028   9.541 -0.8104 -0.5763 -0.8079
   51CHL1   C11 6214   0.830   3.200   9.671  0.5935 -0.6957  0.7021
   51CHL1  H11A 6215   0.785   3.300   9.652  1.0331 -0.6861 -0.2941
   51CHL1  H11B 6216   0.751   3.134   9.712  1.6523 -4.2677 -2.7049
   51CHL1    C9 6217   0.949   3.195   9.777  0.5014 -0.5423  0.1055
   51CHL1    H9 6218   0.972   3.087   9.790  2.4122  0.1850  3.3204
   51CHL1   C10 6219   0.919   3.252   9.920 -0.7539  0.0461  0.2028
   51CHL1   C19 6220   0.861   3.401   9.909 -0.0164 -0.6256 -0.3132
   51CHL1  H19A 6221   0.840   3.438  10.012 -2.0563 -2.1192 -0.1567
   51CHL1  H19B 6222   0.941   3.459   9.858 -0.1274  0.0423  0.2631
   51CHL1  H19C 6223   0.766   3.405   9.852  0.0610 -0.3037 -0.4187
   51CHL1    C1 6224   0.818   3.167   9.986 -0.6099 -0.5825 -0.7107
   51CHL1   H1A 6225   0.731   3.174   9.918  0.6830  4.0227 -2.0288
   51CHL1   H1B 6226   0.855   3.062   9.987  1.5477  0.1304  2.3597
   51CHL1    C2 6227   0.784   3.203  10.130  0.4367  0.5144 -0.8595
   51CHL1   H2A 6228   0.727   3.116  10.169  0.4495  0.8671 -0.0296
   51CHL1   H2B 6229   0.718   3.290  10.150 -0.3517 -0.8922  3.1400
   51CHL1   C20 6230   1.021   3.170   9.212  0.1171 -0.4336  0.1641
   51CHL1   H20 6231   1.022   3.279   9.191 -1.0798 -0.4826 -0.1722
   51CHL1   C21 6232   0.880   3.104   9.204 -0.0431 -0.1288  0.0731
   51CHL1  H21A 6233   0.834   3.096   9.103 -1.9727  0.1599  0.8930
   51CHL1  H21B 6234   0.802   3.168   9.251 -1.2110 -2.2245  1.0348
   51CHL1  H21C 6235   0.878   3.008   9.259  1.5610  0.3559  1.0030
   51CHL1   C22 6236   1.115   3.110   9.102 -0.6391  0.1260 -0.2861
   51CHL1  H22A 6237   1.214   3.159   9.092 -1.5739  1.6658 -2.4181
   51CHL1  H22B 6238   1.134   3.007   9.139 -0.7294  0.9395  2.1429
   51CHL1   C23 6239   1.065   3.123   8.952  0.1029 -0.2806  0.7150
   51CHL1  H23A 6240   1.139   3.074   8.885 -0.3239  0.4186 -0.2658
   51CHL1  H23B 6241   0.964   3.080   8.939  0.7542 -0.5505 -4.0786
   51CHL1   C24 6242   1.054   3.265   8.914  0.2971 -0.4359  0.0965
   51CHL1  H24A 6243   0.970   3.318   8.964  0.8427  0.0907  0.4588
   51CHL1  H24B 6244   1.138   3.327   8.950 -0.5655  0.8760 -0.1200
   51CHL1   C25 6245   1.056   3.297   8.762 -0.1264 -0.6231  0.2256
   51CHL1   H25 6246   1.144   3.241   8.723 -0.3104  1.1335 -2.9210
   51CHL1   C26 6247   0.930   3.258   8.687  0.0378 -0.6502  0.1009
   51CHL1  H26A 6248   0.925   3.291   8.581  0.4569 -2.5810 -0.5390
   51CHL1  H26B 6249   0.917   3.148   8.689  1.3389 -0.8612 -2.1804
   51CHL1  H26C 6250   0.843   3.304   8.738  0.5050 -1.3724  1.5734
   51CHL1   C27 6251   1.071   3.452   8.746 -0.3799  0.4219  0.3439
   51CHL1  H27A 6252   0.980   3.511   8.769 -0.6111  0.7227 -1.2267
   51CHL1  H27B 6253   1.160   3.495   8.796  0.3346 -1.8093  1.0138
   51CHL1  H27C 6254   1.106   3.466   8.641 -1.2907 -0.5885 -0.1073
   52CHL1    C3 6255   4.536   0.863   9.946 -0.5056 -0.2265  0.4857
   52CHL1    H3 6256   4.433   0.889   9.913 -0.2318 -2.2605 -2.1534
   52CHL1    O3 6257   4.544   0.890  10.084  1.0357 -0.1841 -0.0469
   52CHL1   H3' 6258   4.608   0.832  10.126 -0.5776 -0.9073  1.4475
   52CHL1    C4 6259   4.578   0.718   9.917 -1.0138  0.2922 -0.5230
   52CHL1   H4A 6260   4.672   0.683   9.965  0.0568  2.1440 -1.2238
   52CHL1   H4B 6261   4.503   0.658   9.973 -0.4435 -0.1292 -0.2032
   52CHL1    C5 6262   4.586   0.689   9.772 -0.0233 -0.1470  0.1843
   52CHL1    C6 6263   4.506   0.596   9.718 -0.0274 -0.2639  0.0405
   52CHL1    H6 6264   4.445   0.543   9.792 -2.2969  0.3064 -1.3827
   52CHL1    C7 6265   4.505   0.563   9.572  0.5926 -0.0295  0.5190
   52CHL1   H7A 6266   4.506   0.452   9.569 -0.0086 -0.0299  0.1861
   52CHL1   H7B 6267   4.411   0.597   9.523  1.0448  0.6454  0.1254
   52CHL1    C8 6268   4.619   0.616   9.497 -0.5901 -0.0181  0.3633
   52CHL1    H8 6269   4.708   0.558   9.529  1.3160  2.7419  0.2378
   52CHL1   C14 6270   4.604   0.603   9.343 -0.0704  0.7447  0.4066
   52CHL1   H14 6271   4.507   0.650   9.317  0.7141  0.9720 -2.3148
   52CHL1   C15 6272   4.592   0.466   9.278 -0.0209  0.6933 -0.2376
   52CHL1  H15A 6273   4.674   0.401   9.314  0.4632  1.4399 -0.0044
   52CHL1  H15B 6274   4.498   0.413   9.307 -0.8248  2.2766  0.0903
   52CHL1   C16 6275   4.608   0.491   9.130 -0.3059 -0.5285 -0.1376
   52CHL1  H16A 6276   4.692   0.430   9.089  2.4061  3.6562 -1.1037
   52CHL1  H16B 6277   4.512   0.480   9.076 -1.5548 -1.6332  2.2033
   52CHL1   C17 6278   4.653   0.646   9.127 -1.1176  0.4180 -0.2798
   52CHL1   H17 6279   4.558   0.700   9.109 -1.3278  0.7158  1.6280
   52CHL1   C13 6280   4.705   0.682   9.263  0.9408 -0.2223  0.0428
   52CHL1   C18 6281   4.855   0.640   9.294  0.2899  0.1227 -0.2937
   52CHL1  H18A 6282   4.875   0.540   9.251  0.1280  0.4577 -1.1706
   52CHL1  H18B 6283   4.922   0.712   9.242 -0.7857  2.5504  1.5485
   52CHL1  H18C 6284   4.877   0.645   9.402  2.1047 -0.4844 -0.6283
   52CHL1   C12 6285   4.693   0.829   9.292  0.1010  0.1266 -0.0800
   52CHL1  H12A 6286   4.770   0.882   9.232 -0.6836  2.0893  0.6016
   52CHL1  H12B 6287   4.594   0.878   9.277 -0.0845 -0.4322 -0.6676
   52CHL1   C11 6288   4.716   0.845   9.444 -0.6907 -0.1874  0.5644
   52CHL1  H11A 6289   4.826   0.844   9.454 -0.4991 -3.6642 -1.3914
   52CHL1  H11B 6290   4.701   0.954   9.462  1.3563  0.0791  0.7589
   52CHL1    C9 6291   4.628   0.768   9.540  0.0844 -0.0331  0.8274
   52CHL1    H9 6292   4.531   0.819   9.521 -0.1987 -1.2502 -1.1315
   52CHL1   C10 6293   4.674   0.792   9.685  0.0727 -0.2312 -0.1504
   52CHL1   C19 6294   4.824   0.758   9.702  0.2893  0.1832 -0.2121
   52CHL1  H19A 6295   4.883   0.832   9.644 -0.2334 -0.4661 -1.6076
   52CHL1  H19B 6296   4.834   0.777   9.811 -1.5967  2.3496 -0.3877
   52CHL1  H19C 6297   4.848   0.650   9.689  1.4257  0.4472 -0.3109
   52CHL1    C1 6298   4.642   0.934   9.736  0.1815  0.3710  0.1344
   52CHL1   H1A 6299   4.723   0.998   9.697  0.8535 -1.3024 -1.2365
   52CHL1   H1B 6300   4.546   0.975   9.698  0.4588  1.1466  0.2691
   52CHL1    C2 6301   4.642   0.958   9.884 -0.0753 -0.3183  0.7798
   52CHL1   H2A 6302   4.609   1.062   9.904 -0.4360 -0.4065  0.6467
   52CHL1   H2B 6303   4.739   0.930   9.929 -1.1690 -2.2001  2.0848
   52CHL1   C20 6304   4.749   0.693   9.006  0.0020 -0.8639 -0.4911
   52CHL1   H20 6305   4.846   0.732   9.044  0.0864 -1.2371 -0.3203
   52CHL1   C21 6306   4.663   0.802   8.936  0.1844  0.1305  0.9116
   52CHL1  H21A 6307   4.569   0.755   8.901  0.6278  1.4486 -2.2358
   52CHL1  H21B 6308   4.715   0.850   8.851  1.0159  1.8765  2.3659
   52CHL1  H21C 6309   4.639   0.880   9.012  1.8973 -1.8244  3.5451
   52CHL1   C22 6310   4.784   0.582   8.908 -0.2548  0.3400  0.7769
   52CHL1  H22A 6311   4.835   0.498   8.958 -1.0706 -0.8296 -0.3226
   52CHL1  H22B 6312   4.692   0.546   8.857 -0.4929  0.1471  1.3419
   52CHL1   C23 6313   4.887   0.625   8.803 -0.7531 -0.1748  0.3446
   52CHL1  H23A 6314   4.848   0.693   8.724 -2.1181 -0.8047  0.4746
   52CHL1  H23B 6315   4.959   0.693   8.853 -0.2429 -1.4210  1.3127
   52CHL1   C24 6316   4.968   0.508   8.735 -0.0304  0.3249 -0.2941
   52CHL1  H24A 6317   5.033   0.463   8.814 -0.5232  0.3910  0.1511
   52CHL1  H24B 6318   4.894   0.431   8.706  1.8161 -0.8667 -1.9680
   52CHL1   C25 6319   5.044   0.542   8.609 -0.4358  0.7774 -0.2198
   52CHL1   H25 6320   4.977   0.578   8.529  1.2773 -2.4681 -3.2731
   52CHL1   C26 6321   5.164   0.634   8.633 -0.3356 -1.7041  0.1164
   52CHL1  H26A 6322   5.236   0.579   8.698 -0.8416 -1.2099  1.1173
   52CHL1  H26B 6323   5.215   0.664   8.539 -0.7757 -1.2588  0.0127
   52CHL1  H26C 6324   5.135   0.729   8.685  0.2276 -0.2094 -2.2373
   52CHL1   C27 6325   5.100   0.418   8.543 -0.6572  0.6565 -0.1839
   52CHL1  H27A 6326   5.180   0.377   8.607 -0.6174  0.0399 -0.6290
   52CHL1  H27B 6327   5.020   0.346   8.516 -2.1297  2.8280 -1.8908
   52CHL1  H27C 6328   5.143   0.448   8.445 -1.8381  0.7279 -0.6881
   53CHL1    C3 6329   5.591   0.999  10.027  0.1847 -0.1287  0.9803
   53CHL1    H3 6330   5.502   1.064  10.042 -1.7707 -2.2148 -1.2511
   53CHL1    O3 6331   5.652   0.979  10.155  0.1296 -0.5703  0.1204
   53CHL1   H3' 6332   5.737   0.940  10.131  0.1945 -0.2858 -0.1101
   53CHL1    C4 6333   5.572   0.862   9.960  0.4550  0.0298  0.6388
   53CHL1   H4A 6334   5.661   0.796   9.957  0.7190  0.4492 -1.1022
   53CHL1   H4B 6335   5.504   0.798  10.022 -0.2530  0.2157  0.0676
   53CHL1    C5 6336   5.519   0.870   9.821  0.4390 -0.3522 -0.9134
   53CHL1    C6 6337   5.404   0.803   9.789  0.2721 -0.2260 -0.3250
   53CHL1    H6 6338   5.357   0.743   9.867 -1.7147 -0.0498 -1.3596
   53CHL1    C7 6339   5.339   0.804   9.651  0.4499 -0.2968 -0.1215
   53CHL1   H7A 6340   5.307   0.705   9.614  0.5261 -0.9167  1.4294
   53CHL1   H7B 6341   5.259   0.881   9.659  0.0949 -0.7096  0.2909
   53CHL1    C8 6342   5.445   0.849   9.550  0.1411  0.4364 -0.0437
   53CHL1    H8 6343   5.523   0.771   9.534  1.1879  1.0934  1.7871
   53CHL1   C14 6344   5.365   0.885   9.426  0.1768  0.0559 -0.4062
   53CHL1   H14 6345   5.309   0.977   9.453  0.3476 -0.0843  0.4325
   53CHL1   C15 6346   5.260   0.780   9.368 -0.3029  0.2793  0.4119
   53CHL1  H15A 6347   5.297   0.677   9.350  0.6331  0.8000 -0.7499
   53CHL1  H15B 6348   5.176   0.778   9.441 -1.1310  1.1802 -0.5028
   53CHL1   C16 6349   5.236   0.829   9.229 -0.1485  0.6724  0.1384
   53CHL1  H16A 6350   5.266   0.741   9.168  2.0253  0.9337  0.7743
   53CHL1  H16B 6351   5.128   0.852   9.220 -0.4623 -0.6246  0.4126
   53CHL1   C17 6352   5.336   0.941   9.201 -0.7054  0.3494 -0.5183
   53CHL1   H17 6353   5.281   1.031   9.234 -2.5803 -0.7202 -0.6846
   53CHL1   C13 6354   5.453   0.927   9.301  0.5296 -0.1239 -0.9948
   53CHL1   C18 6355   5.544   0.820   9.256 -0.0550  0.1447  0.1033
   53CHL1  H18A 6356   5.624   0.806   9.332 -0.0528 -1.1075 -0.1125
   53CHL1  H18B 6357   5.485   0.726   9.245 -1.5535  1.3140 -2.1537
   53CHL1  H18C 6358   5.595   0.841   9.160 -0.6532  0.1126 -0.2285
   53CHL1   C12 6359   5.524   1.058   9.347 -0.0536  0.4182  0.1514
   53CHL1  H12A 6360   5.600   1.093   9.274  0.1666 -0.2393  0.0626
   53CHL1  H12B 6361   5.453   1.142   9.361 -0.0895  0.3247  0.5409
   53CHL1   C11 6362   5.608   1.039   9.475  0.0547  0.5911  0.5950
   53CHL1  H11A 6363   5.687   0.967   9.444  0.3151  1.3618 -0.5432
   53CHL1  H11B 6364   5.644   1.141   9.498  0.0885  1.0371 -1.3874
   53CHL1    C9 6365   5.529   0.970   9.592  0.5617 -0.5147 -0.2290
   53CHL1    H9 6366   5.447   1.042   9.611  1.5940  0.4388  0.6750
   53CHL1   C10 6367   5.606   0.951   9.726  0.1443 -0.4517 -0.6393
   53CHL1   C19 6368   5.746   0.892   9.701 -0.3358 -0.2526 -0.3348
   53CHL1  H19A 6369   5.803   0.956   9.630  1.1213  1.2151  2.1088
   53CHL1  H19B 6370   5.818   0.873   9.783  1.0668 -1.6340 -1.8572
   53CHL1  H19C 6371   5.740   0.796   9.645 -1.2201 -1.2911  1.5055
   53CHL1    C1 6372   5.627   1.088   9.799 -0.4678  0.7254 -0.2151
   53CHL1   H1A 6373   5.681   1.163   9.737 -0.9600  0.6545 -0.7351
   53CHL1   H1B 6374   5.527   1.132   9.820 -1.8222 -3.2016  2.0848
   53CHL1    C2 6375   5.680   1.078   9.940  0.3939 -0.1390  0.2552
   53CHL1   H2A 6376   5.683   1.183   9.975 -0.3561  0.0640 -0.3072
   53CHL1   H2B 6377   5.785   1.039   9.944  0.5780  0.3028 -0.3232
   53CHL1   C20 6378   5.367   0.964   9.046  0.0596  0.3927 -0.1354
   53CHL1   H20 6379   5.414   0.874   9.001 -2.2531 -0.7739 -0.3420
   53CHL1   C21 6380   5.475   1.072   9.040  0.1536  0.2265  0.2444
   53CHL1  H21A 6381   5.566   1.010   9.055 -0.3039 -0.7416 -0.9220
   53CHL1  H21B 6382   5.472   1.156   9.112  3.3758 -0.5317  1.3247
   53CHL1  H21C 6383   5.478   1.128   8.944 -0.9222  0.1315  0.1450
   53CHL1   C22 6384   5.241   1.007   8.965 -0.1876 -0.3740 -0.4125
   53CHL1  H22A 6385   5.162   0.929   8.971 -1.0285  0.5591  1.1591
   53CHL1  H22B 6386   5.195   1.103   8.999 -0.3029 -0.7478  0.5105
   53CHL1   C23 6387   5.282   1.028   8.812  0.0728  0.1952 -0.8495
   53CHL1  H23A 6388   5.342   1.121   8.799  1.4209 -0.7975 -1.9147
   53CHL1  H23B 6389   5.348   0.945   8.780  0.7337 -0.3080  1.6954
   53CHL1   C24 6390   5.171   1.021   8.705 -0.7796 -0.2914  0.2124
   53CHL1  H24A 6391   5.114   0.928   8.726  0.2001 -0.6459  1.3199
   53CHL1  H24B 6392   5.113   1.114   8.721 -0.6893 -0.6228  2.5451
   53CHL1   C25 6393   5.235   1.019   8.560  0.3372 -0.0302  0.2081
   53CHL1   H25 6394   5.286   0.920   8.553  1.0926  0.4310 -0.8479
   53CHL1   C26 6395   5.121   1.026   8.459 -0.6046  0.0547 -0.2247
   53CHL1  H26A 6396   5.080   0.923   8.449 -0.6373  0.0470 -0.0213
   53CHL1  H26B 6397   5.045   1.106   8.476  0.5145  1.1819 -0.4657
   53CHL1  H26C 6398   5.167   1.035   8.358  1.5282  0.7212  0.7874
   53CHL1   C27 6399   5.338   1.127   8.535  0.0198  0.5735  0.5900
   53CHL1  H27A 6400   5.408   1.131   8.622  0.9026  0.4328 -0.1067
   53CHL1  H27B 6401   5.388   1.110   8.437 -2.0733 -4.4064  0.2710
   53CHL1  H27C 6402   5.289   1.227   8.527 -0.9076  0.1319  0.7500
   54CHL1    C3 6403   5.249   1.825  10.311 -0.5822 -0.2204  0.4432
   54CHL1    H3 6404   5.147   1.870  10.302 -0.8915 -0.8460  0.7376
   54CHL1    O3 6405   5.252   1.766  10.445  0.1961 -0.1060  0.1124
   54CHL1   H3' 6406   5.238   1.838  10.507  1.3041 -0.3697  0.6930
   54CHL1    C4 6407   5.278   1.730  10.201  0.2435  0.6395  0.6070
   54CHL1   H4A 6408   5.370   1.673  10.227  0.3657  0.2910 -0.5539
   54CHL1   H4B 6409   5.196   1.656  10.208 -0.4363  1.4265  1.0825
   54CHL1    C5 6410   5.292   1.786  10.066  0.1914 -0.2833  0.2399
   54CHL1    C6 6411   5.236   1.723   9.958  0.7236 -0.0176  0.3794
   54CHL1    H6 6412   5.182   1.631   9.981  0.7099 -0.1887 -0.3268
   54CHL1    C7 6413   5.251   1.776   9.813 -0.4961 -0.4492 -0.1143
   54CHL1   H7A 6414   5.276   1.685   9.755  0.5597 -0.6836  0.7044
   54CHL1   H7B 6415   5.150   1.814   9.785 -0.5026 -0.1451  0.3288
   54CHL1    C8 6416   5.362   1.891   9.803  0.1185  0.3662 -0.4271
   54CHL1    H8 6417   5.456   1.834   9.793 -0.1596 -0.1023 -0.3885
   54CHL1   C14 6418   5.346   1.970   9.679  0.4157 -0.7609  0.6724
   54CHL1   H14 6419   5.242   2.008   9.689  1.7006  3.0708  0.3405
   54CHL1   C15 6420   5.351   1.900   9.543  1.0255 -0.8129 -0.3457
   54CHL1  H15A 6421   5.425   1.818   9.554  1.9879 -0.0997 -1.4470
   54CHL1  H15B 6422   5.254   1.853   9.514  1.6076 -0.3735 -3.1364
   54CHL1   C16 6423   5.395   2.007   9.439 -0.1056 -0.1283 -0.0610
   54CHL1  H16A 6424   5.488   1.971   9.390 -0.4223  1.5283 -1.9406
   54CHL1  H16B 6425   5.316   2.020   9.362 -1.6298  0.7462  1.5986
   54CHL1   C17 6426   5.403   2.129   9.529  0.6471  0.5732  0.6022
   54CHL1   H17 6427   5.300   2.167   9.542  0.1190 -1.3929  2.3235
   54CHL1   C13 6428   5.440   2.084   9.666  0.2124  0.3027 -0.6363
   54CHL1   C18 6429   5.593   2.036   9.672  0.1959  0.3132  0.1236
   54CHL1  H18A 6430   5.619   1.986   9.767 -2.2026  0.3316  0.8242
   54CHL1  H18B 6431   5.628   1.977   9.585  1.2578  2.5835 -1.0331
   54CHL1  H18C 6432   5.644   2.135   9.664 -1.4899  1.5272  3.5084
   54CHL1   C12 6433   5.419   2.185   9.775  0.0688  0.0947 -0.5185
   54CHL1  H12A 6434   5.483   2.275   9.763  1.6454 -1.0844 -0.9652
   54CHL1  H12B 6435   5.313   2.215   9.790  1.0989  3.5047  0.5128
   54CHL1   C11 6436   5.449   2.116   9.913  0.0082  0.0512 -0.3711
   54CHL1  H11A 6437   5.558   2.100   9.918  0.1068  0.8945  0.4174
   54CHL1  H11B 6438   5.431   2.189   9.995 -2.1849  0.3869 -1.1099
   54CHL1    C9 6439   5.364   1.985   9.927 -0.0799  0.1074  0.0510
   54CHL1    H9 6440   5.258   2.018   9.938  0.2743  1.6591 -1.0156
   54CHL1   C10 6441   5.383   1.911  10.056  0.8288  0.1810  0.3792
   54CHL1   C19 6442   5.528   1.851  10.063 -0.0379 -0.3173 -0.3837
   54CHL1  H19A 6443   5.555   1.834  10.169  0.8025 -0.6685 -0.6495
   54CHL1  H19B 6444   5.551   1.762  10.000 -1.6413  0.4505 -2.1158
   54CHL1  H19C 6445   5.597   1.922  10.013 -1.4837 -0.1802 -2.2394
   54CHL1    C1 6446   5.349   2.016  10.171 -0.0954 -0.0662  0.3176
   54CHL1   H1A 6447   5.436   2.085  10.167  0.8128 -1.1159  1.6072
   54CHL1   H1B 6448   5.252   2.068  10.152 -0.7197 -1.4209 -0.2312
   54CHL1    C2 6449   5.348   1.943  10.304 -0.1827  0.3985  0.7423
   54CHL1   H2A 6450   5.326   2.011  10.390 -0.1066  0.9428  0.3300
   54CHL1   H2B 6451   5.447   1.904  10.333 -0.6249  0.5736  2.5630
   54CHL1   C20 6452   5.484   2.248   9.472  0.9429 -0.5002  0.3712
   54CHL1   H20 6453   5.536   2.291   9.560  3.2711  0.0342 -1.2189
   54CHL1   C21 6454   5.375   2.351   9.426 -0.0055 -0.9339 -0.3400
   54CHL1  H21A 6455   5.304   2.372   9.508 -2.0649  0.7870 -2.4904
   54CHL1  H21B 6456   5.322   2.305   9.340 -1.8642  0.1059  0.2266
   54CHL1  H21C 6457   5.408   2.451   9.391 -2.0083  0.2638  1.1093
   54CHL1   C22 6458   5.591   2.218   9.368  0.2913  0.1887  0.0019
   54CHL1  H22A 6459   5.670   2.147   9.402  2.3705  1.6767 -1.5578
   54CHL1  H22B 6460   5.536   2.169   9.284  0.5705 -1.2025  0.6216
   54CHL1   C23 6461   5.662   2.342   9.303 -0.0497 -0.1659  0.3004
   54CHL1  H23A 6462   5.588   2.421   9.277  2.1377  1.2933 -1.6142
   54CHL1  H23B 6463   5.719   2.396   9.381  1.9692  0.4845 -1.5822
   54CHL1   C24 6464   5.763   2.321   9.190 -0.0262 -0.0093 -0.3465
   54CHL1  H24A 6465   5.807   2.423   9.188  0.8268 -0.2933  2.4030
   54CHL1  H24B 6466   5.837   2.244   9.218 -0.3753  0.0558  0.7895
   54CHL1   C25 6467   5.712   2.292   9.048  0.4627 -0.0761  0.5338
   54CHL1   H25 6468   5.623   2.230   9.071  0.1035 -0.7235 -2.3431
   54CHL1   C26 6469   5.686   2.415   8.970  0.1455 -0.3501  0.7886
   54CHL1  H26A 6470   5.780   2.467   8.941  0.7198 -1.6226  0.3412
   54CHL1  H26B 6471   5.637   2.391   8.873  0.7137 -1.7410  0.8400
   54CHL1  H26C 6472   5.619   2.489   9.020 -1.9131  0.0149 -2.3668
   54CHL1   C27 6473   5.810   2.201   8.968  0.2692  0.2869 -0.5004
   54CHL1  H27A 6474   5.902   2.249   8.929  0.4358  1.9648  1.8167
   54CHL1  H27B 6475   5.845   2.117   9.032 -1.1743 -0.5764 -0.8284
   54CHL1  H27C 6476   5.763   2.152   8.880 -0.7925  1.1189 -0.4073
   55CHL1    C3 6477   6.307   6.563  10.150 -0.3147  0.2224  0.6795
   55CHL1    H3 6478   6.287   6.659  10.097 -2.9394  0.5193  2.1281
   55CHL1    O3 6479   6.308   6.597  10.289  0.1109  0.1637  0.2214
   55CHL1   H3' 6480   6.381   6.658  10.302  2.9054 -3.3164  1.7556
   55CHL1    C4 6481   6.189   6.475  10.106  0.5169 -0.7212  0.3414
   55CHL1   H4A 6482   6.177   6.376  10.156  0.9327 -1.8942 -1.8188
   55CHL1   H4B 6483   6.098   6.532  10.132  0.1072 -0.9079 -0.6640
   55CHL1    C5 6484   6.181   6.454   9.957  0.1013 -0.1116  0.4161
   55CHL1    C6 6485   6.076   6.480   9.882 -0.1010  0.4702  0.5989
   55CHL1    H6 6486   5.991   6.527   9.932  2.3988  0.1531  5.3699
   55CHL1    C7 6487   6.050   6.425   9.740  0.1698 -0.1227 -0.6951
   55CHL1   H7A 6488   5.961   6.360   9.735  1.6896 -2.2692 -0.5903
   55CHL1   H7B 6489   6.037   6.510   9.670 -0.4605 -0.0184 -0.4543
   55CHL1    C8 6490   6.172   6.343   9.683  0.6524 -0.2856 -0.1408
   55CHL1    H8 6491   6.154   6.236   9.705  0.9885 -0.7692 -2.1258
   55CHL1   C14 6492   6.187   6.359   9.539  0.4385 -0.0439  0.3613
   55CHL1   H14 6493   6.223   6.463   9.523  0.8983 -0.1854  0.4459
   55CHL1   C15 6494   6.060   6.347   9.452  0.1749 -0.4532  0.2351
   55CHL1  H15A 6495   5.998   6.265   9.493  2.0638 -1.4250  1.2442
   55CHL1  H15B 6496   6.000   6.439   9.438  0.5369 -0.4402 -1.3477
   55CHL1   C16 6497   6.126   6.313   9.315 -0.3075 -0.4983 -0.1941
   55CHL1  H16A 6498   6.086   6.214   9.283  1.6351 -1.0624 -0.9663
   55CHL1  H16B 6499   6.092   6.392   9.245 -0.0893  0.1247  0.4014
   55CHL1   C17 6500   6.280   6.310   9.322  0.3384  0.5445  0.1390
   55CHL1   H17 6501   6.309   6.416   9.305  0.2999  0.2049 -2.0632
   55CHL1   C13 6502   6.302   6.282   9.468  0.0926 -0.4985  0.2328
   55CHL1   C18 6503   6.287   6.124   9.497 -0.1761 -0.6863  0.2912
   55CHL1  H18A 6504   6.282   6.105   9.606  0.8684  3.8995  1.2328
   55CHL1  H18B 6505   6.194   6.089   9.447 -1.8386  2.1974  1.2107
   55CHL1  H18C 6506   6.374   6.077   9.447  1.0358  1.7162  0.0762
   55CHL1   C12 6507   6.437   6.337   9.531  0.8674 -0.4797  0.8441
   55CHL1  H12A 6508   6.514   6.266   9.495  0.5359 -1.3801  1.9073
   55CHL1  H12B 6509   6.468   6.440   9.504  1.6678 -0.9958 -0.2425
   55CHL1   C11 6510   6.429   6.314   9.682 -0.3744 -0.8082  0.7437
   55CHL1  H11A 6511   6.428   6.206   9.708  0.3036 -1.2497 -0.9783
   55CHL1  H11B 6512   6.521   6.343   9.738 -0.0830 -3.1889  1.5589
   55CHL1    C9 6513   6.310   6.388   9.747  0.1023  0.3757 -0.0348
   55CHL1    H9 6514   6.327   6.495   9.722  0.3680  0.4097  0.2802
   55CHL1   C10 6515   6.309   6.388   9.902  0.6013  0.0768 -0.1381
   55CHL1   C19 6516   6.335   6.237   9.952  0.6697 -0.5238  0.1599
   55CHL1  H19A 6517   6.270   6.161   9.904 -1.2104  0.5709  0.9091
   55CHL1  H19B 6518   6.439   6.211   9.925 -0.1581 -1.0746 -2.6694
   55CHL1  H19C 6519   6.335   6.217  10.062  0.5032 -2.0899 -0.1137
   55CHL1    C1 6520   6.430   6.472   9.948  0.2047  0.4711  0.4010
   55CHL1   H1A 6521   6.516   6.407   9.921 -1.6348 -1.1132 -1.8352
   55CHL1   H1B 6522   6.438   6.568   9.892  1.2128  1.1223  1.6142
   55CHL1    C2 6523   6.443   6.501  10.102 -0.1727  0.4941 -0.6998
   55CHL1   H2A 6524   6.520   6.578  10.125 -2.2600  2.3447  0.3782
   55CHL1   H2B 6525   6.463   6.422  10.178 -0.7998 -0.6693 -1.7258
   55CHL1   C20 6526   6.342   6.227   9.213  0.4093  0.5288 -0.0130
   55CHL1   H20 6527   6.314   6.120   9.225  0.0851  0.2918 -2.5051
   55CHL1   C21 6528   6.499   6.240   9.220  0.7383  0.1134 -0.1466
   55CHL1  H21A 6529   6.538   6.183   9.132 -0.1462 -0.9029  0.1033
   55CHL1  H21B 6530   6.528   6.174   9.304  1.7874 -1.5386 -1.7542
   55CHL1  H21C 6531   6.526   6.347   9.228  1.0781  0.2731 -2.9708
   55CHL1   C22 6532   6.298   6.258   9.068  0.2121 -0.3841 -0.0505
   55CHL1  H22A 6533   6.187   6.265   9.070 -0.0108 -3.0350 -1.0560
   55CHL1  H22B 6534   6.334   6.358   9.033 -0.7982 -0.1908 -0.5644
   55CHL1   C23 6535   6.329   6.150   8.957 -0.4030  0.3836 -0.4654
   55CHL1  H23A 6536   6.432   6.119   8.932 -0.4091  2.1016 -2.7278
   55CHL1  H23B 6537   6.289   6.052   8.990  3.0068 -1.2007 -0.8291
   55CHL1   C24 6538   6.257   6.201   8.819 -0.3942  0.6372  0.5000
   55CHL1  H24A 6539   6.148   6.220   8.829 -1.0555 -2.0324 -1.0606
   55CHL1  H24B 6540   6.302   6.295   8.782  0.3451  0.2251  0.3343
   55CHL1   C25 6541   6.270   6.093   8.708 -1.2217  1.0452 -0.2831
   55CHL1   H25 6542   6.239   5.993   8.745 -0.1734  0.6511 -0.4428
   55CHL1   C26 6543   6.182   6.129   8.594  0.0804  0.3820  0.1506
   55CHL1  H26A 6544   6.082   6.140   8.641  0.3350  0.4065  0.6897
   55CHL1  H26B 6545   6.208   6.221   8.539 -0.2978 -0.5308 -1.5896
   55CHL1  H26C 6546   6.180   6.046   8.520  0.0679  0.4085  0.1214
   55CHL1   C27 6547   6.416   6.069   8.650  0.0376  0.1175 -0.2132
   55CHL1  H27A 6548   6.412   5.973   8.595  3.9836 -0.4899  0.3854
   55CHL1  H27B 6549   6.433   6.151   8.577 -0.7933 -0.0550 -0.5956
   55CHL1  H27C 6550   6.494   6.064   8.730  1.0193  1.3156 -1.0702
   56CHL1    C3 6551   3.790   4.930   9.979  0.3161 -0.3541 -0.0499
   56CHL1    H3 6552   3.770   4.824   9.955  0.7399 -0.3218 -0.5528
   56CHL1    O3 6553   3.817   4.927  10.116  0.3605 -0.5722  0.0191
   56CHL1   H3' 6554   3.883   4.861  10.140  0.3375 -0.1631  1.2341
   56CHL1    C4 6555   3.911   4.977   9.898  0.2381  0.1718  0.2713
   56CHL1   H4A 6556   3.927   5.083   9.930  2.2495 -0.3864  1.1680
   56CHL1   H4B 6557   3.992   4.908   9.930 -0.8705 -2.1000 -1.6669
   56CHL1    C5 6558   3.879   4.989   9.745  0.4437 -0.0676  0.0759
   56CHL1    C6 6559   3.957   4.919   9.656 -0.5197  0.9241  0.2696
   56CHL1    H6 6560   4.040   4.855   9.688 -2.1992 -1.9582 -0.9393
   56CHL1    C7 6561   3.939   4.935   9.509 -0.2727 -0.5574 -0.4663
   56CHL1   H7A 6562   4.038   4.955   9.464 -1.2513 -0.5891 -2.6861
   56CHL1   H7B 6563   3.910   4.834   9.471 -1.6646 -0.5862  0.6382
   56CHL1    C8 6564   3.839   5.050   9.467 -1.0048  0.0560 -0.0405
   56CHL1    H8 6565   3.904   5.139   9.458 -2.2398  1.0538  0.6004
   56CHL1   C14 6566   3.778   5.015   9.327 -0.3030  0.3349 -0.1361
   56CHL1   H14 6567   3.714   4.926   9.342  1.9509 -1.0141  1.8742
   56CHL1   C15 6568   3.870   4.976   9.211  0.1009 -0.3061  0.9863
   56CHL1  H15A 6569   3.957   5.045   9.200 -1.3148  1.1445 -1.3068
   56CHL1  H15B 6570   3.903   4.871   9.229  0.0752 -0.2600  1.3114
   56CHL1   C16 6571   3.779   4.979   9.082 -0.3248 -0.1600 -0.4345
   56CHL1  H16A 6572   3.839   5.023   8.999 -2.9866  2.2002 -1.1936
   56CHL1  H16B 6573   3.738   4.883   9.044 -0.1650  0.1803 -1.4933
   56CHL1   C17 6574   3.655   5.070   9.125  0.3801 -0.3564 -0.2626
   56CHL1   H17 6575   3.574   5.000   9.154 -0.1077  1.0718  2.0006
   56CHL1   C13 6576   3.690   5.124   9.269  0.6232  0.3727 -0.5197
   56CHL1   C18 6577   3.755   5.258   9.257  0.3880 -0.3508  0.0284
   56CHL1  H18A 6578   3.837   5.255   9.181 -0.7840 -0.6958 -1.2404
   56CHL1  H18B 6579   3.684   5.326   9.206 -0.0714  0.5558  1.8241
   56CHL1  H18C 6580   3.775   5.311   9.353 -1.4907  0.0638  0.2092
   56CHL1   C12 6581   3.564   5.126   9.364 -0.0430  1.0307 -1.1589
   56CHL1  H12A 6582   3.486   5.202   9.344 -1.3197  0.2597  0.7865
   56CHL1  H12B 6583   3.521   5.024   9.375 -1.3489  1.6349 -0.5752
   56CHL1   C11 6584   3.610   5.163   9.508 -0.5245 -0.0929  0.2357
   56CHL1  H11A 6585   3.632   5.272   9.503 -0.5860 -0.1868 -2.7426
   56CHL1  H11B 6586   3.517   5.164   9.569 -1.9703 -0.0170 -1.9174
   56CHL1    C9 6587   3.715   5.063   9.567  0.0170  0.0489  0.3311
   56CHL1    H9 6588   3.669   4.962   9.559  0.9509 -0.4539  1.1820
   56CHL1   C10 6589   3.752   5.070   9.710  0.1665 -0.2041  0.0743
   56CHL1   C19 6590   3.781   5.218   9.747 -0.1721  0.0890  0.5494
   56CHL1  H19A 6591   3.788   5.233   9.857  1.1131 -0.9570  0.6222
   56CHL1  H19B 6592   3.882   5.237   9.705 -0.9826  1.3556 -0.8745
   56CHL1  H19C 6593   3.699   5.278   9.703  2.0914  2.1859 -0.9213
   56CHL1    C1 6594   3.638   5.009   9.794  0.6474  0.1752 -0.1436
   56CHL1   H1A 6595   3.541   5.055   9.768  0.2960 -0.4557  0.0476
   56CHL1   H1B 6596   3.631   4.903   9.762 -0.6172  0.3329 -0.4054
   56CHL1    C2 6597   3.664   5.016   9.948 -0.1316 -0.3749 -0.2817
   56CHL1   H2A 6598   3.575   4.982  10.005 -1.1182 -0.3290 -1.7409
   56CHL1   H2B 6599   3.673   5.123   9.975 -2.7122 -0.5738  1.5464
   56CHL1   C20 6600   3.600   5.168   9.017 -0.4208  0.3604  1.1432
   56CHL1   H20 6601   3.679   5.246   9.012 -0.0838 -0.0655 -0.4186
   56CHL1   C21 6602   3.471   5.237   9.058 -0.0297  0.1701  0.0605
   56CHL1  H21A 6603   3.481   5.308   9.142 -0.5834 -0.0198  0.2905
   56CHL1  H21B 6604   3.391   5.164   9.082  1.0631 -1.0161  0.1456
   56CHL1  H21C 6605   3.439   5.302   8.974 -2.0932 -1.5474 -0.5401
   56CHL1   C22 6606   3.578   5.101   8.883  0.2963 -0.7705  0.3187
   56CHL1  H22A 6607   3.666   5.039   8.857  1.1175 -0.2870  1.9042
   56CHL1  H22B 6608   3.489   5.035   8.876 -1.3795  1.5464 -1.0078
   56CHL1   C23 6609   3.560   5.198   8.768  0.2158  0.3767 -0.6827
   56CHL1  H23A 6610   3.456   5.232   8.785  0.1213 -0.8118  1.2282
   56CHL1  H23B 6611   3.635   5.276   8.791  0.7258 -1.0450  2.7196
   56CHL1   C24 6612   3.561   5.141   8.621  0.1102  0.3072  0.2472
   56CHL1  H24A 6613   3.653   5.085   8.592 -0.7784 -0.4845 -1.0798
   56CHL1  H24B 6614   3.469   5.080   8.607 -0.6199  1.0632  1.6166
   56CHL1   C25 6615   3.549   5.251   8.509 -0.3526 -0.2526 -0.3475
   56CHL1   H25 6616   3.612   5.338   8.537 -1.7379  0.1510  1.6439
   56CHL1   C26 6617   3.602   5.198   8.373 -0.2155 -0.4327  0.1232
   56CHL1  H26A 6618   3.565   5.096   8.350  1.5914 -0.9895 -0.4453
   56CHL1  H26B 6619   3.569   5.265   8.291 -0.1136 -1.1490 -0.5075
   56CHL1  H26C 6620   3.712   5.184   8.383 -0.1867  0.8104  1.8885
   56CHL1   C27 6621   3.402   5.302   8.502 -0.1483  0.3085  0.4375
   56CHL1  H27A 6622   3.377   5.336   8.605 -0.7175 -0.6288  0.6043
   56CHL1  H27B 6623   3.378   5.391   8.441 -0.2250 -0.3269 -0.4567
   56CHL1  H27C 6624   3.347   5.213   8.465  0.5668  0.5664 -1.2902
   57CHL1    C3 6625   6.545   0.398  10.297 -0.8350 -0.2970 -0.3491
   57CHL1    H3 6626   6.570   0.505  10.318  1.7083 -1.4624  3.0342
   57CHL1    O3 6627   6.529   0.332  10.424  0.0446 -0.3021 -0.3798
   57CHL1   H3' 6628   6.610   0.353  10.471  0.5686 -1.6635 -0.6669
   57CHL1    C4 6629   6.416   0.383  10.208 -0.0270 -0.3188  0.2881
   57CHL1   H4A 6630   6.395   0.274  10.203 -2.1271  0.0097  1.3201
   57CHL1   H4B 6631   6.337   0.434  10.268  0.7699  0.3703  0.7715
   57CHL1    C5 6632   6.421   0.422  10.061 -0.3138 -0.1792  0.6702
   57CHL1    C6 6633   6.329   0.496  10.003 -0.3448 -0.1985 -0.4639
   57CHL1    H6 6634   6.238   0.526  10.057 -0.3408 -0.8036 -0.1188
   57CHL1    C7 6635   6.331   0.531   9.859 -0.3649  0.3282 -0.0424
   57CHL1   H7A 6636   6.231   0.516   9.814  0.5955 -2.4990 -1.2978
   57CHL1   H7B 6637   6.345   0.641   9.848 -2.5498  0.4707 -1.6361
   57CHL1    C8 6638   6.432   0.448   9.771 -0.3211  0.6399  0.1996
   57CHL1    H8 6639   6.379   0.352   9.757 -0.5739  1.3287 -4.3121
   57CHL1   C14 6640   6.451   0.517   9.635  0.3915  0.2128  0.1736
   57CHL1   H14 6641   6.522   0.601   9.649  1.8051 -0.6458 -1.6679
   57CHL1   C15 6642   6.334   0.581   9.551  0.0813  0.0236  0.1885
   57CHL1  H15A 6643   6.240   0.528   9.578  1.4200 -1.7692  1.4771
   57CHL1  H15B 6644   6.325   0.688   9.579  1.2490  1.0921 -3.3454
   57CHL1   C16 6645   6.375   0.557   9.401  1.1603  0.4192 -0.5120
   57CHL1  H16A 6646   6.311   0.476   9.362  2.0100 -0.3587 -0.3187
   57CHL1  H16B 6647   6.352   0.647   9.340 -0.9876 -0.7681 -1.4953
   57CHL1   C17 6648   6.521   0.514   9.415 -0.4556 -0.7004 -0.1984
   57CHL1   H17 6649   6.581   0.605   9.440  1.1327 -2.1344  1.3438
   57CHL1   C13 6650   6.530   0.427   9.544 -0.9000  0.1860  0.1589
   57CHL1   C18 6651   6.463   0.286   9.512  0.1374 -0.1101  0.7801
   57CHL1  H18A 6652   6.517   0.237   9.429 -0.9728  0.8880 -0.5694
   57CHL1  H18B 6653   6.480   0.219   9.598  2.0777  1.4560  1.6391
   57CHL1  H18C 6654   6.355   0.297   9.485  0.0845 -2.5551 -0.1323
   57CHL1   C12 6655   6.668   0.390   9.604  0.1909 -0.2106 -0.3380
   57CHL1  H12A 6656   6.701   0.303   9.544  0.9960 -1.1360  1.4153
   57CHL1  H12B 6657   6.737   0.477   9.590 -0.0230  0.0877  0.4415
   57CHL1   C11 6658   6.671   0.358   9.753 -0.5648 -0.1007 -0.2114
   57CHL1  H11A 6659   6.648   0.250   9.760 -0.9373  0.0310  0.6522
   57CHL1  H11B 6660   6.777   0.362   9.786 -0.9345 -0.9043  1.0664
   57CHL1    C9 6661   6.565   0.431   9.841 -0.1956 -0.1243 -0.5113
   57CHL1    H9 6662   6.608   0.533   9.853  0.0373 -0.1607 -1.0423
   57CHL1   C10 6663   6.542   0.364   9.982  0.4903 -0.5908  0.3052
   57CHL1   C19 6664   6.529   0.213   9.966  0.1865  1.3951 -0.2279
   57CHL1  H19A 6665   6.628   0.165   9.957 -1.3166 -1.7599 -0.7089
   57CHL1  H19B 6666   6.469   0.165  10.047 -0.8392 -0.0369 -1.7926
   57CHL1  H19C 6667   6.462   0.196   9.879 -0.5972  2.2811  0.1957
   57CHL1    C1 6668   6.668   0.391  10.073  0.4590 -0.5468 -0.2680
   57CHL1   H1A 6669   6.760   0.348  10.027  0.8443 -0.5705  0.5303
   57CHL1   H1B 6670   6.674   0.502  10.068 -1.4332 -0.4526 -1.0362
   57CHL1    C2 6671   6.664   0.334  10.216 -0.1576 -0.8529 -0.0476
   57CHL1   H2A 6672   6.759   0.356  10.269 -0.0104 -0.4132 -0.4836
   57CHL1   H2B 6673   6.646   0.225  10.226  0.5988 -0.9920 -0.1782
   57CHL1   C20 6674   6.584   0.461   9.284 -0.0946  1.1136 -0.2766
   57CHL1   H20 6675   6.660   0.383   9.308 -0.4807  0.1312 -2.1326
   57CHL1   C21 6676   6.660   0.579   9.219  1.0549 -0.1355 -0.0377
   57CHL1  H21A 6677   6.738   0.614   9.290  0.5539 -0.0544  0.4807
   57CHL1  H21B 6678   6.587   0.663   9.221  1.3071  0.0521  2.1789
   57CHL1  H21C 6679   6.695   0.561   9.115 -1.6273  0.4738 -1.0870
   57CHL1   C22 6680   6.482   0.393   9.188  0.1944 -0.0753 -0.4257
   57CHL1  H22A 6681   6.409   0.328   9.240  2.1319  0.0866  2.6136
   57CHL1  H22B 6682   6.432   0.481   9.140  2.1062  0.5827 -1.2835
   57CHL1   C23 6683   6.561   0.301   9.093  0.9473 -0.1339  0.2451
   57CHL1  H23A 6684   6.637   0.366   9.046  0.8615 -0.1525  0.0775
   57CHL1  H23B 6685   6.613   0.224   9.154  0.7224  0.2161  0.8740
   57CHL1   C24 6686   6.462   0.233   8.991 -0.4657 -0.2524 -0.3104
   57CHL1  H24A 6687   6.521   0.159   8.932 -1.6116  0.3508 -2.2397
   57CHL1  H24B 6688   6.388   0.174   9.048  0.4583 -0.7625  0.3732
   57CHL1   C25 6689   6.386   0.319   8.887 -0.0400 -0.5647 -0.1067
   57CHL1   H25 6690   6.301   0.372   8.936  1.0067  0.9174  0.1505
   57CHL1   C26 6691   6.466   0.424   8.805  0.3256 -0.1330  0.5269
   57CHL1  H26A 6692   6.518   0.356   8.734  0.3032 -0.6411  0.9911
   57CHL1  H26B 6693   6.391   0.485   8.752  1.9609  1.2035 -0.3072
   57CHL1  H26C 6694   6.524   0.489   8.875 -1.7251 -0.7288  2.8239
   57CHL1   C27 6695   6.323   0.228   8.779  0.7919  0.3401 -0.2135
   57CHL1  H27A 6696   6.271   0.284   8.699  0.5260 -1.2043 -1.1329
   57CHL1  H27B 6697   6.392   0.152   8.737  0.0222  0.1319 -1.1094
   57CHL1  H27C 6698   6.242   0.164   8.817 -0.2829  1.0972 -1.1923
   58CHL1    C3 6699   2.115   6.090  10.049 -0.1846 -0.9732 -0.4239
   58CHL1    H3 6700   2.026   6.157  10.048  0.4834 -0.0694 -0.4861
   58CHL1    O3 6701   2.140   6.040  10.179  0.8177  0.4219 -0.1809
   58CHL1   H3' 6702   2.152   6.118  10.233 -0.4739 -0.8937  2.1063
   58CHL1    C4 6703   2.096   5.973   9.951  0.1169  0.8788  0.6344
   58CHL1   H4A 6704   2.179   5.899   9.953 -0.8894 -0.2673  0.7743
   58CHL1   H4B 6705   2.003   5.922   9.986 -0.2128  1.0852  0.0651
   58CHL1    C5 6706   2.093   6.028   9.807 -1.0890 -0.2109 -0.0019
   58CHL1    C6 6707   1.985   6.012   9.729  0.0073  0.0060  0.1313
   58CHL1    H6 6708   1.900   5.960   9.777 -0.9651  0.7664 -0.7238
   58CHL1    C7 6709   1.978   6.055   9.583  0.3240  0.1914  0.6156
   58CHL1   H7A 6710   1.929   5.980   9.517  1.8224 -2.7548  2.7179
   58CHL1   H7B 6711   1.919   6.149   9.582  0.6137  0.3661 -0.3328
   58CHL1    C8 6712   2.123   6.094   9.524 -0.3314  0.1321  0.1138
   58CHL1    H8 6713   2.179   5.999   9.513  1.9458  1.4867 -0.1701
   58CHL1   C14 6714   2.102   6.178   9.399 -0.3149  0.6330 -0.0352
   58CHL1   H14 6715   2.043   6.267   9.428 -1.7555  0.3557 -2.0293
   58CHL1   C15 6716   2.025   6.104   9.286 -0.4766 -0.2288  0.1723
   58CHL1  H15A 6717   2.069   6.002   9.281 -2.1554 -0.9462 -0.4957
   58CHL1  H15B 6718   1.916   6.096   9.306 -0.5897  0.8553 -0.0038
   58CHL1   C16 6719   2.065   6.199   9.161 -0.3727 -0.5358 -0.0014
   58CHL1  H16A 6720   2.109   6.138   9.080 -0.6199 -0.8115  0.0688
   58CHL1  H16B 6721   1.964   6.239   9.137 -0.4240 -0.5221  0.2408
   58CHL1   C17 6722   2.170   6.302   9.208  0.0573  0.6859 -0.2806
   58CHL1   H17 6723   2.108   6.390   9.234 -1.0631 -0.2522  0.2996
   58CHL1   C13 6724   2.224   6.236   9.338  0.1134  0.8641  0.4278
   58CHL1   C18 6725   2.321   6.120   9.292  0.2678  0.3153 -0.1984
   58CHL1  H18A 6726   2.328   6.034   9.362 -0.7919  1.5634  1.4725
   58CHL1  H18B 6727   2.296   6.080   9.191  2.6125 -0.5118 -0.4675
   58CHL1  H18C 6728   2.425   6.159   9.287  1.2890 -2.3391 -0.3885
   58CHL1   C12 6729   2.281   6.332   9.444  0.3350 -0.4424  0.1620
   58CHL1  H12A 6730   2.358   6.408   9.420 -0.0585 -0.3694 -0.8854
   58CHL1  H12B 6731   2.195   6.399   9.471  1.4052  1.3399 -0.7501
   58CHL1   C11 6732   2.318   6.258   9.572  0.3134  0.2791  0.4166
   58CHL1  H11A 6733   2.403   6.191   9.547  0.4358 -0.0354  1.6489
   58CHL1  H11B 6734   2.353   6.336   9.644 -0.9904  0.9506  0.3396
   58CHL1    C9 6735   2.189   6.186   9.629 -0.3651 -1.2129  0.3266
   58CHL1    H9 6736   2.116   6.269   9.642  1.9599  0.4471  3.1591
   58CHL1   C10 6737   2.216   6.115   9.762 -0.4173 -0.1724 -0.0201
   58CHL1   C19 6738   2.347   6.029   9.746 -0.2434  0.0063  0.1850
   58CHL1  H19A 6739   2.441   6.085   9.767 -0.6435  0.6960  0.1070
   58CHL1  H19B 6740   2.350   5.936   9.808  1.5218  0.7835  1.3194
   58CHL1  H19C 6741   2.367   6.002   9.641  1.7047  2.3122 -0.0822
   58CHL1    C1 6742   2.233   6.224   9.865 -0.3401  0.0566  0.4213
   58CHL1   H1A 6743   2.327   6.280   9.843 -0.5628 -0.5179 -2.1476
   58CHL1   H1B 6744   2.151   6.298   9.850  0.1527  1.1928  3.0020
   58CHL1    C2 6745   2.244   6.169  10.007  0.2684  0.0370  0.5647
   58CHL1   H2A 6746   2.255   6.249  10.084  1.6340 -1.0964  1.5838
   58CHL1   H2B 6747   2.337   6.108  10.016  0.6926  0.6404  0.2503
   58CHL1   C20 6748   2.265   6.344   9.093  0.0673 -0.4980  0.7423
   58CHL1   H20 6749   2.324   6.261   9.049  1.7186  0.8156  0.4429
   58CHL1   C21 6750   2.364   6.446   9.152  0.2530  0.3456  0.1406
   58CHL1  H21A 6751   2.335   6.526   9.224  1.2243  0.5006  0.3634
   58CHL1  H21B 6752   2.432   6.485   9.073  2.1142  0.1841  1.6110
   58CHL1  H21C 6753   2.433   6.385   9.214 -0.7588 -0.2167  0.7217
   58CHL1   C22 6754   2.184   6.398   8.965  0.3734  0.2975  0.2997
   58CHL1  H22A 6755   2.111   6.321   8.930  0.2353 -0.1985  1.6621
   58CHL1  H22B 6756   2.120   6.486   8.988  1.1343  1.2830 -1.2625
   58CHL1   C23 6757   2.278   6.448   8.851  0.7159  0.5435  0.2958
   58CHL1  H23A 6758   2.344   6.528   8.892 -0.3213  1.8678 -0.5431
   58CHL1  H23B 6759   2.347   6.364   8.832 -0.5149 -0.4034 -0.0917
   58CHL1   C24 6760   2.201   6.488   8.728  0.8125 -0.0552  0.5755
   58CHL1  H24A 6761   2.168   6.392   8.683 -1.9557  0.6256  1.0415
   58CHL1  H24B 6762   2.105   6.541   8.748  2.3775  3.2157 -0.3293
   58CHL1   C25 6763   2.285   6.574   8.627  0.5307 -0.4791  0.1784
   58CHL1   H25 6764   2.373   6.515   8.594  0.3896  0.3805 -1.7833
   58CHL1   C26 6765   2.210   6.589   8.497  0.5059  0.0693 -0.2392
   58CHL1  H26A 6766   2.109   6.632   8.514  0.1478 -0.2106 -1.5931
   58CHL1  H26B 6767   2.259   6.656   8.422  1.2734 -1.4223 -1.0936
   58CHL1  H26C 6768   2.192   6.491   8.448 -0.4651  1.2611 -2.3607
   58CHL1   C27 6769   2.329   6.704   8.686 -0.4379  0.3755 -0.3575
   58CHL1  H27A 6770   2.240   6.758   8.725  0.3081  0.9115  0.6146
   58CHL1  H27B 6771   2.404   6.695   8.767  0.5102  2.5999 -0.9486
   58CHL1  H27C 6772   2.380   6.763   8.607 -1.2917 -0.0396 -1.2250
   59CHL1    C3 6773   1.584   5.153  10.210  0.0101 -0.2682  0.1518
   59CHL1    H3 6774   1.692   5.137  10.190  0.7481  2.3393  1.7885
   59CHL1    O3 6775   1.565   5.162  10.355 -0.1869 -0.3875  0.1598
   59CHL1   H3' 6776   1.476   5.194  10.369 -0.7980 -0.8537 -2.4214
   59CHL1    C4 6777   1.540   5.287  10.144 -0.7336  0.5994  0.5633
   59CHL1   H4A 6778   1.431   5.305  10.154 -1.0693 -1.0438  0.0556
   59CHL1   H4B 6779   1.588   5.379  10.182 -0.5157  0.3958  0.7779
   59CHL1    C5 6780   1.565   5.272   9.993 -0.0288  0.0773 -0.3946
   59CHL1    C6 6781   1.642   5.354   9.923  0.0246 -0.4959 -0.3562
   59CHL1    H6 6782   1.693   5.438   9.972 -2.7250  0.9947  0.0978
   59CHL1    C7 6783   1.672   5.353   9.775 -0.1148  0.1181  0.0025
   59CHL1   H7A 6784   1.661   5.450   9.723 -0.9477 -0.5198 -1.0424
   59CHL1   H7B 6785   1.776   5.317   9.760 -0.5060 -0.3390 -1.7746
   59CHL1    C8 6786   1.568   5.261   9.701  0.4454  0.8305 -0.1835
   59CHL1    H8 6787   1.474   5.320   9.704  1.6938  2.8248  1.0000
   59CHL1   C14 6788   1.611   5.231   9.560 -0.1061  0.2775 -0.1164
   59CHL1   H14 6789   1.702   5.167   9.571 -0.3120  0.1105  0.6659
   59CHL1   C15 6790   1.641   5.352   9.470 -1.0274 -0.4333  0.0567
   59CHL1  H15A 6791   1.560   5.427   9.480 -1.2967 -0.7283  0.0916
   59CHL1  H15B 6792   1.735   5.399   9.506 -0.0475  0.5556 -3.6085
   59CHL1   C16 6793   1.651   5.293   9.328  0.0446 -0.5793 -0.5124
   59CHL1  H16A 6794   1.608   5.373   9.264  0.4579  0.4847  0.5098
   59CHL1  H16B 6795   1.759   5.287   9.303 -0.1483  0.1965 -1.5872
   59CHL1   C17 6796   1.581   5.160   9.335 -0.2830  0.0978  0.1748
   59CHL1   H17 6797   1.654   5.076   9.330 -0.6286 -0.2424  0.7672
   59CHL1   C13 6798   1.521   5.145   9.478  0.6723 -0.3226  0.1951
   59CHL1   C18 6799   1.375   5.211   9.477  0.2504 -0.0540  0.0629
   59CHL1  H18A 6800   1.301   5.144   9.429 -2.5675  1.3143  2.2892
   59CHL1  H18B 6801   1.332   5.215   9.580 -0.5440 -1.1751 -0.2218
   59CHL1  H18C 6802   1.377   5.307   9.422  0.1947  0.3944  0.8303
   59CHL1   C12 6803   1.511   5.007   9.552  0.4948 -0.3141 -0.5918
   59CHL1  H12A 6804   1.447   4.934   9.497 -0.6757 -0.3566  0.8001
   59CHL1  H12B 6805   1.611   4.959   9.552  0.1080 -1.1631  1.7055
   59CHL1   C11 6806   1.465   5.027   9.698 -0.0144 -0.1467  0.4788
   59CHL1  H11A 6807   1.359   5.060   9.698 -0.5869 -1.8621 -1.0480
   59CHL1  H11B 6808   1.464   4.926   9.746 -3.6605  0.2698  1.4151
   59CHL1    C9 6809   1.543   5.131   9.779  0.2828 -0.6757 -0.0355
   59CHL1    H9 6810   1.645   5.087   9.778  0.2591 -0.7316 -0.9156
   59CHL1   C10 6811   1.503   5.147   9.929  0.8493  0.4683  0.2873
   59CHL1   C19 6812   1.348   5.161   9.937  0.2853 -0.5766 -0.5504
   59CHL1  H19A 6813   1.308   5.245   9.877 -0.6109 -0.8919 -0.3990
   59CHL1  H19B 6814   1.295   5.068   9.904  0.2660 -1.0699  0.8489
   59CHL1  H19C 6815   1.306   5.179  10.038 -0.8572 -0.6088 -1.0110
   59CHL1    C1 6816   1.539   5.016  10.000 -0.2821 -0.4003  0.0556
   59CHL1   H1A 6817   1.476   4.934   9.960  0.1126 -0.5185 -0.3374
   59CHL1   H1B 6818   1.642   4.983   9.975  0.4227  1.5532  0.2686
   59CHL1    C2 6819   1.512   5.029  10.153 -0.1722 -0.1325 -0.7103
   59CHL1   H2A 6820   1.552   4.940  10.205  3.5228  0.2510 -2.7365
   59CHL1   H2B 6821   1.403   5.026  10.176  0.3859 -1.8877  1.9262
   59CHL1   C20 6822   1.493   5.135   9.204  0.0083  0.1515 -0.6328
   59CHL1   H20 6823   1.411   5.209   9.196  0.1802  0.6200  1.5085
   59CHL1   C21 6824   1.432   4.992   9.209  0.1781 -0.5089 -0.0623
   59CHL1  H21A 6825   1.381   4.954   9.300 -0.4478 -1.5195 -0.8251
   59CHL1  H21B 6826   1.515   4.922   9.185 -1.3326 -2.0657 -0.8505
   59CHL1  H21C 6827   1.352   4.975   9.134  0.4538 -0.5001 -0.3572
   59CHL1   C22 6828   1.591   5.144   9.082 -0.9523  0.5527  0.1541
   59CHL1  H22A 6829   1.665   5.225   9.098 -0.2015  0.0917 -0.8816
   59CHL1  H22B 6830   1.655   5.052   9.081 -2.9830 -0.9112 -1.7542
   59CHL1   C23 6831   1.519   5.155   8.947  0.1714 -0.0003 -0.8585
   59CHL1  H23A 6832   1.453   5.066   8.942 -1.8789  1.2978  1.9917
   59CHL1  H23B 6833   1.448   5.240   8.952 -0.8589 -1.0010  2.3386
   59CHL1   C24 6834   1.615   5.182   8.831  0.4838 -0.7814 -0.3611
   59CHL1  H24A 6835   1.683   5.267   8.855 -1.5042  0.5543  0.7476
   59CHL1  H24B 6836   1.683   5.096   8.812  0.6497 -0.7185 -0.0587
   59CHL1   C25 6837   1.537   5.219   8.703  0.3317 -0.2775  0.1646
   59CHL1   H25 6838   1.459   5.143   8.684  0.7001 -0.6113 -0.0370
   59CHL1   C26 6839   1.473   5.358   8.696 -0.1366  0.7036 -0.0907
   59CHL1  H26A 6840   1.552   5.436   8.695 -0.0689  0.6352 -1.1461
   59CHL1  H26B 6841   1.414   5.360   8.602 -0.1234 -1.1811 -0.1646
   59CHL1  H26C 6842   1.400   5.380   8.777  0.1117  0.7942  0.1110
   59CHL1   C27 6843   1.650   5.197   8.592  0.8555  0.2680  0.1261
   59CHL1  H27A 6844   1.742   5.255   8.614  0.5806  0.1606  1.6511
   59CHL1  H27B 6845   1.665   5.087   8.589  0.7115  0.1199  3.1378
   59CHL1  H27C 6846   1.622   5.221   8.487  0.5582 -1.4485 -0.2027
   60CHL1    C3 6847   1.444   4.044  10.356  0.3527  0.5741  0.2841
   60CHL1    H3 6848   1.444   3.934  10.342  1.2038  0.8836 -2.2942
   60CHL1    O3 6849   1.475   4.081  10.485 -0.1662 -0.2293 -0.0861
   60CHL1   H3' 6850   1.394   4.099  10.534 -1.1295 -0.2362 -1.6589
   60CHL1    C4 6851   1.538   4.116  10.267  0.5603  0.2681 -0.3852
   60CHL1   H4A 6852   1.512   4.223  10.281  1.0679  0.3014  0.3258
   60CHL1   H4B 6853   1.642   4.092  10.298  1.0974  2.5193 -0.3336
   60CHL1    C5 6854   1.515   4.074  10.126 -0.5969 -0.2468 -0.2239
   60CHL1    C6 6855   1.599   4.003  10.051 -0.5185  0.5167  0.1119
   60CHL1    H6 6856   1.701   3.981  10.088 -1.1803 -1.5918  0.7606
   60CHL1    C7 6857   1.578   3.962   9.907  0.4207  0.2567 -0.3256
   60CHL1   H7A 6858   1.677   3.965   9.856  0.9152  0.2154  0.6173
   60CHL1   H7B 6859   1.540   3.858   9.908  1.1319 -0.0049  0.6376
   60CHL1    C8 6860   1.467   4.048   9.840 -0.5414 -0.5359 -0.2183
   60CHL1    H8 6861   1.508   4.148   9.817 -0.4993  0.0542  2.3533
   60CHL1   C14 6862   1.428   3.990   9.713  1.3420 -0.6219 -0.0288
   60CHL1   H14 6863   1.395   3.885   9.730  3.8774 -1.4533 -0.0494
   60CHL1   C15 6864   1.547   3.973   9.608 -0.3333 -0.3483  0.5006
   60CHL1  H15A 6865   1.595   4.073   9.610  1.1111 -0.8981 -2.6734
   60CHL1  H15B 6866   1.624   3.898   9.636 -1.2022 -0.9004  1.4524
   60CHL1   C16 6867   1.479   3.937   9.482  0.3464  0.2031  0.0763
   60CHL1  H16A 6868   1.536   3.987   9.401 -2.8581  1.0462 -1.7324
   60CHL1  H16B 6869   1.476   3.828   9.464  1.8690  0.0244  0.8640
   60CHL1   C17 6870   1.325   3.990   9.500  0.2972  0.0741 -1.0031
   60CHL1   H17 6871   1.266   3.899   9.522  0.0235  0.4470 -0.1913
   60CHL1   C13 6872   1.327   4.071   9.630  0.2168 -0.1499  0.6725
   60CHL1   C18 6873   1.373   4.217   9.596 -0.0523 -0.3127 -0.0222
   60CHL1  H18A 6874   1.463   4.214   9.530  0.2371  1.3508  0.2974
   60CHL1  H18B 6875   1.293   4.275   9.547 -1.1631 -1.0343  0.8986
   60CHL1  H18C 6876   1.404   4.284   9.679 -1.1851  1.6034 -1.1168
   60CHL1   C12 6877   1.200   4.068   9.708 -0.0762 -0.7336 -0.6191
   60CHL1  H12A 6878   1.118   4.129   9.663  1.0604 -0.4113 -2.3219
   60CHL1  H12B 6879   1.158   3.965   9.714  1.2014 -1.1591  1.7026
   60CHL1   C11 6880   1.224   4.123   9.853 -0.5388  0.3557  0.6422
   60CHL1  H11A 6881   1.241   4.232   9.840  0.5179 -0.0822 -2.1057
   60CHL1  H11B 6882   1.138   4.105   9.921 -0.3315  0.9352  1.0537
   60CHL1    C9 6883   1.343   4.061   9.930 -0.4465  0.1047  0.6693
   60CHL1    H9 6884   1.312   3.956   9.947 -0.3225  0.1580  1.2375
   60CHL1   C10 6885   1.374   4.117  10.073  0.1438  0.1741 -0.0237
   60CHL1   C19 6886   1.368   4.268  10.065  0.2535 -0.0421 -0.3425
   60CHL1  H19A 6887   1.389   4.317  10.162 -1.6025  1.3340 -0.5980
   60CHL1  H19B 6888   1.435   4.315   9.990  0.2532  1.9324  0.8564
   60CHL1  H19C 6889   1.264   4.302  10.047 -0.1496  0.3997  2.5106
   60CHL1    C1 6890   1.266   4.072  10.180  0.4085 -0.1766 -0.6097
   60CHL1   H1A 6891   1.168   4.117  10.151 -1.0505 -4.6616 -3.0267
   60CHL1   H1B 6892   1.256   3.962  10.172  0.8620 -0.2564 -0.0693
   60CHL1    C2 6893   1.296   4.098  10.329  0.4413  0.1726 -0.7618
   60CHL1   H2A 6894   1.217   4.043  10.385 -1.8251  1.9379 -2.1575
   60CHL1   H2B 6895   1.288   4.206  10.353 -4.1981 -0.5042  1.3485
   60CHL1   C20 6896   1.271   4.050   9.363  0.2297  0.6281  0.1420
   60CHL1   H20 6897   1.349   4.123   9.333 -0.0143  0.0856 -1.8732
   60CHL1   C21 6898   1.128   4.102   9.369 -0.2613  0.3873  0.0349
   60CHL1  H21A 6899   1.098   4.127   9.265  1.3775 -2.5682 -1.2336
   60CHL1  H21B 6900   1.121   4.184   9.443  0.3829  0.6928 -0.2417
   60CHL1  H21C 6901   1.052   4.023   9.389  0.2300 -0.2007 -0.3926
   60CHL1   C22 6902   1.275   3.943   9.242  0.4429 -0.5473  0.1879
   60CHL1  H22A 6903   1.335   3.853   9.268  1.1798  0.7135  3.1405
   60CHL1  H22B 6904   1.172   3.907   9.223 -0.7962  2.5085  0.8878
   60CHL1   C23 6905   1.327   4.002   9.108 -0.2057  0.2020 -0.4691
   60CHL1  H23A 6906   1.265   4.090   9.079 -0.5924  0.7162  1.8507
   60CHL1  H23B 6907   1.433   4.035   9.111  0.4045 -1.7523  0.3121
   60CHL1   C24 6908   1.309   3.901   8.992 -0.4961 -0.0464 -0.1405
   60CHL1  H24A 6909   1.337   3.796   9.016 -0.4704 -0.2559 -1.0772
   60CHL1  H24B 6910   1.201   3.907   8.966 -0.4524 -0.2060 -0.3604
   60CHL1   C25 6911   1.391   3.940   8.871  0.9286  0.1797  0.7656
   60CHL1   H25 6912   1.495   3.930   8.907  1.1190  0.2413  0.2276
   60CHL1   C26 6913   1.383   3.838   8.758 -0.1556  0.1071  0.5018
   60CHL1  H26A 6914   1.455   3.864   8.677 -0.4969  0.0030  0.1577
   60CHL1  H26B 6915   1.417   3.743   8.805  0.3549 -0.4604 -0.9916
   60CHL1  H26C 6916   1.277   3.831   8.724 -0.7414  2.1201  1.8131
   60CHL1   C27 6917   1.379   4.083   8.814 -0.1664  0.2073 -0.4370
   60CHL1  H27A 6918   1.371   4.155   8.898 -0.3553  0.7136 -0.8796
   60CHL1  H27B 6919   1.467   4.115   8.754 -0.9864  1.8121 -0.8309
   60CHL1  H27C 6920   1.283   4.104   8.761 -0.3008  2.1362  0.4982
   61CHL1    C3 6921   5.266   4.348  10.210 -0.1903 -0.4641 -0.1925
   61CHL1    H3 6922   5.342   4.424  10.182 -1.0709  0.2871 -0.5451
   61CHL1    O3 6923   5.293   4.327  10.348 -0.1836 -0.0280 -0.0171
   61CHL1   H3' 6924   5.212   4.285  10.379 -0.8259  1.0797 -0.1729
   61CHL1    C4 6925   5.124   4.397  10.185 -0.4698  0.4552 -0.1249
   61CHL1   H4A 6926   5.054   4.320  10.223  2.0179 -1.8591 -0.0247
   61CHL1   H4B 6927   5.101   4.492  10.237  0.7449  1.0915 -0.7258
   61CHL1    C5 6928   5.093   4.415  10.041  0.3705  0.1910  0.1815
   61CHL1    C6 6929   5.043   4.533   9.996  0.6403  0.9077 -0.1019
   61CHL1    H6 6930   5.021   4.607  10.075 -0.0897  0.4224  0.1496
   61CHL1    C7 6931   5.029   4.581   9.856 -0.6390 -0.1147 -0.1790
   61CHL1   H7A 6932   4.934   4.630   9.827  0.3006  2.1703  0.4669
   61CHL1   H7B 6933   5.098   4.668   9.845 -0.1419 -0.2092  2.0464
   61CHL1    C8 6934   5.048   4.456   9.757 -0.4902  0.8271  0.7988
   61CHL1    H8 6935   4.946   4.414   9.756 -0.7729  1.5072 -0.0981
   61CHL1   C14 6936   5.087   4.508   9.629 -0.8777  0.6810  0.3454
   61CHL1   H14 6937   5.188   4.551   9.643 -0.6049  0.2128 -0.1886
   61CHL1   C15 6938   5.006   4.622   9.563 -0.2389  0.5233 -0.3000
   61CHL1  H15A 6939   4.898   4.604   9.582 -0.2124  0.9552  0.2600
   61CHL1  H15B 6940   5.037   4.714   9.615  2.6945 -0.9478  0.6136
   61CHL1   C16 6941   5.025   4.620   9.411 -0.2135  0.1472  0.2237
   61CHL1  H16A 6942   4.927   4.609   9.360 -0.0546 -0.3160  0.0158
   61CHL1  H16B 6943   5.062   4.717   9.372 -1.2361  0.5587  0.2610
   61CHL1   C17 6944   5.126   4.495   9.392 -0.2934  0.6807  0.3458
   61CHL1   H17 6945   5.230   4.530   9.408 -0.5482  1.4914  0.2685
   61CHL1   C13 6946   5.098   4.407   9.515  0.7483  0.3968 -0.8080
   61CHL1   C18 6947   4.970   4.334   9.486  0.1918  0.5350  0.1706
   61CHL1  H18A 6948   4.891   4.407   9.459 -1.0201 -0.2171  1.6517
   61CHL1  H18B 6949   4.977   4.255   9.408 -0.4190 -0.6726  1.3209
   61CHL1  H18C 6950   4.933   4.293   9.582  1.2759 -0.6365  0.1070
   61CHL1   C12 6951   5.205   4.298   9.540  0.1547  0.6999 -1.0177
   61CHL1  H12A 6952   5.194   4.219   9.463  0.5504 -0.0025 -0.3527
   61CHL1  H12B 6953   5.306   4.344   9.546  1.0556 -1.4287  0.8344
   61CHL1   C11 6954   5.190   4.240   9.687 -0.4702 -0.3780 -0.3239
   61CHL1  H11A 6955   5.100   4.177   9.677 -0.5967 -0.9061  3.2981
   61CHL1  H11B 6956   5.277   4.175   9.707  0.8563  1.2691 -0.5733
   61CHL1    C9 6957   5.159   4.353   9.798 -0.3071  0.5764  0.8461
   61CHL1    H9 6958   5.251   4.415   9.790 -1.7473  2.4127 -2.9472
   61CHL1   C10 6959   5.140   4.299   9.946  0.3729 -0.6894 -0.4906
   61CHL1   C19 6960   5.034   4.187   9.950  0.1626  0.5059  0.4187
   61CHL1  H19A 6961   5.030   4.144  10.053 -0.4182  1.2593  0.7128
   61CHL1  H19B 6962   4.936   4.235   9.929  1.2420  2.7028  0.3630
   61CHL1  H19C 6963   5.050   4.098   9.885 -0.3419  0.3433  0.5084
   61CHL1    C1 6964   5.281   4.239   9.988  0.8303  0.4612 -0.2471
   61CHL1   H1A 6965   5.287   4.137   9.945 -1.2555 -0.2370  1.0472
   61CHL1   H1B 6966   5.371   4.286   9.944  1.1497  0.4504  0.3949
   61CHL1    C2 6967   5.298   4.223  10.140 -0.3409 -0.0136  0.0004
   61CHL1   H2A 6968   5.395   4.171  10.159 -0.2738 -0.2451 -0.9820
   61CHL1   H2B 6969   5.229   4.142  10.174 -0.0880 -0.0749  0.3710
   61CHL1   C20 6970   5.114   4.439   9.246 -0.1893  0.2662 -0.2695
   61CHL1   H20 6971   5.018   4.383   9.238 -0.2740  0.4533 -0.5648
   61CHL1   C21 6972   5.221   4.337   9.207  0.0404 -0.0977 -0.2471
   61CHL1  H21A 6973   5.202   4.247   9.270  0.0861 -0.4616 -0.7545
   61CHL1  H21B 6974   5.316   4.382   9.240 -1.3220  0.7218  2.7571
   61CHL1  H21C 6975   5.208   4.316   9.099  1.1376  0.0861 -0.4208
   61CHL1   C22 6976   5.116   4.554   9.136 -0.1929 -0.3733  0.0104
   61CHL1  H22A 6977   5.100   4.503   9.039 -2.5552 -0.1179  0.2467
   61CHL1  H22B 6978   5.022   4.611   9.152 -0.2224 -0.7660  1.3793
   61CHL1   C23 6979   5.239   4.644   9.128 -0.1552 -0.3249  0.0372
   61CHL1  H23A 6980   5.252   4.713   9.214 -0.1138  0.0741 -0.2865
   61CHL1  H23B 6981   5.328   4.586   9.098 -0.4233  0.7880 -3.0394
   61CHL1   C24 6982   5.235   4.744   9.010 -1.2925  0.5298  0.9291
   61CHL1  H24A 6983   5.160   4.825   9.025  0.7641  2.8202 -0.7223
   61CHL1  H24B 6984   5.332   4.796   8.990  0.1875 -2.7011 -0.5757
   61CHL1   C25 6985   5.199   4.674   8.878 -0.1839  0.4407  0.7432
   61CHL1   H25 6986   5.093   4.641   8.876  0.0002 -0.2200  1.5318
   61CHL1   C26 6987   5.203   4.785   8.767 -0.4483 -0.7615 -0.5142
   61CHL1  H26A 6988   5.305   4.829   8.765 -1.0568  0.7085  0.8765
   61CHL1  H26B 6989   5.189   4.746   8.663  0.7239  0.5753 -1.1874
   61CHL1  H26C 6990   5.128   4.866   8.771 -2.2478 -2.3093 -2.1147
   61CHL1   C27 6991   5.283   4.551   8.842 -0.0709 -0.3383  0.0792
   61CHL1  H27A 6992   5.259   4.508   8.742 -0.8522  1.4412 -0.5210
   61CHL1  H27B 6993   5.387   4.588   8.827  0.3313 -1.0731  0.9569
   61CHL1  H27C 6994   5.278   4.477   8.925 -1.8727  0.1881  0.4612
   62CHL1    C3 6995   6.009   0.072  10.042  0.0536 -0.8892 -0.3720
   62CHL1    H3 6996   6.007  -0.038  10.053 -1.8027 -1.1026 -2.5018
   62CHL1    O3 6997   6.003   0.134  10.171 -0.2098 -0.0294  0.1284
   62CHL1   H3' 6998   5.969   0.222  10.155  1.6541  0.5720 -0.6792
   62CHL1    C4 6999   6.143   0.103   9.973  0.4605 -0.0051  0.3158
   62CHL1   H4A 7000   6.169   0.211   9.981  0.1692  0.2979 -2.5253
   62CHL1   H4B 7001   6.216   0.056  10.043 -0.3918  0.0297  1.2462
   62CHL1    C5 7002   6.156   0.060   9.827 -0.1178 -1.0176  0.3683
   62CHL1    C6 7003   6.272  -0.004   9.787  0.0611 -0.3623  0.1670
   62CHL1    H6 7004   6.341  -0.036   9.866 -0.1734  0.5502  0.7574
   62CHL1    C7 7005   6.291  -0.041   9.639 -1.0981  1.1963  0.1349
   62CHL1   H7A 7006   6.386   0.008   9.609 -0.3236 -1.1353 -1.3978
   62CHL1   H7B 7007   6.308  -0.150   9.644  1.5740  1.5835  0.4000
   62CHL1    C8 7008   6.179   0.014   9.548  0.0826  0.1792  0.0284
   62CHL1    H8 7009   6.205   0.119   9.520  0.0228  0.2935  0.4066
   62CHL1   C14 7010   6.193  -0.068   9.415  0.7159  0.0738 -0.0112
   62CHL1   H14 7011   6.178  -0.173   9.447 -0.5721 -0.1476 -1.2787
   62CHL1   C15 7012   6.325  -0.058   9.337 -0.1615  0.2954  0.0472
   62CHL1  H15A 7013   6.374   0.040   9.324 -0.6211  0.6641  0.9999
   62CHL1  H15B 7014   6.397  -0.121   9.394  1.5835 -0.2919 -2.7047
   62CHL1   C16 7015   6.286  -0.123   9.202  0.4258 -0.7618  0.8305
   62CHL1  H16A 7016   6.334  -0.050   9.134  0.1361 -1.1382  0.2213
   62CHL1  H16B 7017   6.332  -0.223   9.186 -2.2038 -1.3607 -3.5704
   62CHL1   C17 7018   6.130  -0.115   9.188  0.0307 -0.8311  0.1503
   62CHL1   H17 7019   6.094  -0.216   9.216 -0.0675 -0.4018  1.6430
   62CHL1   C13 7020   6.086  -0.029   9.305 -0.3859 -0.1008  0.0476
   62CHL1   C18 7021   6.092   0.118   9.262 -0.2918  0.2561  0.5071
   62CHL1  H18A 7022   6.123   0.181   9.348 -1.7261  0.8786  0.5678
   62CHL1  H18B 7023   6.167   0.136   9.182  0.4040  1.5371  1.4288
   62CHL1  H18C 7024   5.990   0.145   9.227  0.4150 -0.6224 -2.3607
   62CHL1   C12 7025   5.954  -0.059   9.369 -1.1166  0.1338 -0.4128
   62CHL1  H12A 7026   5.870  -0.035   9.301  0.3628  1.7036 -1.7221
   62CHL1  H12B 7027   5.951  -0.163   9.409 -2.7989  0.7606  1.2153
   62CHL1   C11 7028   5.932   0.027   9.495 -0.7134 -0.3562  0.0782
   62CHL1  H11A 7029   5.918   0.133   9.465 -0.2150 -0.3016  0.0392
   62CHL1  H11B 7030   5.833  -0.008   9.530 -0.9587 -1.0637 -1.2845
   62CHL1    C9 7031   6.042  -0.001   9.602 -0.1513 -0.2248  0.4192
   62CHL1    H9 7032   6.037  -0.107   9.635 -4.0938  0.1149  1.1959
   62CHL1   C10 7033   6.030   0.080   9.738 -0.5734 -0.4621  0.1658
   62CHL1   C19 7034   6.021   0.232   9.699  0.0040  0.2651  0.1522
   62CHL1  H19A 7035   6.062   0.297   9.779  2.0494 -0.7665 -0.0123
   62CHL1  H19B 7036   6.078   0.254   9.606  0.4955 -0.4705  0.2740
   62CHL1  H19C 7037   5.918   0.259   9.667  0.1658 -0.9119 -1.5018
   62CHL1    C1 7038   5.905   0.039   9.817  0.5171  0.4323  0.0446
   62CHL1   H1A 7039   5.813   0.036   9.755 -0.6773  0.6498  1.7761
   62CHL1   H1B 7040   5.907  -0.067   9.850  0.6830  1.1992  2.6708
   62CHL1    C2 7041   5.885   0.107   9.954  0.1527 -0.0419  0.2337
   62CHL1   H2A 7042   5.794   0.069  10.005 -0.0925 -0.9435 -0.8529
   62CHL1   H2B 7043   5.877   0.217   9.936 -0.8688 -0.1180  0.1720
   62CHL1   C20 7044   6.084  -0.086   9.046  0.5518  0.2600 -0.2793
   62CHL1   H20 7045   6.123   0.009   9.005  1.3598 -0.4751 -1.2435
   62CHL1   C21 7046   5.924  -0.081   9.044  0.1867  0.7965  0.3462
   62CHL1  H21A 7047   5.886  -0.082   8.940 -0.3157  0.2694  0.5390
   62CHL1  H21B 7048   5.891   0.010   9.099  0.4116  1.2913 -0.3178
   62CHL1  H21C 7049   5.873  -0.164   9.097 -0.0107  1.1048  0.6387
   62CHL1   C22 7050   6.121  -0.197   8.945  0.1856  0.2703  0.2107
   62CHL1  H22A 7051   6.220  -0.243   8.965  0.4591  0.5709 -0.4261
   62CHL1  H22B 7052   6.052  -0.283   8.959 -0.0098  0.2777 -0.6600
   62CHL1   C23 7053   6.120  -0.152   8.795  0.1866  0.4984 -0.1925
   62CHL1  H23A 7054   6.025  -0.098   8.772  0.6885  0.0310 -3.6007
   62CHL1  H23B 7055   6.199  -0.077   8.776 -0.3279  0.5851 -2.0837
   62CHL1   C24 7056   6.121  -0.277   8.700  0.0576 -0.1575 -0.3167
   62CHL1  H24A 7057   6.215  -0.335   8.716  1.4544  2.5419  1.7178
   62CHL1  H24B 7058   6.037  -0.335   8.743 -0.0299 -1.4725 -2.1969
   62CHL1   C25 7059   6.082  -0.248   8.555 -0.0765 -0.5566  0.3978
   62CHL1   H25 7060   5.988  -0.190   8.539  0.0249 -1.0196 -2.0080
   62CHL1   C26 7061   6.186  -0.144   8.500 -0.5044  0.6277  0.3085
   62CHL1  H26A 7062   6.200  -0.055   8.566  1.8364  0.9538 -0.5884
   62CHL1  H26B 7063   6.285  -0.185   8.472 -1.4126 -1.4595  0.1162
   62CHL1  H26C 7064   6.144  -0.112   8.403  0.8667 -1.4963 -1.0111
   62CHL1   C27 7065   6.064  -0.370   8.462  0.2473 -0.0640 -0.0199
   62CHL1  H27A 7066   6.158  -0.428   8.450  0.0747 -0.0955 -1.3008
   62CHL1  H27B 7067   5.993  -0.446   8.503  0.5966  0.1868  1.0549
   62CHL1  H27C 7068   6.032  -0.340   8.360  1.7473  2.9230  0.3406
   63CHL1    C3 7069   0.268   2.288  10.555  0.3068 -0.1402  0.4670
   63CHL1    H3 7070   0.199   2.210  10.592  0.5515 -0.2079  0.7859
   63CHL1    O3 7071   0.284   2.365  10.673  0.3547  0.1082  0.8426
   63CHL1   H3' 7072   0.357   2.424  10.652  0.3800  0.5934  2.2678
   63CHL1    C4 7073   0.401   2.240  10.495 -0.3213 -0.1083 -0.1767
   63CHL1   H4A 7074   0.459   2.327  10.457  1.2458 -0.3200  1.6685
   63CHL1   H4B 7075   0.460   2.181  10.568 -0.5776  0.2828  0.3502
   63CHL1    C5 7076   0.380   2.146  10.381 -0.2507  0.4776  0.2823
   63CHL1    C6 7077   0.409   2.015  10.389 -0.2521  0.1750 -0.5959
   63CHL1    H6 7078   0.460   1.976  10.478  0.0755  1.2017 -0.3309
   63CHL1    C7 7079   0.395   1.923  10.272  0.1159 -0.0127 -0.7118
   63CHL1   H7A 7080   0.488   1.865  10.259 -0.8258 -1.9444  0.9417
   63CHL1   H7B 7081   0.315   1.849  10.293 -1.6446  2.1399  0.4203
   63CHL1    C8 7082   0.363   1.998  10.134 -0.5261 -0.0561 -0.3291
   63CHL1    H8 7083   0.451   2.058  10.105 -0.5283 -1.4533 -3.3596
   63CHL1   C14 7084   0.336   1.900  10.020  0.7911 -0.0082 -0.4023
   63CHL1   H14 7085   0.254   1.837  10.062  1.7335 -0.8980  0.1438
   63CHL1   C15 7086   0.432   1.790   9.987 -0.5098 -0.1859  0.3196
   63CHL1  H15A 7087   0.537   1.823   9.979 -0.0041 -2.0750 -1.2309
   63CHL1  H15B 7088   0.431   1.712  10.066 -0.5299 -1.6162 -1.0485
   63CHL1   C16 7089   0.377   1.737   9.847 -0.2782 -0.9222  0.6712
   63CHL1  H16A 7090   0.462   1.748   9.776 -1.7682 -1.6058 -1.2528
   63CHL1  H16B 7091   0.334   1.635   9.844 -0.2121 -0.9139 -1.2820
   63CHL1   C17 7092   0.269   1.840   9.808 -0.3068  0.3243 -0.2867
   63CHL1   H17 7093   0.171   1.800   9.841  0.0915  0.2235  0.7792
   63CHL1   C13 7094   0.287   1.962   9.890 -0.6773 -0.1818 -0.3380
   63CHL1   C18 7095   0.399   2.058   9.843 -0.1317  0.3425  0.0417
   63CHL1  H18A 7096   0.486   1.991   9.826 -1.0200 -0.2923 -2.1475
   63CHL1  H18B 7097   0.359   2.096   9.747  0.7241  0.3587 -0.3113
   63CHL1  H18C 7098   0.415   2.138   9.918 -1.3598 -0.8455  1.6046
   63CHL1   C12 7099   0.159   2.047   9.908  0.1599 -0.3026 -0.4287
   63CHL1  H12A 7100   0.127   2.103   9.818 -0.2430  0.1579 -0.0050
   63CHL1  H12B 7101   0.072   1.982   9.935 -0.8623  1.1144 -0.2364
   63CHL1   C11 7102   0.181   2.153  10.026 -0.6876  0.1704 -0.6535
   63CHL1  H11A 7103   0.247   2.234   9.988 -0.4667  0.7014  0.7971
   63CHL1  H11B 7104   0.082   2.192  10.059 -0.0199  2.3870 -1.2261
   63CHL1    C9 7105   0.256   2.102  10.156  0.2271 -0.2955 -0.4940
   63CHL1    H9 7106   0.175   2.046  10.208  0.8156 -2.3062 -1.6994
   63CHL1   C10 7107   0.304   2.211  10.260  0.4972 -0.2900  0.1808
   63CHL1   C19 7108   0.404   2.314  10.191 -0.2376 -0.2161  0.2764
   63CHL1  H19A 7109   0.451   2.265  10.102 -0.7381  1.6694 -1.0487
   63CHL1  H19B 7110   0.344   2.403  10.163  0.3749  0.5209  1.2862
   63CHL1  H19C 7111   0.486   2.358  10.251  0.4969 -0.5453 -0.4688
   63CHL1    C1 7112   0.181   2.289  10.317 -0.2101  0.0930 -0.0609
   63CHL1   H1A 7113   0.119   2.348  10.245 -0.8903 -0.9467 -0.3517
   63CHL1   H1B 7114   0.097   2.220  10.339 -0.7065  0.5545 -0.4646
   63CHL1    C2 7115   0.199   2.370  10.449  0.4837  0.4321 -0.2914
   63CHL1   H2A 7116   0.096   2.389  10.485  0.5713 -1.5001  1.0556
   63CHL1   H2B 7117   0.245   2.470  10.434 -0.5959  0.6917 -2.1789
   63CHL1   C20 7118   0.257   1.857   9.653 -0.0651  0.3551 -0.1402
   63CHL1   H20 7119   0.349   1.914   9.626  1.4059 -2.1486 -0.5939
   63CHL1   C21 7120   0.138   1.947   9.597 -0.1256  0.3717  0.0743
   63CHL1  H21A 7121   0.166   2.054   9.611  0.7878  0.3231 -1.1971
   63CHL1  H21B 7122   0.044   1.921   9.649 -1.4458  0.6937 -2.1035
   63CHL1  H21C 7123   0.114   1.923   9.491 -0.6457 -0.4304  0.3761
   63CHL1   C22 7124   0.258   1.728   9.573  0.1248  0.3309  0.5551
   63CHL1  H22A 7125   0.237   1.749   9.466  0.6088  4.0595  1.1052
   63CHL1  H22B 7126   0.351   1.669   9.584  1.4704  1.4911 -3.7146
   63CHL1   C23 7127   0.136   1.637   9.591  0.8647 -0.5547 -0.5757
   63CHL1  H23A 7128   0.124   1.625   9.701  2.5895 -0.9676 -0.4247
   63CHL1  H23B 7129   0.046   1.700   9.576  0.5348 -0.3785  1.9647
   63CHL1   C24 7130   0.133   1.501   9.515 -0.7137 -0.0599 -0.0793
   63CHL1  H24A 7131   0.217   1.436   9.548  0.8884  1.7328 -0.4621
   63CHL1  H24B 7132   0.043   1.442   9.541  0.7525 -2.6100 -0.5835
   63CHL1   C25 7133   0.163   1.498   9.361 -0.1127 -0.2723 -0.3854
   63CHL1   H25 7134   0.244   1.571   9.337 -1.3723  0.4602 -2.6515
   63CHL1   C26 7135   0.220   1.355   9.323  0.3597  0.1970  0.1157
   63CHL1  H26A 7136   0.153   1.278   9.366  0.2758  0.6622  0.8248
   63CHL1  H26B 7137   0.234   1.342   9.214  1.6738  1.4129  0.1190
   63CHL1  H26C 7138   0.324   1.335   9.356  0.5019  0.6245 -0.0662
   63CHL1   C27 7139   0.042   1.520   9.274  0.3612 -0.5743 -0.4534
   63CHL1  H27A 7140   0.062   1.492   9.168  0.3039 -0.1954 -0.5658
   63CHL1  H27B 7141  -0.041   1.455   9.309  1.0805 -1.4663 -0.3904
   63CHL1  H27C 7142  -0.008   1.618   9.288  1.1884 -0.3936  1.3139
   64CHL1    C3 7143   6.568   1.583  10.024 -0.4288 -0.0188  0.5548
   64CHL1    H3 7144   6.541   1.688  10.047 -0.3620 -0.1371  1.2072
   64CHL1    O3 7145   6.610   1.531  10.148  0.1421  0.2841 -0.1846
   64CHL1   H3' 7146   6.543   1.473  10.184  1.6696 -1.4859 -0.1393
   64CHL1    C4 7147   6.448   1.509   9.968 -0.7556 -0.7548  0.5547
   64CHL1   H4A 7148   6.476   1.405   9.942 -1.7746 -1.2444  1.4115
   64CHL1   H4B 7149   6.370   1.491  10.044 -1.2016  0.2439  0.3489
   64CHL1    C5 7150   6.407   1.581   9.839  0.1155 -0.4428  0.0812
   64CHL1    C6 7151   6.282   1.622   9.812 -0.7402 -0.1125 -1.0487
   64CHL1    H6 7152   6.211   1.616   9.896 -2.1062  1.2120 -2.0736
   64CHL1    C7 7153   6.229   1.684   9.692 -0.7500 -0.2990  0.4287
   64CHL1   H7A 7154   6.132   1.642   9.658 -0.1586 -0.7603 -0.7212
   64CHL1   H7B 7155   6.219   1.794   9.710 -1.7505 -0.2117 -0.5883
   64CHL1    C8 7156   6.324   1.671   9.570 -0.1254  0.1088  0.8174
   64CHL1    H8 7157   6.322   1.563   9.545  1.0811  0.6803 -1.8211
   64CHL1   C14 7158   6.273   1.758   9.455 -0.0160 -0.7393 -0.8260
   64CHL1   H14 7159   6.255   1.859   9.499 -0.0768 -1.4250  0.7668
   64CHL1   C15 7160   6.138   1.730   9.397 -0.0527  0.3606  0.5529
   64CHL1  H15A 7161   6.128   1.620   9.385  0.6769  0.4867 -1.4539
   64CHL1  H15B 7162   6.064   1.781   9.462 -1.3371  0.8368 -1.2303
   64CHL1   C16 7163   6.140   1.789   9.260 -0.2135  0.5152  0.7454
   64CHL1  H16A 7164   6.109   1.712   9.186  0.3303  0.1286  0.9241
   64CHL1  H16B 7165   6.066   1.870   9.243  0.0332  0.1949 -2.1163
   64CHL1   C17 7166   6.287   1.834   9.232 -0.3882 -0.1582  1.3002
   64CHL1   H17 7167   6.299   1.937   9.271  1.3981  0.7686 -1.5618
   64CHL1   C13 7168   6.366   1.751   9.341  0.2214  0.3376  0.1347
   64CHL1   C18 7169   6.383   1.603   9.285 -0.2759  0.4161 -0.3023
   64CHL1  H18A 7170   6.409   1.539   9.371  0.1500 -1.4749 -1.8091
   64CHL1  H18B 7171   6.288   1.557   9.251  0.5179 -1.3203 -0.2293
   64CHL1  H18C 7172   6.470   1.599   9.215 -1.3246  0.7994 -1.6467
   64CHL1   C12 7173   6.500   1.807   9.382  0.0692  0.6886 -0.0078
   64CHL1  H12A 7174   6.581   1.797   9.306  0.4552  3.2053  0.0183
   64CHL1  H12B 7175   6.492   1.913   9.412  0.8106  0.5666  0.6269
   64CHL1   C11 7176   6.563   1.731   9.505 -0.7812 -0.1081 -0.6644
   64CHL1  H11A 7177   6.608   1.636   9.471  2.3936  1.4824 -1.0946
   64CHL1  H11B 7178   6.641   1.793   9.556 -0.6268 -1.3822  0.6858
   64CHL1    C9 7179   6.463   1.705   9.621 -0.6639 -0.6024 -0.1348
   64CHL1    H9 7180   6.454   1.806   9.667  1.9195 -0.0952 -0.7078
   64CHL1   C10 7181   6.508   1.612   9.734  0.6498  0.5727  0.3596
   64CHL1   C19 7182   6.549   1.474   9.666 -0.0636 -0.3310 -0.8819
   64CHL1  H19A 7183   6.641   1.476   9.605 -0.2772 -0.0252 -1.1918
   64CHL1  H19B 7184   6.579   1.404   9.747  0.8845  1.2383  0.1586
   64CHL1  H19C 7185   6.460   1.424   9.623 -0.0731 -0.4835 -0.6879
   64CHL1    C1 7186   6.631   1.672   9.802  0.0527 -0.3252  0.5698
   64CHL1   H1A 7187   6.711   1.687   9.727  2.7024 -1.2099  3.1364
   64CHL1   H1B 7188   6.610   1.773   9.844  0.5409  0.1996 -0.4391
   64CHL1    C2 7189   6.683   1.593   9.919  0.0048  0.1036 -0.0512
   64CHL1   H2A 7190   6.768   1.655   9.955  0.2386  1.2323 -2.4809
   64CHL1   H2B 7191   6.710   1.486   9.905  0.0263  0.2112 -0.8231
   64CHL1   C20 7192   6.320   1.816   9.084  0.5710  0.3198 -0.0582
   64CHL1   H20 7193   6.315   1.709   9.056  0.9538  0.5785 -1.1406
   64CHL1   C21 7194   6.462   1.873   9.058  0.7434  0.0027 -0.2909
   64CHL1  H21A 7195   6.482   1.968   9.112  0.4008  0.0138 -0.1828
   64CHL1  H21B 7196   6.483   1.895   8.951 -0.0620 -1.1486 -0.6937
   64CHL1  H21C 7197   6.536   1.800   9.097 -0.7710 -0.6535  1.4188
   64CHL1   C22 7198   6.218   1.892   8.991 -0.4725 -0.1416 -0.0383
   64CHL1  H22A 7199   6.118   1.850   9.016 -0.3103  0.6039  1.8871
   64CHL1  H22B 7200   6.229   2.002   9.003  1.7095 -0.5023  1.6197
   64CHL1   C23 7201   6.218   1.866   8.840  0.1267  0.1703  0.1980
   64CHL1  H23A 7202   6.309   1.914   8.796  0.6430 -0.5779  0.4376
   64CHL1  H23B 7203   6.238   1.758   8.825 -2.4640 -0.6019  1.9879
   64CHL1   C24 7204   6.090   1.930   8.781 -0.3302  0.0575  0.7206
   64CHL1  H24A 7205   6.006   1.872   8.825 -0.4296 -1.4325 -1.3601
   64CHL1  H24B 7206   6.072   2.033   8.819  1.9318  0.5553  0.4873
   64CHL1   C25 7207   6.071   1.945   8.633 -0.3128  0.4416  0.9895
   64CHL1   H25 7208   5.971   1.992   8.615  1.1616  3.2380 -0.1549
   64CHL1   C26 7209   6.161   2.047   8.572 -0.2010 -0.6187  0.5862
   64CHL1  H26A 7210   6.266   2.017   8.591  0.6231  1.6554 -0.1364
   64CHL1  H26B 7211   6.140   2.035   8.464 -1.2595 -1.6489  0.9020
   64CHL1  H26C 7212   6.141   2.152   8.604 -1.6702 -0.3645 -1.1124
   64CHL1   C27 7213   6.087   1.813   8.566 -0.2605 -0.3810  0.2253
   64CHL1  H27A 7214   6.005   1.742   8.589 -0.8021 -0.2994 -1.3925
   64CHL1  H27B 7215   6.082   1.821   8.456  2.3427  1.5918  0.1939
   64CHL1  H27C 7216   6.187   1.768   8.584 -0.6359 -0.7177  1.5104
   65CHL1    C3 7217   2.195   5.198  10.255  0.0035  0.2663 -0.5343
   65CHL1    H3 7218   2.200   5.100  10.204  0.2453  0.1864 -0.3574
   65CHL1    O3 7219   2.209   5.182  10.399  0.1632 -0.7029 -0.3561
   65CHL1   H3' 7220   2.203   5.273  10.427  4.3619 -0.8073  1.2621
   65CHL1    C4 7221   2.311   5.289  10.200  0.2773  0.5435 -0.0800
   65CHL1   H4A 7222   2.312   5.387  10.253  1.7483  0.8851 -0.7171
   65CHL1   H4B 7223   2.406   5.238  10.225  0.6889  2.8782  3.5708
   65CHL1    C5 7224   2.282   5.311  10.053 -0.6461  0.5143 -0.2055
   65CHL1    C6 7225   2.369   5.275   9.956 -0.3137 -0.3788  0.5333
   65CHL1    H6 7226   2.468   5.246   9.994 -0.4993 -0.6965  0.7724
   65CHL1    C7 7227   2.351   5.324   9.811 -0.6400 -0.1961 -0.4116
   65CHL1   H7A 7228   2.451   5.355   9.773 -0.3271  0.1686  0.7112
   65CHL1   H7B 7229   2.313   5.250   9.738  0.0812 -0.1453 -0.8450
   65CHL1    C8 7230   2.254   5.441   9.799 -0.0186 -0.2331  0.3619
   65CHL1    H8 7231   2.308   5.526   9.847 -0.9022  0.4525  0.1744
   65CHL1   C14 7232   2.230   5.466   9.654  0.1256 -0.0138  0.1736
   65CHL1   H14 7233   2.189   5.372   9.610  0.3472 -0.1772  0.3136
   65CHL1   C15 7234   2.350   5.502   9.569  0.1228 -0.6050 -0.4804
   65CHL1  H15A 7235   2.408   5.591   9.605 -1.3167  0.9006 -1.7998
   65CHL1  H15B 7236   2.416   5.417   9.540  2.0633  0.6212  0.1723
   65CHL1   C16 7237   2.293   5.560   9.437 -0.7054  0.9237 -0.5510
   65CHL1  H16A 7238   2.352   5.649   9.405  0.3317 -0.1781 -1.7177
   65CHL1  H16B 7239   2.321   5.488   9.358  0.5700  0.7009  0.0711
   65CHL1   C17 7240   2.143   5.578   9.462  0.0149  0.1030 -0.1278
   65CHL1   H17 7241   2.084   5.489   9.433 -0.6455  0.0568  1.3021
   65CHL1   C13 7242   2.129   5.575   9.612  0.3478  0.7806  0.0862
   65CHL1   C18 7243   2.171   5.717   9.662 -0.7593 -0.8628 -0.1974
   65CHL1  H18A 7244   2.211   5.722   9.765  0.5362  1.9764 -0.7931
   65CHL1  H18B 7245   2.262   5.755   9.611  0.3035  0.7517  2.8044
   65CHL1  H18C 7246   2.087   5.788   9.648 -0.3729 -0.8894 -2.9056
   65CHL1   C12 7247   1.995   5.537   9.668 -0.2209 -0.2159 -0.2784
   65CHL1  H12A 7248   1.917   5.614   9.649 -0.6653 -1.2994 -2.9702
   65CHL1  H12B 7249   1.956   5.446   9.618  1.5301 -0.0991 -1.9122
   65CHL1   C11 7250   2.011   5.503   9.821  0.4336 -0.5042 -0.1086
   65CHL1  H11A 7251   2.019   5.601   9.871 -0.1499 -0.0243 -0.9361
   65CHL1  H11B 7252   1.911   5.466   9.850 -0.3351  1.6602  0.0834
   65CHL1    C9 7253   2.116   5.402   9.863 -1.1022  0.1070  0.0295
   65CHL1    H9 7254   2.086   5.305   9.818  0.1342  0.5252 -1.7321
   65CHL1   C10 7255   2.150   5.385  10.014 -0.5748 -0.8116  0.5950
   65CHL1   C19 7256   2.157   5.530  10.075 -0.3429 -0.2131 -0.2866
   65CHL1  H19A 7257   2.170   5.539  10.185  0.3040 -0.5526 -0.3317
   65CHL1  H19B 7258   2.239   5.584  10.022 -0.0659 -1.0446 -0.7204
   65CHL1  H19C 7259   2.062   5.587  10.065  0.0273  0.1998 -1.5695
   65CHL1    C1 7260   2.033   5.308  10.081  0.8752  0.0449  0.1147
   65CHL1   H1A 7261   1.947   5.378  10.086  0.1336 -0.9558  2.6892
   65CHL1   H1B 7262   2.011   5.221  10.016  0.0581 -1.2912  2.1256
   65CHL1    C2 7263   2.056   5.262  10.230  0.1869 -0.1996  0.1168
   65CHL1   H2A 7264   1.969   5.198  10.258  1.3438 -1.4989  0.7787
   65CHL1   H2B 7265   2.046   5.349  10.298 -0.0119 -1.4161  1.6928
   65CHL1   C20 7266   2.081   5.691   9.370 -0.1076  0.3467  0.1909
   65CHL1   H20 7267   2.134   5.786   9.392 -0.2269  0.9024 -1.8343
   65CHL1   C21 7268   1.933   5.712   9.400  0.2419 -0.5699 -0.0822
   65CHL1  H21A 7269   1.877   5.616   9.402  1.4024 -1.2449  3.2475
   65CHL1  H21B 7270   1.885   5.772   9.319  0.4193  0.7636  0.7765
   65CHL1  H21C 7271   1.918   5.758   9.500 -0.3008 -1.8588  0.4322
   65CHL1   C22 7272   2.110   5.661   9.222 -0.3027 -0.0008  0.5617
   65CHL1  H22A 7273   2.210   5.614   9.207 -1.2601 -1.3653 -1.8266
   65CHL1  H22B 7274   2.034   5.603   9.165 -0.5467  0.6350  0.2452
   65CHL1   C23 7275   2.111   5.780   9.129  0.2797 -0.5752  0.0743
   65CHL1  H23A 7276   2.018   5.842   9.130 -0.2945 -1.3944  3.3860
   65CHL1  H23B 7277   2.188   5.854   9.159  0.1981  1.2357 -3.8531
   65CHL1   C24 7278   2.136   5.743   8.985 -0.3778  1.3747  0.9886
   65CHL1  H24A 7279   2.222   5.674   8.988 -0.0435  1.7519  0.2385
   65CHL1  H24B 7280   2.056   5.687   8.931  0.3739  2.1996 -1.0443
   65CHL1   C25 7281   2.188   5.861   8.893 -0.1631  0.2249 -0.3375
   65CHL1   H25 7282   2.258   5.920   8.955  1.3597  0.0456 -1.8644
   65CHL1   C26 7283   2.269   5.800   8.773 -0.6722  0.0634 -0.1752
   65CHL1  H26A 7284   2.208   5.746   8.697  0.3089 -1.1349 -0.1179
   65CHL1  H26B 7285   2.319   5.889   8.730 -0.4807 -0.4736 -1.0695
   65CHL1  H26C 7286   2.345   5.727   8.808 -0.1352  0.5308 -0.3746
   65CHL1   C27 7287   2.072   5.951   8.847 -0.2567  0.0993  0.0071
   65CHL1  H27A 7288   2.008   5.883   8.786  0.1904 -0.6282  0.3335
   65CHL1  H27B 7289   2.019   5.998   8.932  1.3598  1.5646  0.2146
   65CHL1  H27C 7290   2.121   6.031   8.788 -0.0757  0.0074  0.0330
   66CHL1    C3 7291   6.654   3.600  10.639  0.5924 -0.3076  0.5938
   66CHL1    H3 7292   6.673   3.708  10.660  0.5352 -0.1609 -0.0980
   66CHL1    O3 7293   6.640   3.543  10.768 -0.0536  0.0338 -0.2102
   66CHL1   H3' 7294   6.622   3.451  10.748  2.2423  0.2310 -3.5380
   66CHL1    C4 7295   6.531   3.563  10.555 -0.6720  0.5891 -0.0338
   66CHL1   H4A 7296   6.526   3.452  10.564  2.1988  0.3315 -0.9803
   66CHL1   H4B 7297   6.442   3.602  10.609 -1.9569 -1.8101 -0.3522
   66CHL1    C5 7298   6.553   3.605  10.414  0.3404 -1.3511  0.9372
   66CHL1    C6 7299   6.466   3.683  10.353 -0.1649  0.4874 -0.1497
   66CHL1    H6 7300   6.372   3.701  10.407  0.5895  4.9898 -0.0954
   66CHL1    C7 7301   6.475   3.739  10.210 -0.1650  0.7010  0.5034
   66CHL1   H7A 7302   6.379   3.724  10.158  0.5334  1.6096 -1.0683
   66CHL1   H7B 7303   6.488   3.849  10.217  1.2957  0.5419  0.5925
   66CHL1    C8 7304   6.589   3.670  10.130 -0.3644  0.6062 -0.2757
   66CHL1    H8 7305   6.545   3.573  10.099 -1.9269  1.3238 -0.3841
   66CHL1   C14 7306   6.620   3.744  10.004  0.5015 -1.2210 -0.1414
   66CHL1   H14 7307   6.648   3.845  10.040 -0.1231 -1.1886  0.2644
   66CHL1   C15 7308   6.506   3.776   9.911  0.3075  0.5979  0.2332
   66CHL1  H15A 7309   6.451   3.682   9.886 -0.9111  1.3396  0.0676
   66CHL1  H15B 7310   6.437   3.843   9.968 -0.7606  0.6820 -1.1447
   66CHL1   C16 7311   6.573   3.844   9.793  0.0737 -0.3603 -0.7214
   66CHL1  H16A 7312   6.517   3.808   9.704  0.2847 -2.3577 -0.0942
   66CHL1  H16B 7313   6.569   3.954   9.799 -1.0076 -0.4558  0.4715
   66CHL1   C17 7314   6.721   3.802   9.796 -0.0576 -0.7467 -0.9132
   66CHL1   H17 7315   6.779   3.893   9.821 -2.7713  1.1585 -1.3908
   66CHL1   C13 7316   6.733   3.698   9.911 -0.6683 -0.2522  0.3368
   66CHL1   C18 7317   6.686   3.563   9.863 -0.2625  0.4899  0.2466
   66CHL1  H18A 7318   6.775   3.521   9.813  0.2161  0.2168  1.3000
   66CHL1  H18B 7319   6.645   3.496   9.942 -2.7677 -0.6742 -1.9752
   66CHL1  H18C 7320   6.610   3.563   9.782  1.5992 -0.4742 -1.5268
   66CHL1   C12 7321   6.860   3.690   9.995  0.1168 -0.0914 -0.4129
   66CHL1  H12A 7322   6.952   3.656   9.943  0.3855  0.7848 -0.5277
   66CHL1  H12B 7323   6.888   3.791  10.034 -2.3464 -0.3601  2.2789
   66CHL1   C11 7324   6.836   3.603  10.122  0.2813 -0.0680 -0.3784
   66CHL1  H11A 7325   6.813   3.500  10.086  2.2710 -0.4003 -0.7799
   66CHL1  H11B 7326   6.930   3.593  10.181 -0.2077 -2.9307 -0.0175
   66CHL1    C9 7327   6.720   3.649  10.213 -0.0440 -0.3582  0.5423
   66CHL1    H9 7328   6.752   3.752  10.240  0.5365 -0.3827 -0.0272
   66CHL1   C10 7329   6.689   3.570  10.343  0.3791 -0.0196  0.6421
   66CHL1   C19 7330   6.674   3.416  10.310 -0.1829 -0.0412  0.2220
   66CHL1  H19A 7331   6.775   3.391  10.271 -0.3221 -1.3656  0.6889
   66CHL1  H19B 7332   6.649   3.356  10.400 -0.5455  0.0996  0.2141
   66CHL1  H19C 7333   6.595   3.402  10.234  0.9352 -1.4672 -0.6770
   66CHL1    C1 7334   6.809   3.597  10.444 -0.1056 -0.8171  0.0756
   66CHL1   H1A 7335   6.908   3.562  10.407 -0.5528  0.1441 -2.0815
   66CHL1   H1B 7336   6.817   3.706  10.463 -1.5301 -0.4180 -1.4366
   66CHL1    C2 7337   6.781   3.540  10.582 -0.3767 -0.2437 -0.4064
   66CHL1   H2A 7338   6.873   3.558  10.642  0.7426 -1.8896 -1.5868
   66CHL1   H2B 7339   6.772   3.429  10.581 -0.0207 -0.2997  1.2106
   66CHL1   C20 7340   6.778   3.773   9.658 -0.6964 -0.1245 -0.4058
   66CHL1   H20 7341   6.724   3.689   9.609 -1.7539  0.7941 -0.8461
   66CHL1   C21 7342   6.926   3.735   9.669 -1.1378 -0.0098  0.5019
   66CHL1  H21A 7343   6.986   3.818   9.713  1.5160 -3.1917  3.1414
   66CHL1  H21B 7344   6.960   3.719   9.564  0.8173 -0.1210  1.1347
   66CHL1  H21C 7345   6.947   3.642   9.726  1.8030  1.7562  2.4413
   66CHL1   C22 7346   6.757   3.898   9.571 -0.2679  0.1027 -0.1748
   66CHL1  H22A 7347   6.654   3.939   9.579 -0.3374 -0.2050  0.6100
   66CHL1  H22B 7348   6.823   3.981   9.604 -1.7459  0.5522  1.7210
   66CHL1   C23 7349   6.786   3.879   9.421  1.0546 -0.1418 -0.3498
   66CHL1  H23A 7350   6.896   3.878   9.402  1.0328  2.2010 -0.8108
   66CHL1  H23B 7351   6.741   3.782   9.391  1.2192 -1.1018  2.4287
   66CHL1   C24 7352   6.738   3.998   9.338 -0.0677  0.0033  0.4691
   66CHL1  H24A 7353   6.630   3.992   9.311  0.1059  1.8752 -0.7336
   66CHL1  H24B 7354   6.751   4.090   9.398  2.4766 -1.1351  1.7540
   66CHL1   C25 7355   6.814   4.014   9.206  0.5148  0.8453  0.5134
   66CHL1   H25 7356   6.917   4.049   9.230 -0.4204  2.6128  2.1172
   66CHL1   C26 7357   6.822   3.882   9.125  0.3647  0.3470 -0.7159
   66CHL1  H26A 7358   6.851   3.798   9.192 -2.2169 -0.5527 -0.6665
   66CHL1  H26B 7359   6.728   3.850   9.076  1.2655 -1.4947 -1.2638
   66CHL1  H26C 7360   6.895   3.902   9.043 -0.2950  1.7650 -0.9833
   66CHL1   C27 7361   6.755   4.127   9.124  0.6493 -0.4186  0.6124
   66CHL1  H27A 7362   6.664   4.086   9.075  1.7851 -2.7366  0.3837
   66CHL1  H27B 7363   6.742   4.215   9.191  0.9056  0.1921 -0.1222
   66CHL1  H27C 7364   6.830   4.163   9.049  3.1819 -2.0037  2.3029
   67CHL1    C3 7365   4.221   4.206  10.301  0.0234 -0.0068 -0.5339
   67CHL1    H3 7366   4.327   4.238  10.285  0.5954 -0.7279  1.6605
   67CHL1    O3 7367   4.219   4.179  10.441  0.2095 -0.6952  0.2641
   67CHL1   H3' 7368   4.292   4.119  10.453  1.5563  0.3031 -2.5417
   67CHL1    C4 7369   4.116   4.317  10.271  0.2081 -0.4488 -0.3965
   67CHL1   H4A 7370   4.016   4.275  10.295 -0.5874  1.4411 -0.3725
   67CHL1   H4B 7371   4.128   4.391  10.353 -0.1786 -2.2705  1.3423
   67CHL1    C5 7372   4.126   4.358  10.125  0.8229 -0.7256 -0.1338
   67CHL1    C6 7373   4.140   4.482  10.077  0.1758 -0.3514  0.7123
   67CHL1    H6 7374   4.152   4.565  10.148  0.2437 -0.4599  0.8282
   67CHL1    C7 7375   4.149   4.517   9.926  0.5358 -0.5395  0.0365
   67CHL1   H7A 7376   4.096   4.614   9.921  1.4195 -0.0568  0.0390
   67CHL1   H7B 7377   4.252   4.534   9.889  0.4959 -1.5346 -0.5685
   67CHL1    C8 7378   4.088   4.402   9.836  0.4886 -0.2196 -0.4694
   67CHL1    H8 7379   3.978   4.405   9.851  0.8025  1.8597  1.7659
   67CHL1   C14 7380   4.131   4.430   9.693  0.2511  0.0592  0.6975
   67CHL1   H14 7381   4.241   4.429   9.681  0.0310 -0.4271 -1.2995
   67CHL1   C15 7382   4.088   4.566   9.634 -0.3014 -0.5513  0.1624
   67CHL1  H15A 7383   3.988   4.596   9.672 -0.3822  0.6015 -0.9628
   67CHL1  H15B 7384   4.157   4.652   9.650  0.2910 -0.8693 -0.6828
   67CHL1   C16 7385   4.082   4.536   9.480 -1.0709 -0.6007  0.1015
   67CHL1  H16A 7386   3.979   4.569   9.456 -0.2651  1.8817 -0.0571
   67CHL1  H16B 7387   4.153   4.597   9.421 -0.7804 -0.8194  0.2241
   67CHL1   C17 7388   4.117   4.387   9.460  0.0687  0.1332  0.2734
   67CHL1   H17 7389   4.227   4.381   9.447  0.1811 -0.6733  1.4980
   67CHL1   C13 7390   4.082   4.318   9.601 -1.4206 -0.1020  0.1173
   67CHL1   C18 7391   3.932   4.295   9.609  0.6428 -0.0124 -0.0040
   67CHL1  H18A 7392   3.873   4.389   9.598 -0.3878 -0.4818  1.4920
   67CHL1  H18B 7393   3.905   4.211   9.541  0.0001 -0.5277  0.8903
   67CHL1  H18C 7394   3.904   4.262   9.711  0.4084  0.3796  0.0616
   67CHL1   C12 7395   4.173   4.191   9.639  0.0408 -0.2349 -0.2028
   67CHL1  H12A 7396   4.161   4.102   9.573  1.0715  1.1590 -2.3405
   67CHL1  H12B 7397   4.281   4.217   9.639 -0.3268  1.3735  1.6465
   67CHL1   C11 7398   4.127   4.156   9.783  0.3198 -0.0430  0.0030
   67CHL1  H11A 7399   4.023   4.118   9.777 -0.5199  2.0866  0.7447
   67CHL1  H11B 7400   4.189   4.071   9.820  1.1606  0.0210 -1.2353
   67CHL1    C9 7401   4.151   4.275   9.890 -0.5967  0.9343  0.3104
   67CHL1    H9 7402   4.261   4.293   9.887 -0.3443 -0.6261  0.0532
   67CHL1   C10 7403   4.111   4.234  10.031 -1.0220 -1.3846  0.5522
   67CHL1   C19 7404   3.965   4.179  10.025  0.0871  0.3598  0.1446
   67CHL1  H19A 7405   3.921   4.151  10.124 -0.4886 -1.2721 -0.5610
   67CHL1  H19B 7406   3.889   4.246   9.982 -1.3134 -0.2896  1.5579
   67CHL1  H19C 7407   3.956   4.080   9.976 -1.8722 -0.6690  2.4572
   67CHL1    C1 7408   4.201   4.116  10.079  0.1267 -0.0754  0.7580
   67CHL1   H1A 7409   4.189   4.021  10.022  1.6365 -0.2177  0.6442
   67CHL1   H1B 7410   4.309   4.141  10.064  0.1232 -0.7338 -0.3810
   67CHL1    C2 7411   4.186   4.076  10.226 -0.0855 -0.2087  0.6660
   67CHL1   H2A 7412   4.251   3.994  10.263 -1.1781 -0.2421  2.5919
   67CHL1   H2B 7413   4.083   4.038  10.244 -0.0460 -0.1114  1.1084
   67CHL1   C20 7414   4.047   4.329   9.333  0.2204  0.0015 -1.1710
   67CHL1   H20 7415   3.939   4.353   9.341  0.3288 -0.0200  0.4036
   67CHL1   C21 7416   4.074   4.184   9.315 -0.0344  0.5741 -0.4121
   67CHL1  H21A 7417   4.182   4.177   9.294 -0.1035 -3.6148  0.0163
   67CHL1  H21B 7418   4.021   4.138   9.229  2.1336 -2.0291 -0.4426
   67CHL1  H21C 7419   4.046   4.131   9.410 -0.4179 -1.7598 -1.7728
   67CHL1   C22 7420   4.093   4.420   9.216 -0.5463  0.2328 -0.2049
   67CHL1  H22A 7421   4.055   4.524   9.224 -0.3485  0.3615 -0.9002
   67CHL1  H22B 7422   4.204   4.424   9.209 -0.5472  0.2162 -0.2334
   67CHL1   C23 7423   4.049   4.356   9.082 -0.7668 -0.5666  0.0698
   67CHL1  H23A 7424   4.107   4.262   9.066 -0.1039 -0.4150  1.5493
   67CHL1  H23B 7425   3.943   4.324   9.091 -0.3547 -1.1668  3.0445
   67CHL1   C24 7426   4.085   4.430   8.957 -0.4005  1.4417  0.0024
   67CHL1  H24A 7427   4.027   4.524   8.949 -0.2862  1.5531  0.4886
   67CHL1  H24B 7428   4.190   4.464   8.953  0.0826 -0.1077 -1.1695
   67CHL1   C25 7429   4.076   4.344   8.834  0.9587 -0.3419  0.6564
   67CHL1   H25 7430   4.117   4.242   8.850  1.1998 -0.2664  0.5247
   67CHL1   C26 7431   3.923   4.335   8.793 -0.1530 -0.2852 -0.0706
   67CHL1  H26A 7432   3.910   4.291   8.691 -1.2921  1.2714 -0.6099
   67CHL1  H26B 7433   3.880   4.280   8.880  1.0988  2.0896  2.1086
   67CHL1  H26C 7434   3.874   4.434   8.797  0.4645  0.0332 -0.3331
   67CHL1   C27 7435   4.154   4.394   8.709 -0.2034  0.0484 -0.0549
   67CHL1  H27A 7436   4.265   4.394   8.710 -0.1683 -1.4613 -1.2632
   67CHL1  H27B 7437   4.134   4.330   8.620  2.0607  0.5844 -0.9722
   67CHL1  H27C 7438   4.133   4.501   8.688 -2.6840 -0.8159 -2.4096
   68CHL1    C3 7439   2.218   4.753  10.417  0.5554  0.5490  0.4635
   68CHL1    H3 7440   2.213   4.861  10.442  2.6961  0.8313 -0.2597
   68CHL1    O3 7441   2.240   4.696  10.544  0.0420 -0.0905 -0.1180
   68CHL1   H3' 7442   2.156   4.670  10.583 -0.1473  1.7287  0.7399
   68CHL1    C4 7443   2.099   4.694  10.349  0.4252  0.4219 -0.6156
   68CHL1   H4A 7444   2.110   4.584  10.348 -2.7205 -0.0286  2.7644
   68CHL1   H4B 7445   2.006   4.707  10.409  0.4155  0.0583 -0.5507
   68CHL1    C5 7446   2.078   4.747  10.208 -0.0653 -0.0944  1.0992
   68CHL1    C6 7447   1.962   4.803  10.166 -0.0331 -1.0288 -0.4312
   68CHL1    H6 7448   1.884   4.819  10.241 -0.9804  1.2463 -1.8306
   68CHL1    C7 7449   1.937   4.862  10.025 -0.5148  0.5449 -0.0193
   68CHL1   H7A 7450   1.846   4.808   9.993  0.0953 -0.8957  0.6006
   68CHL1   H7B 7451   1.921   4.971  10.034  0.8327  1.1673 -4.2465
   68CHL1    C8 7452   2.054   4.824   9.924 -0.4079 -0.0367  0.7727
   68CHL1    H8 7453   2.027   4.723   9.887  1.0542 -0.4624  0.8241
   68CHL1   C14 7454   2.041   4.919   9.805  0.6059  0.0280  0.1988
   68CHL1   H14 7455   2.054   5.019   9.851 -1.3513  0.4063 -0.0207
   68CHL1   C15 7456   1.910   4.928   9.725 -0.5083 -0.5512  0.4193
   68CHL1  H15A 7457   1.863   4.829   9.712 -0.8262 -0.1606 -1.4635
   68CHL1  H15B 7458   1.843   4.983   9.795 -1.7366  0.4742 -1.5218
   68CHL1   C16 7459   1.945   5.007   9.599  0.8054  0.6517 -1.0645
   68CHL1  H16A 7460   1.908   4.948   9.512 -0.3494 -2.4867  1.4498
   68CHL1  H16B 7461   1.901   5.109   9.607 -0.1400  0.1478  0.4891
   68CHL1   C17 7462   2.101   5.014   9.594 -0.0294  0.2035 -0.5567
   68CHL1   H17 7463   2.137   5.113   9.629  0.1520 -0.2639  0.6035
   68CHL1   C13 7464   2.150   4.911   9.700 -0.1662 -0.2672  0.4485
   68CHL1   C18 7465   2.142   4.771   9.625  0.0328  0.4806  0.1207
   68CHL1  H18A 7466   2.228   4.746   9.560  0.6699  0.6768  0.8793
   68CHL1  H18B 7467   2.150   4.688   9.699 -0.4667  0.3403  0.0226
   68CHL1  H18C 7468   2.061   4.761   9.550 -0.6677 -1.0956  1.0615
   68CHL1   C12 7469   2.293   4.928   9.760 -0.7002 -0.3998  0.5813
   68CHL1  H12A 7470   2.371   4.905   9.684 -0.3851  0.3835  0.6639
   68CHL1  H12B 7471   2.299   5.036   9.785 -0.8947 -0.1643 -0.3627
   68CHL1   C11 7472   2.307   4.834   9.885 -0.3307 -0.2348  0.4290
   68CHL1  H11A 7473   2.306   4.731   9.844  0.1492  0.5456 -1.6032
   68CHL1  H11B 7474   2.399   4.862   9.941 -0.5713  0.4698  0.4753
   68CHL1    C9 7475   2.189   4.840   9.993  0.6717 -0.0216  0.7316
   68CHL1    H9 7476   2.192   4.944  10.032  0.1374  1.0967 -2.1083
   68CHL1   C10 7477   2.206   4.746  10.118 -0.2100  0.6278 -0.7444
   68CHL1   C19 7478   2.231   4.594  10.077  0.2052 -0.5130  0.4100
   68CHL1  H19A 7479   2.134   4.558  10.035 -0.5772  1.9062  0.0567
   68CHL1  H19B 7480   2.309   4.588   9.998 -1.4264 -0.5069 -1.2495
   68CHL1  H19C 7481   2.266   4.529  10.159  1.1923  1.9538  1.9882
   68CHL1    C1 7482   2.327   4.795  10.201  0.1007  0.1691  0.5039
   68CHL1   H1A 7483   2.423   4.775  10.148  0.7640  0.1933  1.6689
   68CHL1   H1B 7484   2.311   4.904  10.214  1.1943  0.3744  0.2060
   68CHL1    C2 7485   2.347   4.731  10.335  0.2542 -0.5134  0.7186
   68CHL1   H2A 7486   2.429   4.781  10.391  0.5004 -1.2291  1.0064
   68CHL1   H2B 7487   2.363   4.624  10.311  1.4537  0.1724 -1.6810
   68CHL1   C20 7488   2.157   5.015   9.452 -0.3286 -0.2156 -0.0312
   68CHL1   H20 7489   2.106   4.925   9.411  2.7242 -1.0820 -2.0871
   68CHL1   C21 7490   2.308   4.990   9.450 -0.0503 -0.2303  0.1500
   68CHL1  H21A 7491   2.348   5.062   9.524 -1.6720 -0.3579  1.1904
   68CHL1  H21B 7492   2.353   5.028   9.356  0.1138  1.2453  0.8128
   68CHL1  H21C 7493   2.339   4.886   9.475 -1.7859 -0.5040  1.2849
   68CHL1   C22 7494   2.119   5.143   9.364 -0.3744 -0.6556  0.9875
   68CHL1  H22A 7495   2.036   5.201   9.409 -0.8299 -0.3204 -0.2757
   68CHL1  H22B 7496   2.209   5.209   9.365 -1.3200  0.6361  1.2375
   68CHL1   C23 7497   2.093   5.110   9.212  0.4880 -0.4661  0.8462
   68CHL1  H23A 7498   2.177   5.053   9.168 -1.0633 -0.6029 -2.0423
   68CHL1  H23B 7499   2.000   5.050   9.217 -0.1484  0.3434 -1.0060
   68CHL1   C24 7500   2.082   5.246   9.134 -0.4950 -0.0014  0.3296
   68CHL1  H24A 7501   2.019   5.316   9.194  0.0545  4.0313 -3.5703
   68CHL1  H24B 7502   2.178   5.301   9.128  0.9592 -2.1198  2.9274
   68CHL1   C25 7503   2.027   5.233   8.987 -0.7140  0.6089 -0.2228
   68CHL1   H25 7504   1.938   5.166   8.989  1.1878 -2.0073  1.8574
   68CHL1   C26 7505   1.985   5.366   8.933  0.3984 -0.1902 -0.1032
   68CHL1  H26A 7506   1.964   5.366   8.824 -0.0612 -0.4138 -0.0156
   68CHL1  H26B 7507   1.897   5.404   8.990  0.4909  0.3979 -0.3480
   68CHL1  H26C 7508   2.060   5.444   8.960  1.3534 -1.4240  0.8676
   68CHL1   C27 7509   2.123   5.169   8.884  0.1219 -0.2629 -0.0534
   68CHL1  H27A 7510   2.194   5.247   8.851 -1.0556  0.3594 -1.1840
   68CHL1  H27B 7511   2.186   5.094   8.936 -0.4216  0.4442  1.6598
   68CHL1  H27C 7512   2.068   5.137   8.792  0.5305  1.4601 -0.9091
   69CHL1    C3 7513   0.770   2.740   6.692  0.0782  0.1791  0.5890
   69CHL1    H3 7514   0.820   2.838   6.682 -0.5639  0.4308 -0.2635
   69CHL1    O3 7515   0.739   2.694   6.562  0.3612  0.3408 -0.2633
   69CHL1   H3' 7516   0.749   2.599   6.560 -0.6388  0.2369 -0.7015
   69CHL1    C4 7517   0.864   2.638   6.769  0.6591 -0.6952 -0.3662
   69CHL1   H4A 7518   0.831   2.537   6.739 -1.9848 -0.7526  2.5367
   69CHL1   H4B 7519   0.967   2.647   6.727  0.6652  0.7260 -0.0840
   69CHL1    C5 7520   0.873   2.655   6.921  0.5247  0.0296  0.1851
   69CHL1    C6 7521   0.992   2.669   6.980  0.2192 -0.1519 -0.1998
   69CHL1    H6 7522   1.084   2.661   6.919  0.1358  2.1672 -0.6682
   69CHL1    C7 7523   0.998   2.674   7.133  0.1876 -0.5240 -0.4331
   69CHL1   H7A 7524   1.080   2.607   7.166 -0.2257  0.0688  1.8685
   69CHL1   H7B 7525   1.018   2.768   7.189 -0.6744 -0.3628 -0.3782
   69CHL1    C8 7526   0.872   2.622   7.206  0.4699 -0.7021 -0.1691
   69CHL1    H8 7527   0.862   2.514   7.183  1.7711 -0.6220 -1.1528
   69CHL1   C14 7528   0.882   2.643   7.363  0.6634  0.3325 -0.5450
   69CHL1   H14 7529   0.887   2.753   7.376  0.2843  0.1618  1.1276
   69CHL1   C15 7530   1.000   2.583   7.437 -0.1017 -0.2214  0.2032
   69CHL1  H15A 7531   1.026   2.480   7.405 -1.1869 -0.3818 -0.1813
   69CHL1  H15B 7532   1.081   2.658   7.424 -0.6396  0.0486 -1.7225
   69CHL1   C16 7533   0.947   2.571   7.580 -0.9018 -0.8095 -0.8433
   69CHL1  H16A 7534   0.975   2.470   7.616 -1.1125 -0.2801  0.8912
   69CHL1  H16B 7535   1.000   2.644   7.646 -1.9416 -0.9087  0.1246
   69CHL1   C17 7536   0.800   2.602   7.581 -0.1295 -0.1744  0.4282
   69CHL1   H17 7537   0.795   2.710   7.606 -0.6445 -0.0440 -0.2404
   69CHL1   C13 7538   0.759   2.589   7.436  0.2754 -0.0140  0.0260
   69CHL1   C18 7539   0.720   2.447   7.405 -0.3885 -0.1824 -0.8909
   69CHL1  H18A 7540   0.812   2.395   7.437 -0.9826 -1.2432 -0.8517
   69CHL1  H18B 7541   0.627   2.418   7.459 -1.9030  2.1177 -2.1285
   69CHL1  H18C 7542   0.711   2.422   7.297 -1.7086  0.2099 -0.8849
   69CHL1   C12 7543   0.647   2.680   7.385 -1.2326 -0.2877 -0.5268
   69CHL1  H12A 7544   0.548   2.660   7.431 -0.6078 -0.3626  0.7931
   69CHL1  H12B 7545   0.676   2.785   7.406  1.9509 -1.2598  0.1387
   69CHL1   C11 7546   0.624   2.678   7.234 -0.0809 -0.3344  0.3351
   69CHL1  H11A 7547   0.583   2.575   7.231 -0.6487 -0.2104  2.4726
   69CHL1  H11B 7548   0.554   2.759   7.203 -0.0358 -0.0474  0.9640
   69CHL1    C9 7549   0.749   2.698   7.150  0.1037  0.3018  0.0126
   69CHL1    H9 7550   0.774   2.807   7.151  0.9822  0.1408 -1.9127
   69CHL1   C10 7551   0.732   2.670   6.994  0.8453 -0.6121  0.0763
   69CHL1   C19 7552   0.654   2.530   6.978 -0.8476  0.6161  0.3202
   69CHL1  H19A 7553   0.654   2.493   6.874  0.8536  2.3156 -0.3024
   69CHL1  H19B 7554   0.689   2.461   7.058  0.1848 -0.5848 -1.1559
   69CHL1  H19C 7555   0.550   2.563   7.000 -0.9870 -0.4583  1.3306
   69CHL1    C1 7556   0.649   2.778   6.918  0.2732 -0.2331  0.7347
   69CHL1   H1A 7557   0.554   2.801   6.970 -0.3991 -1.2331 -0.0300
   69CHL1   H1B 7558   0.718   2.865   6.923 -1.4971  1.3794 -1.8820
   69CHL1    C2 7559   0.639   2.755   6.765 -0.0068  0.4286  0.0353
   69CHL1   H2A 7560   0.585   2.844   6.726 -1.2223 -0.6562 -0.8384
   69CHL1   H2B 7561   0.577   2.665   6.745  2.2793 -1.2094  0.1195
   69CHL1   C20 7562   0.724   2.530   7.696  0.0125 -0.2011 -0.1360
   69CHL1   H20 7563   0.741   2.422   7.678  0.9569 -0.1792  0.5995
   69CHL1   C21 7564   0.574   2.558   7.687  0.2137  0.6938 -0.0122
   69CHL1  H21A 7565   0.515   2.504   7.765  3.1784 -0.9929  1.1706
   69CHL1  H21B 7566   0.525   2.536   7.590 -2.3533 -1.8424  1.7786
   69CHL1  H21C 7567   0.553   2.666   7.700  0.4136  0.7671 -0.2944
   69CHL1   C22 7568   0.788   2.564   7.842  0.4313  0.7244  0.8307
   69CHL1  H22A 7569   0.889   2.521   7.859  0.7292  0.9116 -0.4485
   69CHL1  H22B 7570   0.791   2.674   7.850  0.7273  0.6379  2.1113
   69CHL1   C23 7571   0.715   2.508   7.965  0.1941  0.6386  0.2197
   69CHL1  H23A 7572   0.606   2.525   7.950  0.2992  1.6078  0.5562
   69CHL1  H23B 7573   0.742   2.400   7.969  0.5838  0.7064 -0.5014
   69CHL1   C24 7574   0.758   2.581   8.087 -0.6495  1.1195 -0.1232
   69CHL1  H24A 7575   0.862   2.616   8.073 -1.0100  1.6692 -1.5820
   69CHL1  H24B 7576   0.698   2.674   8.098 -4.4011 -1.2017  0.1126
   69CHL1   C25 7577   0.735   2.510   8.219  0.1237  0.5260 -0.8470
   69CHL1   H25 7578   0.787   2.413   8.206  1.6693  0.6740  3.4722
   69CHL1   C26 7579   0.821   2.577   8.333  0.6213 -0.4962  0.3982
   69CHL1  H26A 7580   0.778   2.679   8.345  1.0871  0.0204 -1.9850
   69CHL1  H26B 7581   0.811   2.522   8.428 -2.7515 -0.1906  0.2828
   69CHL1  H26C 7582   0.927   2.583   8.300  0.9741  1.5279  1.7817
   69CHL1   C27 7583   0.600   2.485   8.279 -0.0993 -0.5241  0.0562
   69CHL1  H27A 7584   0.604   2.447   8.383  2.2167 -1.3687 -0.3302
   69CHL1  H27B 7585   0.538   2.576   8.300  1.6544  0.8513 -0.6331
   69CHL1  H27C 7586   0.541   2.411   8.222 -1.3030 -0.7280  1.5219
   70CHL1    C3 7587   0.329   6.206   7.065  0.0195 -0.1464  0.1105
   70CHL1    H3 7588   0.430   6.160   7.064  0.8575  1.5680  1.6903
   70CHL1    O3 7589   0.277   6.244   6.937 -0.2379 -0.0165 -0.7599
   70CHL1   H3' 7590   0.184   6.266   6.950 -0.3492  0.4390 -2.3161
   70CHL1    C4 7591   0.227   6.106   7.130 -0.0819  0.0965 -1.6602
   70CHL1   H4A 7592   0.128   6.155   7.148 -0.1828 -0.9987  1.1039
   70CHL1   H4B 7593   0.206   6.023   7.059 -2.3152 -1.6503  0.9254
   70CHL1    C5 7594   0.283   6.053   7.261 -0.1173 -0.0527  0.2551
   70CHL1    C6 7595   0.308   5.923   7.278  0.8552 -0.3418  0.1570
   70CHL1    H6 7596   0.276   5.847   7.205  0.6750  0.6122 -0.7571
   70CHL1    C7 7597   0.372   5.866   7.402  0.6478  0.0377 -0.0019
   70CHL1   H7A 7598   0.324   5.768   7.422  2.3966 -0.4337  2.0292
   70CHL1   H7B 7599   0.479   5.841   7.389  0.9277  1.1091  0.1964
   70CHL1    C8 7600   0.365   5.962   7.523  0.0449 -0.9063  0.1806
   70CHL1    H8 7601   0.259   5.956   7.556 -1.0485 -1.4142 -3.2755
   70CHL1   C14 7602   0.462   5.920   7.633  0.3246  0.2273 -0.6728
   70CHL1   H14 7603   0.561   5.925   7.583 -0.2145 -0.6535 -1.8762
   70CHL1   C15 7604   0.451   5.768   7.675 -0.2145 -0.4316  0.0659
   70CHL1  H15A 7605   0.342   5.754   7.688 -0.5891  0.8442 -1.5506
   70CHL1  H15B 7606   0.485   5.689   7.603  0.5283  0.0726 -0.1466
   70CHL1   C16 7607   0.523   5.767   7.812  0.1217  0.1591  0.5530
   70CHL1  H16A 7608   0.460   5.731   7.896 -0.2703  0.4410  0.3839
   70CHL1  H16B 7609   0.603   5.690   7.804 -0.9341 -0.9191  0.2991
   70CHL1   C17 7610   0.576   5.907   7.841 -0.6107 -0.2981  0.4076
   70CHL1   H17 7611   0.679   5.918   7.800 -1.3096  0.6807 -1.1356
   70CHL1   C13 7612   0.480   6.000   7.759 -0.2418 -0.4925 -0.4095
   70CHL1   C18 7613   0.340   6.007   7.828 -0.3938  0.2281 -0.3009
   70CHL1  H18A 7614   0.343   6.081   7.910  3.0248  0.9816 -1.0573
   70CHL1  H18B 7615   0.261   6.038   7.756  0.1992 -1.2755 -1.6184
   70CHL1  H18C 7616   0.306   5.908   7.864  1.8293 -0.4905 -0.1359
   70CHL1   C12 7617   0.529   6.142   7.723  0.4943 -0.4170  0.1286
   70CHL1  H12A 7618   0.525   6.208   7.812 -0.0418  1.8111 -1.5155
   70CHL1  H12B 7619   0.635   6.145   7.693  0.4712 -0.0579  0.0868
   70CHL1   C11 7620   0.441   6.200   7.601 -0.1993  0.0388  0.4930
   70CHL1  H11A 7621   0.351   6.231   7.658 -0.5561 -0.2438  0.0885
   70CHL1  H11B 7622   0.485   6.291   7.555 -0.0782 -0.1230  0.2876
   70CHL1    C9 7623   0.402   6.102   7.481  0.0900  0.1732 -0.3373
   70CHL1    H9 7624   0.502   6.086   7.435 -0.1215 -0.0750 -0.7152
   70CHL1   C10 7625   0.324   6.161   7.363 -0.3364  0.3614 -0.9501
   70CHL1   C19 7626   0.200   6.220   7.438  1.0068  0.3441  0.3758
   70CHL1  H19A 7627   0.136   6.269   7.361  3.1795  1.2853 -0.8747
   70CHL1  H19B 7628   0.144   6.146   7.498  0.3222 -1.4957 -2.4348
   70CHL1  H19C 7629   0.223   6.296   7.515  0.1827 -1.5577  2.5546
   70CHL1    C1 7630   0.404   6.278   7.294 -0.7168 -0.7621 -0.5300
   70CHL1   H1A 7631   0.423   6.363   7.363  1.0836  0.5235 -2.5419
   70CHL1   H1B 7632   0.503   6.232   7.272 -0.1234 -0.3196  1.1824
   70CHL1    C2 7633   0.342   6.322   7.166 -0.8047 -0.1273 -0.7469
   70CHL1   H2A 7634   0.400   6.405   7.119 -2.1672 -0.1179 -2.4773
   70CHL1   H2B 7635   0.244   6.372   7.182 -0.2173  0.4166  1.3589
   70CHL1   C20 7636   0.590   5.929   7.991 -0.4515 -0.6397  0.5786
   70CHL1   H20 7637   0.487   5.915   8.032 -0.8647 -3.0205 -1.1808
   70CHL1   C21 7638   0.642   6.076   8.022 -0.2481 -0.7494  0.3112
   70CHL1  H21A 7639   0.716   6.118   7.950  0.3518 -0.8119  0.8859
   70CHL1  H21B 7640   0.670   6.091   8.128  0.2660 -0.5990  0.1537
   70CHL1  H21C 7641   0.552   6.140   8.012 -1.2738 -2.0960  0.7652
   70CHL1   C22 7642   0.678   5.825   8.055  0.1253 -0.4037 -0.6438
   70CHL1  H22A 7643   0.651   5.719   8.036  2.7468 -1.1881 -0.3050
   70CHL1  H22B 7644   0.772   5.853   8.003  1.2312  0.5108  1.7706
   70CHL1   C23 7645   0.701   5.837   8.207  0.2452 -0.6626 -0.3510
   70CHL1  H23A 7646   0.762   5.929   8.220 -0.3772 -0.6088  2.4190
   70CHL1  H23B 7647   0.604   5.878   8.242 -0.0875  0.5402 -2.5603
   70CHL1   C24 7648   0.751   5.716   8.283  0.1272  0.6092 -0.3076
   70CHL1  H24A 7649   0.683   5.630   8.267 -0.0014  0.5045  0.7739
   70CHL1  H24B 7650   0.855   5.695   8.250 -0.0694 -1.5355  0.3479
   70CHL1   C25 7651   0.749   5.736   8.434  0.5149 -0.6483  0.5342
   70CHL1   H25 7652   0.646   5.771   8.459  0.2626  0.1313 -1.5147
   70CHL1   C26 7653   0.779   5.600   8.494  0.3951  0.6148  0.6549
   70CHL1  H26A 7654   0.878   5.569   8.454 -0.8390  0.0641 -2.1245
   70CHL1  H26B 7655   0.795   5.606   8.603 -1.0769 -0.4026  0.9357
   70CHL1  H26C 7656   0.712   5.513   8.477 -0.9201  1.6373  0.5435
   70CHL1   C27 7657   0.851   5.839   8.485 -0.1263  0.9634 -0.0832
   70CHL1  H27A 7658   0.841   5.852   8.595 -2.2658 -0.4383 -0.0733
   70CHL1  H27B 7659   0.957   5.809   8.475 -0.4727  0.1004 -1.2660
   70CHL1  H27C 7660   0.846   5.940   8.440  0.9525  0.9725 -0.1889
   71CHL1    C3 7661   6.454   1.553   6.912 -0.1819  0.1125  0.0351
   71CHL1    H3 7662   6.564   1.541   6.907 -0.1553 -1.5763  3.3032
   71CHL1    O3 7663   6.392   1.577   6.789 -0.6914  0.4726  0.2314
   71CHL1   H3' 7664   6.447   1.645   6.751 -1.1460  0.5633 -0.2676
   71CHL1    C4 7665   6.403   1.419   6.971 -0.4016 -0.0087  0.0204
   71CHL1   H4A 7666   6.294   1.407   6.956 -0.6561  0.1411  1.6705
   71CHL1   H4B 7667   6.451   1.332   6.920 -1.0199 -1.5215  1.9683
   71CHL1    C5 7668   6.451   1.407   7.113  0.5669  0.6577  0.5989
   71CHL1    C6 7669   6.517   1.299   7.152  0.0806  0.7427  0.3824
   71CHL1    H6 7670   6.537   1.218   7.079 -1.5279 -1.1218  1.9404
   71CHL1    C7 7671   6.573   1.268   7.289  0.7897 -0.2202 -0.1357
   71CHL1   H7A 7672   6.542   1.163   7.306 -1.0010  0.4373  0.8193
   71CHL1   H7B 7673   6.684   1.265   7.290  0.7666 -2.1059 -1.3576
   71CHL1    C8 7674   6.511   1.359   7.402  0.2511 -0.3961 -0.4240
   71CHL1    H8 7675   6.415   1.305   7.414  1.0215 -1.8084 -0.5330
   71CHL1   C14 7676   6.592   1.368   7.530  0.3968 -0.1143  0.1628
   71CHL1   H14 7677   6.693   1.399   7.493 -0.0755 -0.1102 -1.1488
   71CHL1   C15 7678   6.622   1.237   7.596 -0.4819 -0.2800  0.4350
   71CHL1  H15A 7679   6.532   1.172   7.592 -0.8258  0.3459 -3.8793
   71CHL1  H15B 7680   6.705   1.192   7.537 -2.5344 -1.7346 -1.4182
   71CHL1   C16 7681   6.661   1.272   7.739  0.3338 -0.5473 -0.0141
   71CHL1  H16A 7682   6.585   1.214   7.795 -1.2139  0.3761 -1.1148
   71CHL1  H16B 7683   6.763   1.241   7.771  0.5451 -1.7030 -1.7083
   71CHL1   C17 7684   6.638   1.425   7.753 -0.0185 -0.3961 -0.4823
   71CHL1   H17 7685   6.732   1.475   7.724 -0.5487  0.9971  0.1315
   71CHL1   C13 7686   6.544   1.461   7.638  0.3137  0.1104 -0.7603
   71CHL1   C18 7687   6.400   1.402   7.676 -0.0784 -0.5426 -0.5082
   71CHL1  H18A 7688   6.401   1.306   7.731 -0.4544 -0.5382 -0.4918
   71CHL1  H18B 7689   6.354   1.484   7.736 -1.3325 -1.7800  0.2654
   71CHL1  H18C 7690   6.331   1.399   7.589  0.0990 -2.2403 -0.6109
   71CHL1   C12 7691   6.550   1.602   7.580  0.1754  0.2410 -1.0233
   71CHL1  H12A 7692   6.511   1.678   7.651  0.6454 -1.0950  0.6785
   71CHL1  H12B 7693   6.655   1.629   7.557  0.2469  0.8699 -0.0119
   71CHL1   C11 7694   6.457   1.611   7.456 -0.1854 -0.3865 -0.3649
   71CHL1  H11A 7695   6.353   1.590   7.489 -2.0290  3.5321 -3.3065
   71CHL1  H11B 7696   6.448   1.710   7.407 -1.2341 -0.6560 -0.7460
   71CHL1    C9 7697   6.499   1.504   7.351 -0.3434  0.3861 -0.2591
   71CHL1    H9 7698   6.604   1.537   7.333 -0.5685 -0.4041 -3.1544
   71CHL1   C10 7699   6.422   1.514   7.213 -1.0017 -0.4311  0.0003
   71CHL1   C19 7700   6.271   1.501   7.238  0.2400 -0.0314 -0.0854
   71CHL1  H19A 7701   6.257   1.410   7.300 -2.8322 -1.1420 -2.2854
   71CHL1  H19B 7702   6.247   1.593   7.295 -2.1094 -0.8298  0.2514
   71CHL1  H19C 7703   6.201   1.514   7.152  1.9776  3.4042 -1.0718
   71CHL1    C1 7704   6.455   1.652   7.151  0.4907  0.3425 -0.1353
   71CHL1   H1A 7705   6.413   1.735   7.211  1.2505 -0.8012  2.0511
   71CHL1   H1B 7706   6.565   1.667   7.140  0.0542  2.1963 -2.1715
   71CHL1    C2 7707   6.404   1.663   7.005  0.4740  0.0324 -0.0794
   71CHL1   H2A 7708   6.433   1.763   6.964  1.6580 -1.0011 -1.8414
   71CHL1   H2B 7709   6.293   1.667   7.007  0.2756 -3.3311 -1.0474
   71CHL1   C20 7710   6.602   1.455   7.899 -0.1030  0.6235  1.2500
   71CHL1   H20 7711   6.514   1.394   7.927 -0.8719  1.6264  1.0578
   71CHL1   C21 7712   6.564   1.611   7.913 -0.1647  0.1490  0.3538
   71CHL1  H21A 7713   6.573   1.648   8.018 -0.9669  1.2124  0.0492
   71CHL1  H21B 7714   6.462   1.611   7.871  1.1162  1.7829 -2.9071
   71CHL1  H21C 7715   6.630   1.679   7.855 -0.3660  2.0821  2.3064
   71CHL1   C22 7716   6.716   1.425   7.992 -0.4061 -0.0570  0.5241
   71CHL1  H22A 7717   6.734   1.316   7.979 -0.7372 -0.0647  0.1085
   71CHL1  H22B 7718   6.809   1.478   7.962 -1.8544  1.8168 -0.8027
   71CHL1   C23 7719   6.682   1.426   8.139  0.2819 -0.7998 -0.4521
   71CHL1  H23A 7720   6.679   1.529   8.180 -0.3594 -0.0503 -2.3148
   71CHL1  H23B 7721   6.578   1.392   8.157  0.0984 -0.3255 -0.6046
   71CHL1   C24 7722   6.787   1.357   8.224  0.4369 -0.3279 -0.3676
   71CHL1  H24A 7723   6.771   1.249   8.203 -0.3523 -0.1376 -0.7721
   71CHL1  H24B 7724   6.889   1.374   8.185 -0.4795 -0.6333 -3.0001
   71CHL1   C25 7725   6.787   1.386   8.377 -0.4414 -0.0515  0.1205
   71CHL1   H25 7726   6.682   1.389   8.412  0.2086  0.6812  2.0786
   71CHL1   C26 7727   6.844   1.271   8.462  0.4362  0.2503  0.0794
   71CHL1  H26A 7728   6.950   1.250   8.433  0.2420  0.2684 -0.6462
   71CHL1  H26B 7729   6.846   1.304   8.568 -1.5849  1.5953 -0.2702
   71CHL1  H26C 7730   6.785   1.179   8.442  0.8242  0.0883 -0.3333
   71CHL1   C27 7731   6.864   1.513   8.421 -1.0194  0.1742 -0.1925
   71CHL1  H27A 7732   6.834   1.600   8.358 -2.0061  0.7712  1.0735
   71CHL1  H27B 7733   6.859   1.546   8.527  0.7098 -0.9210  0.2385
   71CHL1  H27C 7734   6.970   1.507   8.391 -0.5158  3.4836  0.7234
   72CHL1    C3 7735   0.589   0.059   7.126 -0.6497 -0.3265  0.4852
   72CHL1    H3 7736   0.688   0.009   7.141 -1.1445 -0.8893  2.0292
   72CHL1    O3 7737   0.573   0.091   6.987  0.0573  0.1071 -0.0896
   72CHL1   H3' 7738   0.483   0.123   6.978  0.9233  2.2942 -1.4707
   72CHL1    C4 7739   0.479  -0.032   7.182 -0.1308  0.1972  0.3551
   72CHL1   H4A 7740   0.383   0.014   7.152  0.0440 -0.7723 -1.7223
   72CHL1   H4B 7741   0.474  -0.133   7.137  0.6909 -0.6960  2.1777
   72CHL1    C5 7742   0.512  -0.047   7.328 -0.1120 -0.1896 -0.3033
   72CHL1    C6 7743   0.545  -0.164   7.376  0.3816 -0.1780 -0.6421
   72CHL1    H6 7744   0.554  -0.254   7.313  0.3621  0.2092 -1.2037
   72CHL1    C7 7745   0.562  -0.189   7.525  0.1713 -0.5166 -0.2038
   72CHL1   H7A 7746   0.519  -0.288   7.552 -0.0900  0.1546  1.8903
   72CHL1   H7B 7747   0.672  -0.194   7.543 -0.1962  0.5454  2.6063
   72CHL1    C8 7748   0.499  -0.072   7.610 -0.3275  0.5993 -0.5750
   72CHL1    H8 7749   0.389  -0.087   7.612 -0.7968  3.3023 -2.6969
   72CHL1   C14 7750   0.555  -0.089   7.757 -0.2581 -0.0200 -0.5779
   72CHL1   H14 7751   0.666  -0.097   7.749 -0.3077 -1.2971 -0.0787
   72CHL1   C15 7752   0.520  -0.216   7.830 -0.2328  0.0837  0.9058
   72CHL1  H15A 7753   0.414  -0.244   7.813 -0.5117  1.9788 -0.7436
   72CHL1  H15B 7754   0.582  -0.302   7.798 -0.6231 -0.2211  0.9683
   72CHL1   C16 7755   0.566  -0.178   7.975 -0.1414 -0.6576  0.1992
   72CHL1  H16A 7756   0.484  -0.203   8.046  0.7507  2.1858  2.3350
   72CHL1  H16B 7757   0.666  -0.219   7.997 -0.0860 -0.0166  1.1689
   72CHL1   C17 7758   0.586  -0.022   7.988  0.1031 -0.1004 -0.0675
   72CHL1   H17 7759   0.695  -0.001   7.985  0.0980 -0.2462 -1.3234
   72CHL1   C13 7760   0.522   0.021   7.857 -0.1186 -0.6510 -0.3601
   72CHL1   C18 7761   0.367   0.028   7.884 -0.9186 -0.2779 -0.0447
   72CHL1  H18A 7762   0.337  -0.054   7.951 -0.1193 -1.6670 -1.3570
   72CHL1  H18B 7763   0.332   0.116   7.942 -0.0498  0.7320 -1.0267
   72CHL1  H18C 7764   0.301   0.003   7.798 -2.8428 -1.4570  1.7360
   72CHL1   C12 7765   0.577   0.157   7.795  0.1765  0.2572 -0.0276
   72CHL1  H12A 7766   0.557   0.245   7.859 -1.9635 -0.1137 -0.1502
   72CHL1  H12B 7767   0.686   0.137   7.790  0.1897  0.1781  0.5039
   72CHL1   C11 7768   0.516   0.177   7.660 -0.0622 -0.1159 -1.0420
   72CHL1  H11A 7769   0.407   0.191   7.672 -0.2380 -1.8322 -0.5921
   72CHL1  H11B 7770   0.551   0.272   7.613 -1.9420  0.1794 -1.9049
   72CHL1    C9 7771   0.546   0.064   7.555  0.0998  0.7562  0.5871
   72CHL1    H9 7772   0.657   0.067   7.549  0.0095  2.2390 -0.5046
   72CHL1   C10 7773   0.505   0.077   7.411  0.3357 -0.4038  0.4286
   72CHL1   C19 7774   0.365   0.143   7.403 -0.3109  0.0959 -0.3423
   72CHL1  H19A 7775   0.295   0.078   7.459 -0.2534  1.3139  1.1928
   72CHL1  H19B 7776   0.361   0.234   7.466  0.9643  0.1467 -0.3043
   72CHL1  H19C 7777   0.324   0.166   7.303  1.0650 -1.0958 -1.2103
   72CHL1    C1 7778   0.617   0.169   7.352 -0.2851  0.3812  0.1042
   72CHL1   H1A 7779   0.613   0.272   7.394 -2.6749  0.6509 -0.7336
   72CHL1   H1B 7780   0.717   0.126   7.377 -0.5216 -1.2561 -1.6151
   72CHL1    C2 7781   0.599   0.197   7.200 -0.4237 -0.4441  0.7303
   72CHL1   H2A 7782   0.677   0.264   7.160  1.3224 -2.3069  0.9070
   72CHL1   H2B 7783   0.506   0.258   7.195 -1.1502 -1.5868  0.0440
   72CHL1   C20 7784   0.535   0.034   8.122 -0.1895  0.3296  0.7896
   72CHL1   H20 7785   0.427   0.010   8.133  0.3241 -3.5712 -1.7449
   72CHL1   C21 7786   0.554   0.194   8.125  0.1294 -0.2020 -0.4207
   72CHL1  H21A 7787   0.569   0.220   8.232  0.5318 -3.6622  0.4105
   72CHL1  H21B 7788   0.474   0.245   8.068  0.6849 -0.8720 -1.8345
   72CHL1  H21C 7789   0.647   0.220   8.069  1.2181  0.2355  1.5298
   72CHL1   C22 7790   0.603  -0.028   8.244  0.3559  1.1061 -0.9441
   72CHL1  H22A 7791   0.549   0.013   8.332 -0.9553 -1.0786 -0.7190
   72CHL1  H22B 7792   0.575  -0.135   8.243 -0.2403  1.2444  0.1766
   72CHL1   C23 7793   0.754  -0.007   8.266  0.3184 -0.4081  0.2757
   72CHL1  H23A 7794   0.803  -0.032   8.169 -0.6680  2.6282 -1.0575
   72CHL1  H23B 7795   0.776   0.102   8.267 -3.2950  0.3793  2.1483
   72CHL1   C24 7796   0.823  -0.081   8.384 -0.0622 -0.0176  0.0660
   72CHL1  H24A 7797   0.804  -0.030   8.481  0.9868 -0.5612  0.5652
   72CHL1  H24B 7798   0.789  -0.186   8.397 -0.2235 -0.2842 -2.2873
   72CHL1   C25 7799   0.979  -0.073   8.387 -0.5299  0.3350 -0.3360
   72CHL1   H25 7800   1.021  -0.117   8.295 -0.0648 -2.4472  1.1640
   72CHL1   C26 7801   1.036   0.069   8.381  0.3773  1.1198  0.5122
   72CHL1  H26A 7802   1.147   0.065   8.379  0.3742 -0.4937  2.6968
   72CHL1  H26B 7803   1.008   0.124   8.288 -1.1972  1.6090  1.2520
   72CHL1  H26C 7804   1.008   0.143   8.459 -3.3459  1.2456 -0.8415
   72CHL1   C27 7805   1.039  -0.149   8.498 -0.0066 -0.0050  0.7581
   72CHL1  H27A 7806   1.146  -0.128   8.522 -0.6067  2.7543  1.1235
   72CHL1  H27B 7807   0.998  -0.124   8.598 -0.6520 -0.2947  0.5668
   72CHL1  H27C 7808   1.031  -0.259   8.483 -0.5687  0.2141 -0.5881
   73CHL1    C3 7809   6.474   3.157   7.092  0.3138 -0.7611  0.6095
   73CHL1    H3 7810   6.481   3.267   7.103 -1.4655 -0.3659 -1.9534
   73CHL1    O3 7811   6.474   3.136   6.948  0.0856  0.1127 -0.4426
   73CHL1   H3' 7812   6.564   3.150   6.917 -0.0666  0.9984 -0.5030
   73CHL1    C4 7813   6.598   3.085   7.160  0.3311 -0.3038  0.4374
   73CHL1   H4A 7814   6.589   2.975   7.146 -0.8802 -0.6981  3.8613
   73CHL1   H4B 7815   6.693   3.128   7.121  0.6820 -0.4801  1.0989
   73CHL1    C5 7816   6.586   3.115   7.309  0.3196 -0.3791 -0.2747
   73CHL1    C6 7817   6.689   3.183   7.374  0.3120  0.2012 -0.9429
   73CHL1    H6 7818   6.782   3.208   7.321  1.1012  0.9471  0.7640
   73CHL1    C7 7819   6.684   3.226   7.522  0.5205  0.4142  0.8654
   73CHL1   H7A 7820   6.780   3.210   7.576 -0.0426  1.1036  2.0933
   73CHL1   H7B 7821   6.671   3.336   7.529  0.6101  0.4999 -0.1756
   73CHL1    C8 7822   6.573   3.155   7.603 -0.1986  0.4754 -0.2193
   73CHL1    H8 7823   6.602   3.049   7.618 -0.1820  0.2780 -1.5316
   73CHL1   C14 7824   6.547   3.228   7.737 -0.0086 -0.1378  0.0965
   73CHL1   H14 7825   6.505   3.328   7.713 -1.4234 -0.4538  1.2047
   73CHL1   C15 7826   6.659   3.257   7.834  0.7663 -0.0536 -0.2966
   73CHL1  H15A 7827   6.737   3.179   7.838 -1.7878 -2.6196  1.9595
   73CHL1  H15B 7828   6.713   3.348   7.802 -0.8787  1.4428  1.1031
   73CHL1   C16 7829   6.580   3.273   7.962 -0.1877  0.0130 -0.0265
   73CHL1  H16A 7830   6.625   3.195   8.028 -0.4740  0.7524  1.0512
   73CHL1  H16B 7831   6.603   3.369   8.012  0.3351  0.9083 -1.9484
   73CHL1   C17 7832   6.427   3.250   7.944  0.3707 -0.4371  0.5276
   73CHL1   H17 7833   6.374   3.345   7.923 -1.7180 -1.2299  2.0562
   73CHL1   C13 7834   6.425   3.167   7.817  1.1358  0.1177  0.0632
   73CHL1   C18 7835   6.441   3.018   7.856  0.2809  0.1485 -0.4545
   73CHL1  H18A 7836   6.520   3.009   7.934 -1.1794 -1.8958  0.8517
   73CHL1  H18B 7837   6.350   2.966   7.893 -0.0981  0.5431 -0.8326
   73CHL1  H18C 7838   6.469   2.960   7.766 -1.6393 -1.8451  0.2003
   73CHL1   C12 7839   6.308   3.191   7.727  0.4229  0.5275  0.2637
   73CHL1  H12A 7840   6.216   3.155   7.778  0.6156 -0.3716 -0.0097
   73CHL1  H12B 7841   6.284   3.298   7.708  2.1594  0.2295 -4.3293
   73CHL1   C11 7842   6.318   3.109   7.605  0.6070 -0.0625  0.3086
   73CHL1  H11A 7843   6.312   3.002   7.632 -0.9911  0.1228  0.7430
   73CHL1  H11B 7844   6.231   3.127   7.538 -0.0186 -1.0977  0.8346
   73CHL1    C9 7845   6.443   3.146   7.523  0.2124 -1.0274  0.6004
   73CHL1    H9 7846   6.437   3.256   7.505 -1.8231 -1.2410 -0.0562
   73CHL1   C10 7847   6.451   3.083   7.383  0.0371 -0.3808  0.4620
   73CHL1   C19 7848   6.445   2.928   7.397  0.4816  0.2437 -0.7541
   73CHL1  H19A 7849   6.345   2.908   7.441 -1.6021  2.2999 -4.2386
   73CHL1  H19B 7850   6.445   2.878   7.297  1.4578 -1.3239  0.0196
   73CHL1  H19C 7851   6.532   2.889   7.452  0.1086 -0.7428 -0.8595
   73CHL1    C1 7852   6.327   3.135   7.299  0.3413  0.6229  0.4284
   73CHL1   H1A 7853   6.235   3.087   7.341  0.3870  0.3130  0.1734
   73CHL1   H1B 7854   6.306   3.242   7.321 -1.1235  0.4583 -0.0578
   73CHL1    C2 7855   6.339   3.108   7.146  0.4193  0.2193 -0.0077
   73CHL1   H2A 7856   6.265   3.167   7.090  0.0266  0.3419  0.6317
   73CHL1   H2B 7857   6.321   2.999   7.131 -2.9371  0.8558 -0.8519
   73CHL1   C20 7858   6.362   3.201   8.072 -0.2072  0.0944  0.3716
   73CHL1   H20 7859   6.405   3.102   8.097  1.1889  0.4613 -0.5286
   73CHL1   C21 7860   6.204   3.187   8.049  0.7551 -0.1165  0.1367
   73CHL1  H21A 7861   6.149   3.172   8.144 -0.0880  1.1602 -0.1408
   73CHL1  H21B 7862   6.192   3.101   7.980 -2.8353 -1.0583  1.8506
   73CHL1  H21C 7863   6.174   3.282   7.999  0.3088 -0.2129  0.2230
   73CHL1   C22 7864   6.390   3.293   8.196  0.3158 -0.6456  0.1153
   73CHL1  H22A 7865   6.499   3.306   8.210  0.6505 -3.0901 -0.0016
   73CHL1  H22B 7866   6.335   3.388   8.175 -1.8231 -1.8238  0.2203
   73CHL1   C23 7867   6.365   3.227   8.334  1.0349  0.2726 -0.0049
   73CHL1  H23A 7868   6.390   3.307   8.407  0.0490  0.4521  0.1490
   73CHL1  H23B 7869   6.256   3.215   8.354  1.3251 -1.7372  0.4237
   73CHL1   C24 7870   6.434   3.095   8.365 -0.9607  0.8058  0.5924
   73CHL1  H24A 7871   6.395   3.029   8.285  1.2708  1.0340 -0.7318
   73CHL1  H24B 7872   6.542   3.098   8.339 -0.4638  2.0384  2.7230
   73CHL1   C25 7873   6.406   3.048   8.509 -0.0244  0.0561 -0.5666
   73CHL1   H25 7874   6.296   3.053   8.519 -0.0664  0.7936 -1.3168
   73CHL1   C26 7875   6.446   2.896   8.518  0.0292 -0.5438  0.2870
   73CHL1  H26A 7876   6.390   2.848   8.601 -1.0723  0.5959  0.2222
   73CHL1  H26B 7877   6.408   2.840   8.430  0.4669 -0.6757  0.1821
   73CHL1  H26C 7878   6.553   2.871   8.532 -0.0416 -1.4870 -0.8101
   73CHL1   C27 7879   6.471   3.129   8.623  0.6473  0.0952 -0.2208
   73CHL1  H27A 7880   6.430   3.232   8.625 -1.4677 -0.7545  1.6589
   73CHL1  H27B 7881   6.459   3.088   8.725 -2.4184  0.0682 -0.5381
   73CHL1  H27C 7882   6.579   3.148   8.604  1.1721 -1.6088  0.9272
   74CHL1    C3 7883   5.619   1.434   6.917 -0.3489  0.2305  0.1093
   74CHL1    H3 7884   5.529   1.468   6.972 -0.5380 -0.6208  0.3292
   74CHL1    O3 7885   5.585   1.442   6.777 -0.3539 -0.1638 -0.2559
   74CHL1   H3' 7886   5.657   1.399   6.730 -1.6350 -0.5875 -1.8687
   74CHL1    C4 7887   5.749   1.513   6.945  0.3112  0.6240 -0.1211
   74CHL1   H4A 7888   5.836   1.491   6.880 -0.7572 -0.7819 -1.1052
   74CHL1   H4B 7889   5.721   1.615   6.911  0.7484  0.2944 -1.4865
   74CHL1    C5 7890   5.789   1.501   7.090 -1.0615  0.2311 -0.2670
   74CHL1    C6 7891   5.826   1.611   7.153  1.1235 -0.7888 -0.2688
   74CHL1    H6 7892   5.823   1.705   7.095  0.0713  0.4517  1.7004
   74CHL1    C7 7893   5.885   1.604   7.296 -0.0508  0.1555 -0.1068
   74CHL1   H7A 7894   5.981   1.660   7.307 -0.1294  0.2864 -0.0855
   74CHL1   H7B 7895   5.824   1.653   7.374 -0.4419 -0.0797 -0.2646
   74CHL1    C8 7896   5.923   1.461   7.346  0.2985 -0.0801  0.7522
   74CHL1    H8 7897   6.025   1.439   7.306  0.6963  3.5740 -0.4695
   74CHL1   C14 7898   5.929   1.455   7.500 -0.1144 -0.4120 -0.3749
   74CHL1   H14 7899   5.826   1.487   7.527  0.3837 -0.4429  1.6250
   74CHL1   C15 7900   6.028   1.548   7.566 -0.0716 -0.7333 -1.0922
   74CHL1  H15A 7901   6.125   1.543   7.510  0.9467  0.5750  0.5089
   74CHL1  H15B 7902   5.984   1.650   7.559  1.0895 -0.2217 -1.1932
   74CHL1   C16 7903   6.034   1.492   7.708  0.4637 -0.4766 -0.2551
   74CHL1  H16A 7904   6.139   1.475   7.742  1.0404  0.9397 -1.2811
   74CHL1  H16B 7905   5.993   1.568   7.779  0.8642 -0.8044  0.3369
   74CHL1   C17 7906   5.948   1.357   7.711  0.0909 -0.0525 -0.3653
   74CHL1   H17 7907   5.843   1.389   7.729 -0.3490 -0.3054 -2.3504
   74CHL1   C13 7908   5.942   1.317   7.563  0.2703 -0.0922  0.0287
   74CHL1   C18 7909   6.073   1.260   7.525  0.1151 -0.1613  0.1045
   74CHL1  H18A 7910   6.155   1.289   7.595  0.4692  0.0248 -0.3838
   74CHL1  H18B 7911   6.081   1.149   7.532 -0.6982 -0.1325  1.7985
   74CHL1  H18C 7912   6.100   1.286   7.421 -0.0215  1.9885  0.5854
   74CHL1   C12 7913   5.825   1.221   7.512 -0.0395 -0.0142 -0.1449
   74CHL1  H12A 7914   5.846   1.120   7.554  2.3647 -0.1429 -1.6121
   74CHL1  H12B 7915   5.730   1.257   7.557 -1.6641 -3.3116 -0.7973
   74CHL1   C11 7916   5.824   1.218   7.359  0.1228  0.5078 -0.3931
   74CHL1  H11A 7917   5.912   1.162   7.320  0.6933  0.2363  1.2359
   74CHL1  H11B 7918   5.745   1.145   7.333 -1.2863  1.4621  1.1422
   74CHL1    C9 7919   5.812   1.361   7.299  0.1451 -0.5744  0.0957
   74CHL1    H9 7920   5.718   1.403   7.343  1.0838  2.9485 -1.0576
   74CHL1   C10 7921   5.792   1.364   7.145  0.0901 -0.0593  0.8092
   74CHL1   C19 7922   5.921   1.296   7.084  0.7378  0.1170  1.0071
   74CHL1  H19A 7923   5.923   1.191   7.119  1.4865  0.4986  2.1199
   74CHL1  H19B 7924   5.913   1.288   6.973 -0.6987 -0.1034  1.1119
   74CHL1  H19C 7925   6.016   1.347   7.110  1.1017 -0.3138  0.5310
   74CHL1    C1 7926   5.662   1.288   7.112  0.7228 -0.0894 -0.3148
   74CHL1   H1A 7927   5.676   1.184   7.148  0.6124  0.9204  2.8181
   74CHL1   H1B 7928   5.576   1.338   7.163 -1.9511 -5.1474  0.4940
   74CHL1    C2 7929   5.632   1.288   6.961  0.4964  0.1686  0.1960
   74CHL1   H2A 7930   5.538   1.229   6.949  1.0954 -0.3205 -2.2024
   74CHL1   H2B 7931   5.712   1.236   6.905 -0.6029 -1.8787  0.4488
   74CHL1   C20 7932   6.004   1.274   7.825  0.1049  0.0446  0.2265
   74CHL1   H20 7933   6.090   1.220   7.779  0.4828  0.4195  0.4884
   74CHL1   C21 7934   5.910   1.156   7.848  0.2038 -0.2881  0.6684
   74CHL1  H21A 7935   5.887   1.114   7.748 -1.2072 -0.2561  0.9612
   74CHL1  H21B 7936   5.815   1.192   7.894  2.2431  2.3278  2.9510
   74CHL1  H21C 7937   5.968   1.080   7.905  4.2682  0.7331 -1.9084
   74CHL1   C22 7938   6.032   1.349   7.958  0.6314 -0.0955 -0.0456
   74CHL1  H22A 7939   6.058   1.270   8.032 -1.7295 -0.7512  0.1385
   74CHL1  H22B 7940   6.111   1.426   7.956 -0.8640  1.4614 -2.2376
   74CHL1   C23 7941   5.909   1.427   8.006  0.3314  0.0566 -0.8028
   74CHL1  H23A 7942   5.870   1.504   7.936 -6.8655 -0.4908  2.0978
   74CHL1  H23B 7943   5.826   1.354   8.020  0.8889 -0.5884 -0.8652
   74CHL1   C24 7944   5.929   1.499   8.139  0.2477 -0.3645 -0.1859
   74CHL1  H24A 7945   5.981   1.446   8.221  1.5240  3.8549  1.9107
   74CHL1  H24B 7946   6.015   1.567   8.118  1.8165 -1.7293  1.6120
   74CHL1   C25 7947   5.805   1.570   8.197 -0.3915 -0.6991 -0.1692
   74CHL1   H25 7948   5.735   1.487   8.223  0.5711 -0.7414  2.4170
   74CHL1   C26 7949   5.840   1.628   8.338 -0.0483 -0.2431  0.5511
   74CHL1  H26A 7950   5.898   1.563   8.407 -1.5895 -1.6812  0.5248
   74CHL1  H26B 7951   5.900   1.721   8.326 -3.5595  2.0517 -0.0334
   74CHL1  H26C 7952   5.746   1.664   8.386 -0.2205  1.3921 -0.9811
   74CHL1   C27 7953   5.747   1.674   8.100 -0.8888  0.2854  0.2824
   74CHL1  H27A 7954   5.656   1.721   8.142  0.2787  1.1989  1.8534
   74CHL1  H27B 7955   5.826   1.743   8.061 -0.0876 -1.9634 -2.2830
   74CHL1  H27C 7956   5.705   1.635   8.005  0.1446  1.5490 -0.7123
   75CHL1    C3 7957   2.240   3.247   6.714  0.2336 -0.6963 -0.1040
   75CHL1    H3 7958   2.334   3.250   6.773 -0.7146  1.9761  1.3702
   75CHL1    O3 7959   2.265   3.288   6.576 -0.2871  0.2185 -0.1623
   75CHL1   H3' 7960   2.204   3.229   6.531 -0.8888  0.8435 -0.1641
   75CHL1    C4 7961   2.197   3.090   6.705  0.5001  0.4646 -0.1531
   75CHL1   H4A 7962   2.104   3.095   6.645  0.3691  1.4370  0.1110
   75CHL1   H4B 7963   2.279   3.035   6.653  0.6450  0.3225  0.2216
   75CHL1    C5 7964   2.172   3.041   6.847  0.1705  0.1021  0.8956
   75CHL1    C6 7965   2.246   2.943   6.895  0.1046 -0.1098  0.2651
   75CHL1    H6 7966   2.331   2.912   6.832  1.3660  2.7802  0.4913
   75CHL1    C7 7967   2.227   2.874   7.022  0.0422  0.2916  0.3499
   75CHL1   H7A 7968   2.222   2.764   7.013  0.4665  0.5099 -3.0976
   75CHL1   H7B 7969   2.325   2.890   7.070  1.1141 -0.3387 -1.5991
   75CHL1    C8 7970   2.097   2.910   7.093 -0.0581 -0.0792  0.6951
   75CHL1    H8 7971   2.014   2.845   7.057  0.3829  0.3683 -1.1679
   75CHL1   C14 7972   2.110   2.897   7.249  0.2172  0.3521 -0.2050
   75CHL1   H14 7973   2.172   2.976   7.296 -0.3524 -0.1489  1.4136
   75CHL1   C15 7974   2.176   2.763   7.295  0.0041  0.2327 -0.0493
   75CHL1  H15A 7975   2.147   2.679   7.228  1.8218  0.9060 -1.7472
   75CHL1  H15B 7976   2.287   2.772   7.293  0.1315 -0.4046  2.7999
   75CHL1   C16 7977   2.117   2.750   7.437 -0.2844  0.0289  0.4802
   75CHL1  H16A 7978   2.071   2.650   7.448 -0.5354 -0.2415 -2.6213
   75CHL1  H16B 7979   2.204   2.752   7.506 -0.0476  0.1955  0.1771
   75CHL1   C17 7980   2.016   2.862   7.464  0.0232 -0.4262 -0.3820
   75CHL1   H17 7981   2.080   2.942   7.506  0.4844 -1.3617  0.7276
   75CHL1   C13 7982   1.978   2.908   7.322 -0.6021 -0.3772 -0.8365
   75CHL1   C18 7983   1.870   2.813   7.262 -0.4808 -0.2390  0.1248
   75CHL1  H18A 7984   1.834   2.842   7.161  1.4402  0.4640 -0.3763
   75CHL1  H18B 7985   1.906   2.709   7.273  0.7077  0.3605  2.1748
   75CHL1  H18C 7986   1.773   2.812   7.317 -0.2772 -0.0042  0.4892
   75CHL1   C12 7987   1.931   3.051   7.300 -0.5409  0.0964  0.1434
   75CHL1  H12A 7988   1.836   3.057   7.356  0.3411 -3.7950  2.2303
   75CHL1  H12B 7989   2.004   3.124   7.343 -0.5848 -0.8397  1.8656
   75CHL1   C11 7990   1.928   3.092   7.147 -0.3242 -0.2230 -0.2972
   75CHL1  H11A 7991   1.835   3.043   7.111 -0.0811 -0.5136 -0.5318
   75CHL1  H11B 7992   1.907   3.200   7.134 -0.6060 -0.4271 -1.6225
   75CHL1    C9 7993   2.054   3.059   7.068  0.5741 -0.1262  0.0070
   75CHL1    H9 7994   2.137   3.120   7.110  0.6150  0.3607 -0.7655
   75CHL1   C10 7995   2.058   3.110   6.925  0.2858  0.2609 -0.3573
   75CHL1   C19 7996   1.926   3.075   6.862 -0.0364 -0.8839  0.5047
   75CHL1  H19A 7997   1.839   3.131   6.901  0.7199  0.9676 -0.3938
   75CHL1  H19B 7998   1.918   3.084   6.752 -0.6673  1.2129  0.7082
   75CHL1  H19C 7999   1.909   2.966   6.872 -0.6724 -1.0121 -1.8503
   75CHL1    C1 8000   2.087   3.260   6.920  0.5813  0.4899  1.0120
   75CHL1   H1A 8001   2.004   3.323   6.958 -0.8441  0.1907 -1.5134
   75CHL1   H1B 8002   2.169   3.299   6.984  0.7461  0.4828  0.8087
   75CHL1    C2 8003   2.128   3.321   6.781  0.4321 -0.0041 -0.2036
   75CHL1   H2A 8004   2.168   3.424   6.796  1.2844 -0.6140  2.0011
   75CHL1   H2B 8005   2.045   3.332   6.708 -1.4322 -1.5475  1.6133
   75CHL1   C20 8006   1.910   2.811   7.563  0.6990 -0.0171 -0.1718
   75CHL1   H20 8007   1.862   2.723   7.515  0.8684 -0.0423 -0.2947
   75CHL1   C21 8008   1.802   2.924   7.584 -0.1730  0.1852  0.3834
   75CHL1  H21A 8009   1.742   2.943   7.492 -0.1383  1.8190  0.6755
   75CHL1  H21B 8010   1.866   3.013   7.601  1.6339 -0.7494 -1.2759
   75CHL1  H21C 8011   1.735   2.911   7.672 -0.4725  0.4012  0.1868
   75CHL1   C22 8012   1.967   2.777   7.706  1.2222 -0.1195  0.4667
   75CHL1  H22A 8013   1.880   2.734   7.760 -2.0267  1.4349 -3.2806
   75CHL1  H22B 8014   2.041   2.696   7.690  1.5104  0.4566 -1.1372
   75CHL1   C23 8015   2.030   2.878   7.789 -0.0698  0.0857 -0.1185
   75CHL1  H23A 8016   2.098   2.937   7.724  0.4141  1.1642  1.3239
   75CHL1  H23B 8017   1.957   2.954   7.825  0.2245  0.7942 -0.9980
   75CHL1   C24 8018   2.108   2.820   7.915 -0.5928 -0.4509 -0.3972
   75CHL1  H24A 8019   2.033   2.764   7.974 -1.8176  0.8232 -0.7204
   75CHL1  H24B 8020   2.193   2.758   7.877  0.0361  0.3572 -0.3164
   75CHL1   C25 8021   2.174   2.930   8.008  0.4786 -0.1063 -0.2061
   75CHL1   H25 8022   2.252   2.982   7.948  0.7933 -0.6850 -0.2992
   75CHL1   C26 8023   2.063   3.030   8.060  0.1772  0.0439 -0.0864
   75CHL1  H26A 8024   2.013   3.086   7.977 -2.9028 -0.6231  1.2489
   75CHL1  H26B 8025   1.986   2.970   8.112 -0.3464  1.6920  1.0729
   75CHL1  H26C 8026   2.106   3.092   8.141 -0.9447 -0.3054  0.7861
   75CHL1   C27 8027   2.240   2.861   8.130 -0.0308  0.0399  0.5104
   75CHL1  H27A 8028   2.299   2.930   8.195 -0.7953 -0.0902  1.3496
   75CHL1  H27B 8029   2.154   2.833   8.195  1.1090 -2.5148  0.9605
   75CHL1  H27C 8030   2.296   2.771   8.096 -1.6286 -0.1836 -1.6414
   76CHL1    C3 8031   6.492   5.366   7.349  0.1043 -0.1114 -0.2235
   76CHL1    H3 8032   6.492   5.467   7.393  0.6168 -0.2469  0.0809
   76CHL1    O3 8033   6.478   5.380   7.210  0.0625  0.4784 -0.2727
   76CHL1   H3' 8034   6.502   5.294   7.174 -0.3309 -0.1681  0.9769
   76CHL1    C4 8035   6.611   5.276   7.379  0.5694 -0.4297 -0.0089
   76CHL1   H4A 8036   6.603   5.179   7.326 -1.0945 -1.8914  2.8059
   76CHL1   H4B 8037   6.698   5.313   7.321 -0.2354 -0.2923 -1.1408
   76CHL1    C5 8038   6.630   5.241   7.522  0.5033  0.4080  0.5338
   76CHL1    C6 8039   6.739   5.286   7.587 -0.0134 -0.1779  0.6067
   76CHL1    H6 8040   6.825   5.327   7.531 -1.1656 -1.0417 -1.9055
   76CHL1    C7 8041   6.772   5.257   7.731 -0.4730 -0.4324  0.2428
   76CHL1   H7A 8042   6.874   5.216   7.748 -0.1564  0.4502  0.4681
   76CHL1   H7B 8043   6.767   5.349   7.792  0.3291 -1.6399  2.1892
   76CHL1    C8 8044   6.680   5.151   7.792  0.0386  0.6736 -0.0608
   76CHL1    H8 8045   6.718   5.056   7.748 -2.1845 -0.5251  0.5597
   76CHL1   C14 8046   6.694   5.143   7.942  0.4546  0.2428  0.0886
   76CHL1   H14 8047   6.653   5.240   7.977 -1.7553 -0.3361 -0.8308
   76CHL1   C15 8048   6.830   5.136   7.999 -0.6918  0.0745 -0.0726
   76CHL1  H15A 8049   6.898   5.061   7.951 -2.2946 -0.8965 -0.8645
   76CHL1  H15B 8050   6.889   5.230   8.007 -0.2291 -0.2421  0.2804
   76CHL1   C16 8051   6.807   5.097   8.145 -0.3975  0.0267  0.8207
   76CHL1  H16A 8052   6.862   5.003   8.165 -1.0473 -0.7928 -1.1261
   76CHL1  H16B 8053   6.841   5.183   8.207  3.9352 -0.6603 -0.5047
   76CHL1   C17 8054   6.651   5.071   8.155  0.2117 -1.0023 -0.8380
   76CHL1   H17 8055   6.614   5.172   8.179 -0.1583 -1.7778  1.9882
   76CHL1   C13 8056   6.605   5.037   8.010 -0.3386  0.3293 -0.0864
   76CHL1   C18 8057   6.650   4.892   7.972  0.1705  0.7041  0.3308
   76CHL1  H18A 8058   6.757   4.875   7.999  0.5406  1.6841 -0.4786
   76CHL1  H18B 8059   6.588   4.823   8.033  1.9180 -0.7323  0.5391
   76CHL1  H18C 8060   6.636   4.867   7.865 -1.3038 -0.5192  0.7983
   76CHL1   C12 8061   6.460   5.066   7.968  0.3319  0.5196  0.0784
   76CHL1  H12A 8062   6.394   4.997   8.026 -1.4353 -0.6854 -3.1843
   76CHL1  H12B 8063   6.433   5.167   8.006 -1.1368 -0.2436  1.1511
   76CHL1   C11 8064   6.438   5.076   7.817 -0.3590 -0.8526 -0.1302
   76CHL1  H11A 8065   6.453   4.973   7.778 -0.1055 -0.8610 -0.0070
   76CHL1  H11B 8066   6.335   5.117   7.802  0.0821  0.4635  0.3641
   76CHL1    C9 8067   6.535   5.175   7.752  0.1201 -0.2308  0.4480
   76CHL1    H9 8068   6.512   5.275   7.794  1.3092  0.9678 -1.6175
   76CHL1   C10 8069   6.514   5.169   7.593  0.0387  0.2895 -0.1051
   76CHL1   C19 8070   6.520   5.027   7.545  0.3636 -0.4597 -0.0665
   76CHL1  H19A 8071   6.538   5.016   7.436  0.3010 -0.5946 -0.0637
   76CHL1  H19B 8072   6.601   4.965   7.591  0.2779 -0.3055  0.2947
   76CHL1  H19C 8073   6.430   4.963   7.556  1.8717 -2.8778 -1.1994
   76CHL1    C1 8074   6.379   5.230   7.551  0.9699 -0.5213 -0.0389
   76CHL1   H1A 8075   6.298   5.158   7.573  0.2134  0.3123 -0.0685
   76CHL1   H1B 8076   6.357   5.320   7.611  0.1910 -0.3676 -0.5379
   76CHL1    C2 8077   6.368   5.281   7.398 -0.5451 -0.4916 -0.2692
   76CHL1   H2A 8078   6.281   5.350   7.391 -0.4136 -0.3729 -0.7306
   76CHL1   H2B 8079   6.351   5.198   7.325 -0.4864 -0.6731 -0.0772
   76CHL1   C20 8080   6.611   4.971   8.268 -0.2756 -0.1053  0.0105
   76CHL1   H20 8081   6.647   4.870   8.240 -2.5744 -1.0251  0.2561
   76CHL1   C21 8082   6.461   4.962   8.297 -0.4868 -0.5206  0.3505
   76CHL1  H21A 8083   6.405   4.910   8.216  0.1964  0.6326 -0.8945
   76CHL1  H21B 8084   6.417   5.064   8.307 -2.8840 -1.5592  0.7171
   76CHL1  H21C 8085   6.446   4.895   8.384  2.1667  0.0976  1.3174
   76CHL1   C22 8086   6.683   5.005   8.397  0.2408 -0.1869 -0.7098
   76CHL1  H22A 8087   6.646   4.934   8.474 -2.6073 -1.1048 -2.8608
   76CHL1  H22B 8088   6.792   4.989   8.380  0.3874  1.9203 -1.9175
   76CHL1   C23 8089   6.661   5.143   8.459 -0.2409 -0.6468 -0.0697
   76CHL1  H23A 8090   6.690   5.212   8.377 -0.2094 -1.2366 -0.5649
   76CHL1  H23B 8091   6.552   5.158   8.478  0.3066  1.0817  1.9146
   76CHL1   C24 8092   6.737   5.172   8.592 -0.6471  0.0299 -0.9500
   76CHL1  H24A 8093   6.727   5.101   8.677 -0.2133 -0.1048 -1.0088
   76CHL1  H24B 8094   6.846   5.173   8.570 -0.4241  0.3254  0.1415
   76CHL1   C25 8095   6.700   5.302   8.664  0.1855 -0.3971 -0.2895
   76CHL1   H25 8096   6.759   5.315   8.757 -0.4250  0.2055  0.0202
   76CHL1   C26 8097   6.728   5.424   8.576  0.3345 -0.2124  0.6301
   76CHL1  H26A 8098   6.726   5.513   8.642  2.7921  0.0509  0.4154
   76CHL1  H26B 8099   6.832   5.423   8.535  0.9136  1.5102  1.9811
   76CHL1  H26C 8100   6.666   5.438   8.485 -0.0081  0.6357  0.9925
   76CHL1   C27 8101   6.552   5.290   8.699 -0.3417  0.3690 -0.5411
   76CHL1  H27A 8102   6.481   5.321   8.618 -1.7378 -1.4530 -0.0510
   76CHL1  H27B 8103   6.517   5.192   8.738  1.2612 -0.1099 -0.2730
   76CHL1  H27C 8104   6.524   5.367   8.774  1.2127  0.2355  0.1801
   77CHL1    C3 8105   0.630   3.360   6.737 -0.5327  0.5044  0.1133
   77CHL1    H3 8106   0.530   3.313   6.730 -0.5534  0.5412  0.1647
   77CHL1    O3 8107   0.675   3.413   6.614 -0.0404 -0.1194 -0.7833
   77CHL1   H3' 8108   0.770   3.422   6.625 -0.2724  2.2415 -0.4660
   77CHL1    C4 8109   0.619   3.482   6.827 -0.3086  0.1242  0.7204
   77CHL1   H4A 8110   0.713   3.541   6.821 -1.4462  1.8082 -1.2001
   77CHL1   H4B 8111   0.538   3.551   6.794 -0.9638 -0.9177  0.1399
   77CHL1    C5 8112   0.571   3.424   6.962  0.7285  0.0593  0.1687
   77CHL1    C6 8113   0.452   3.457   7.019  0.1832  0.3911  0.7801
   77CHL1    H6 8114   0.395   3.537   6.970 -0.6565  1.0885  2.8541
   77CHL1    C7 8115   0.394   3.413   7.157 -0.6191 -0.5563  0.3478
   77CHL1   H7A 8116   0.361   3.505   7.210 -1.1930 -0.9878  0.7495
   77CHL1   H7B 8117   0.304   3.352   7.134 -3.7057  3.9554 -0.1191
   77CHL1    C8 8118   0.496   3.329   7.235 -0.3743  0.7626 -0.6983
   77CHL1    H8 8119   0.564   3.404   7.281 -0.3532 -0.8644  2.0571
   77CHL1   C14 8120   0.432   3.251   7.338 -0.4164  0.5162  0.0803
   77CHL1   H14 8121   0.370   3.181   7.277  1.1319  1.4966 -2.6821
   77CHL1   C15 8122   0.328   3.331   7.426 -1.2946 -0.2729 -0.5032
   77CHL1  H15A 8123   0.371   3.426   7.463 -2.8034 -0.0388  0.6633
   77CHL1  H15B 8124   0.229   3.354   7.381 -1.6976 -0.8363  0.0820
   77CHL1   C16 8125   0.296   3.230   7.532  0.3299  0.5678 -0.1809
   77CHL1  H16A 8126   0.292   3.285   7.629  2.4941  0.4673 -0.0015
   77CHL1  H16B 8127   0.196   3.187   7.512  0.6768  1.2071 -3.4896
   77CHL1   C17 8128   0.397   3.112   7.519 -0.2587 -0.3448 -0.2815
   77CHL1   H17 8129   0.349   3.033   7.457  0.4352 -1.1314  0.1669
   77CHL1   C13 8130   0.521   3.169   7.433 -0.2100  0.0272 -0.3393
   77CHL1   C18 8131   0.615   3.262   7.506  0.1758 -0.2744  0.1069
   77CHL1  H18A 8132   0.627   3.241   7.614 -0.4195  1.2384  0.4766
   77CHL1  H18B 8133   0.715   3.273   7.458 -0.3511 -0.4103 -1.0579
   77CHL1  H18C 8134   0.579   3.367   7.510 -1.9691 -0.8386 -2.3921
   77CHL1   C12 8135   0.595   3.062   7.344  0.2439 -0.2297 -0.4336
   77CHL1  H12A 8136   0.666   3.001   7.404 -1.4049 -2.8053 -1.0452
   77CHL1  H12B 8137   0.518   2.998   7.296 -2.1262  1.6067  0.8799
   77CHL1   C11 8138   0.668   3.132   7.228  0.3725  0.3761  0.1364
   77CHL1  H11A 8139   0.749   3.195   7.270  1.6129 -1.5590  0.7134
   77CHL1  H11B 8140   0.711   3.066   7.150 -0.2024  1.1140 -0.8216
   77CHL1    C9 8141   0.588   3.240   7.149 -0.4945  1.0205  0.1183
   77CHL1    H9 8142   0.517   3.173   7.095  0.0879  1.1657 -0.8461
   77CHL1   C10 8143   0.655   3.313   7.032 -0.3611 -0.0970 -0.4025
   77CHL1   C19 8144   0.786   3.380   7.092 -0.4213  0.2207  1.0144
   77CHL1  H19A 8145   0.866   3.303   7.084 -1.0095 -0.4082  1.0344
   77CHL1  H19B 8146   0.815   3.471   7.037  1.3227 -0.7055  0.3609
   77CHL1  H19C 8147   0.765   3.411   7.197 -0.4136  1.8922  0.5306
   77CHL1    C1 8148   0.694   3.206   6.919  0.0136  0.1220 -0.5275
   77CHL1   H1A 8149   0.775   3.138   6.954 -1.9567 -2.7588 -1.3063
   77CHL1   H1B 8150   0.606   3.140   6.905 -1.1898  2.1717 -3.1922
   77CHL1    C2 8151   0.738   3.262   6.786  0.5000  0.0697 -0.9891
   77CHL1   H2A 8152   0.757   3.185   6.708 -0.8886  0.8341 -2.1078
   77CHL1   H2B 8153   0.825   3.327   6.807 -1.3690  1.7862  1.9847
   77CHL1   C20 8154   0.430   3.045   7.658  0.6091  0.6507 -0.1946
   77CHL1   H20 8155   0.469   3.113   7.737  0.5854 -0.9859  1.2799
   77CHL1   C21 8156   0.531   2.935   7.640 -0.0699 -0.2615  0.1815
   77CHL1  H21A 8157   0.487   2.856   7.575 -0.5532  0.5981 -0.5525
   77CHL1  H21B 8158   0.558   2.883   7.734 -2.1994 -1.2257  0.2886
   77CHL1  H21C 8159   0.621   2.974   7.588 -1.0627  1.3510 -0.3888
   77CHL1   C22 8160   0.301   2.987   7.726  0.1161  0.4500  0.1512
   77CHL1  H22A 8161   0.226   3.068   7.740 -1.4402 -1.0390  0.6414
   77CHL1  H22B 8162   0.254   2.918   7.653  0.8460  0.1036  0.0053
   77CHL1   C23 8163   0.305   2.914   7.862  0.3828 -0.2251 -0.0436
   77CHL1  H23A 8164   0.208   2.865   7.884  0.0342  0.3719 -0.2289
   77CHL1  H23B 8165   0.376   2.829   7.863 -0.7591 -1.1992 -0.1867
   77CHL1   C24 8166   0.337   3.004   7.985  0.6023 -0.2279 -0.1055
   77CHL1  H24A 8167   0.444   3.034   7.994  0.4301  0.0597  1.1946
   77CHL1  H24B 8168   0.278   3.097   7.974  1.1047 -0.0548 -1.3992
   77CHL1   C25 8169   0.311   2.940   8.127 -0.1393 -0.2230 -0.5607
   77CHL1   H25 8170   0.209   2.897   8.118  0.7432 -2.6642  0.6166
   77CHL1   C26 8171   0.402   2.819   8.151 -0.2031 -0.1403 -0.0416
   77CHL1  H26A 8172   0.394   2.794   8.259 -0.7429 -2.7103 -0.6391
   77CHL1  H26B 8173   0.380   2.717   8.112  1.2057 -1.0237  1.3981
   77CHL1  H26C 8174   0.507   2.855   8.144 -0.6351  1.6488  2.1802
   77CHL1   C27 8175   0.307   3.047   8.233  0.4662 -0.1206  0.9961
   77CHL1  H27A 8176   0.304   2.999   8.333  4.7452 -1.4646  0.5641
   77CHL1  H27B 8177   0.399   3.107   8.220  1.3706 -1.8518 -0.9676
   77CHL1  H27C 8178   0.216   3.109   8.221  0.4471  0.2037  2.7253
   78CHL1    C3 8179   2.224   4.866   6.876 -0.4193  0.1940 -0.3891
   78CHL1    H3 8180   2.231   4.975   6.896  3.0540  0.1760 -1.2227
   78CHL1    O3 8181   2.224   4.851   6.734  0.5069  0.5293 -0.1085
   78CHL1   H3' 8182   2.197   4.759   6.722  0.7105  0.6109 -1.2465
   78CHL1    C4 8183   2.350   4.794   6.933  0.4280 -0.3263 -0.1159
   78CHL1   H4A 8184   2.345   4.685   6.912 -1.7894 -0.0577 -1.0958
   78CHL1   H4B 8185   2.442   4.821   6.877 -0.0231  4.0611  1.1150
   78CHL1    C5 8186   2.361   4.819   7.076 -0.0781  1.1256 -0.7056
   78CHL1    C6 8187   2.471   4.879   7.122  0.3903 -0.3305  0.1791
   78CHL1    H6 8188   2.554   4.901   7.053  1.8454 -0.1449  1.9335
   78CHL1    C7 8189   2.497   4.912   7.266  0.4109  0.3176  1.0221
   78CHL1   H7A 8190   2.606   4.900   7.284  0.5904 -0.3422 -0.4311
   78CHL1   H7B 8191   2.479   5.021   7.282 -2.7814  0.0406 -0.2527
   78CHL1    C8 8192   2.400   4.830   7.361 -0.5255  0.1243 -0.2619
   78CHL1    H8 8193   2.416   4.720   7.355 -2.0501 -0.1850  0.9801
   78CHL1   C14 8194   2.417   4.871   7.509 -0.7351 -0.6934  0.5979
   78CHL1   H14 8195   2.399   4.980   7.507  0.4386 -0.5163 -1.2535
   78CHL1   C15 8196   2.553   4.863   7.573  0.4020 -0.1877 -0.4938
   78CHL1  H15A 8197   2.602   4.765   7.559 -0.2952 -0.3733 -1.6866
   78CHL1  H15B 8198   2.607   4.955   7.542 -1.0954  0.9937  0.2804
   78CHL1   C16 8199   2.515   4.865   7.725 -0.5573 -0.4112 -0.0709
   78CHL1  H16A 8200   2.565   4.785   7.784  0.7085 -0.0711 -0.6557
   78CHL1  H16B 8201   2.543   4.958   7.780 -0.8716 -2.2483  3.3463
   78CHL1   C17 8202   2.365   4.852   7.740  0.0570 -0.6062 -0.0423
   78CHL1   H17 8203   2.330   4.957   7.750  0.6010 -0.3403 -0.9001
   78CHL1   C13 8204   2.316   4.801   7.601  0.0286 -0.0536 -0.3036
   78CHL1   C18 8205   2.339   4.643   7.595  0.2987 -0.1232 -0.3845
   78CHL1  H18A 8206   2.312   4.611   7.492  0.2841  0.1788 -0.4765
   78CHL1  H18B 8207   2.445   4.618   7.617  0.4797  0.4443 -0.5965
   78CHL1  H18C 8208   2.276   4.590   7.668  2.0519  0.2418  1.4395
   78CHL1   C12 8209   2.172   4.842   7.553 -0.1187  0.3350 -0.8358
   78CHL1  H12A 8210   2.090   4.798   7.615 -0.2203  1.4604 -0.1668
   78CHL1  H12B 8211   2.161   4.951   7.569 -0.0718 -0.1941  3.4356
   78CHL1   C11 8212   2.146   4.800   7.411 -0.0198 -0.5732 -0.3682
   78CHL1  H11A 8213   2.131   4.690   7.407 -4.4488 -0.1304  0.8252
   78CHL1  H11B 8214   2.046   4.841   7.384 -0.3257 -0.9345  0.2162
   78CHL1    C9 8215   2.257   4.844   7.313 -0.7859  0.9694 -0.1800
   78CHL1    H9 8216   2.259   4.955   7.319  3.7402  1.0593 -1.0863
   78CHL1   C10 8217   2.241   4.785   7.170 -0.4017  0.4958  0.5493
   78CHL1   C19 8218   2.237   4.632   7.175 -0.3176  0.1936 -0.4083
   78CHL1  H19A 8219   2.219   4.583   7.077 -2.4810 -1.0125  0.5548
   78CHL1  H19B 8220   2.323   4.584   7.227  0.4938 -0.3399 -2.1945
   78CHL1  H19C 8221   2.152   4.600   7.238  1.3322  0.4953  2.0425
   78CHL1    C1 8222   2.112   4.838   7.093 -0.2498  0.0677 -0.1057
   78CHL1   H1A 8223   2.024   4.787   7.139  0.1652  0.8267  1.5622
   78CHL1   H1B 8224   2.101   4.946   7.115  0.9048 -0.5018  3.5680
   78CHL1    C2 8225   2.102   4.811   6.939  0.4571  0.0322 -0.7628
   78CHL1   H2A 8226   2.005   4.854   6.907 -1.9741 -3.5795  1.3344
   78CHL1   H2B 8227   2.086   4.705   6.909 -0.6834  0.3817 -1.4370
   78CHL1   C20 8228   2.323   4.764   7.871 -0.4833  0.2709  0.5528
   78CHL1   H20 8229   2.375   4.666   7.868  0.3395  0.6505  2.3193
   78CHL1   C21 8230   2.170   4.737   7.876  0.5866 -0.5538 -0.4254
   78CHL1  H21A 8231   2.109   4.826   7.901  3.0723  0.5211  2.0696
   78CHL1  H21B 8232   2.150   4.671   7.963 -0.0276 -0.5213 -0.5405
   78CHL1  H21C 8233   2.132   4.684   7.786 -2.6568  2.0323 -0.6694
   78CHL1   C22 8234   2.381   4.827   7.996 -0.4815 -1.0337 -0.1078
   78CHL1  H22A 8235   2.485   4.862   7.976 -1.7991  0.5763 -4.7399
   78CHL1  H22B 8236   2.322   4.919   8.015  1.4440  0.5743 -1.7678
   78CHL1   C23 8237   2.388   4.736   8.122  0.5583 -0.0921  0.2559
   78CHL1  H23A 8238   2.287   4.721   8.164  0.9613  3.1819  2.5514
   78CHL1  H23B 8239   2.422   4.636   8.085 -0.4224 -0.5045  0.4524
   78CHL1   C24 8240   2.467   4.789   8.237  0.6602 -0.0023  0.0793
   78CHL1  H24A 8241   2.572   4.805   8.205  1.1117 -2.7585  0.0518
   78CHL1  H24B 8242   2.420   4.886   8.266 -2.4933 -1.7978  1.2694
   78CHL1   C25 8243   2.472   4.710   8.363 -0.2068 -0.0876  0.0898
   78CHL1   H25 8244   2.518   4.775   8.441  1.1512 -0.1998 -0.6084
   78CHL1   C26 8245   2.341   4.652   8.411  0.6111 -0.6751  0.2330
   78CHL1  H26A 8246   2.272   4.732   8.444 -0.7548 -1.6377 -0.2074
   78CHL1  H26B 8247   2.291   4.595   8.329 -2.1332 -0.9266  2.0150
   78CHL1  H26C 8248   2.346   4.581   8.496  1.2283 -0.8123  0.0826
   78CHL1   C27 8249   2.574   4.594   8.349  0.7191 -0.4461 -0.3425
   78CHL1  H27A 8250   2.532   4.516   8.283 -2.8877  0.6112  0.5917
   78CHL1  H27B 8251   2.661   4.622   8.285 -0.7581  1.2374 -1.6767
   78CHL1  H27C 8252   2.599   4.549   8.447 -1.9742  2.1607  1.6225
   79CHL1    C3 8253   0.766   4.726   7.315 -0.8106  0.8527 -0.0408
   79CHL1    H3 8254   0.834   4.639   7.325  0.1099  1.6828  1.0803
   79CHL1    O3 8255   0.749   4.754   7.181  0.0015 -0.1612  0.0223
   79CHL1   H3' 8256   0.701   4.675   7.155 -0.4261 -0.5269  1.8557
   79CHL1    C4 8257   0.633   4.687   7.380  0.3100 -0.4983  0.2642
   79CHL1   H4A 8258   0.570   4.777   7.364 -0.8906 -1.1703  1.1318
   79CHL1   H4B 8259   0.586   4.601   7.327  0.4981  0.9210 -2.2942
   79CHL1    C5 8260   0.650   4.663   7.527 -0.1494 -0.2059  0.4118
   79CHL1    C6 8261   0.615   4.547   7.588 -0.1146  0.1689 -0.1115
   79CHL1    H6 8262   0.562   4.467   7.535 -0.9989 -0.3207  1.4832
   79CHL1    C7 8263   0.629   4.513   7.729 -0.4029 -1.0632  0.4090
   79CHL1   H7A 8264   0.537   4.458   7.759  0.5700 -2.4462  0.8843
   79CHL1   H7B 8265   0.713   4.442   7.745 -0.1307 -0.5614  1.2671
   79CHL1    C8 8266   0.642   4.638   7.813 -0.1807  0.2416 -0.2968
   79CHL1    H8 8267   0.552   4.703   7.807 -0.9612 -0.6928  0.9450
   79CHL1   C14 8268   0.674   4.601   7.954 -0.4520  0.9400 -0.2891
   79CHL1   H14 8269   0.778   4.562   7.958 -1.5235 -1.9097  1.5652
   79CHL1   C15 8270   0.582   4.502   8.023  0.5533 -0.2777 -0.2594
   79CHL1  H15A 8271   0.478   4.532   7.999  1.2979  1.4092 -1.4525
   79CHL1  H15B 8272   0.601   4.399   7.985 -0.9195 -0.7101  0.1536
   79CHL1   C16 8273   0.606   4.522   8.174 -0.9946  0.0899 -0.0917
   79CHL1  H16A 8274   0.507   4.541   8.222 -0.3428  0.0609  1.2929
   79CHL1  H16B 8275   0.661   4.439   8.224 -2.0493 -0.0950  0.7780
   79CHL1   C17 8276   0.715   4.640   8.181  0.1678  0.4581 -0.4194
   79CHL1   H17 8277   0.811   4.591   8.151 -0.7019 -0.7673 -1.2242
   79CHL1   C13 8278   0.688   4.717   8.052  0.7423 -0.5512 -0.4006
   79CHL1   C18 8279   0.559   4.799   8.060  1.0031 -0.1065  0.3136
   79CHL1  H18A 8280   0.573   4.881   8.134  4.0875 -1.3278  1.1408
   79CHL1  H18B 8281   0.544   4.856   7.966  0.3433 -0.5387  0.1534
   79CHL1  H18C 8282   0.473   4.734   8.085  1.4490 -0.9470 -0.3317
   79CHL1   C12 8283   0.806   4.810   8.004 -0.5862  0.3664  0.1180
   79CHL1  H12A 8284   0.829   4.905   8.056  0.4863  0.2687 -0.1802
   79CHL1  H12B 8285   0.891   4.740   8.019 -1.9790 -1.2847  0.5442
   79CHL1   C11 8286   0.790   4.837   7.853  0.1148  0.7467 -0.3719
   79CHL1  H11A 8287   0.718   4.922   7.849  0.2198  0.9092  0.9896
   79CHL1  H11B 8288   0.883   4.879   7.808  1.4306 -0.6661  0.9597
   79CHL1    C9 8289   0.756   4.725   7.756 -0.0413 -0.2431  0.1304
   79CHL1    H9 8290   0.841   4.654   7.747  0.0220 -0.7327  3.6131
   79CHL1   C10 8291   0.724   4.771   7.611 -0.0583 -0.1509 -0.0741
   79CHL1   C19 8292   0.630   4.900   7.616  0.1229  0.1108 -0.1149
   79CHL1  H19A 8293   0.541   4.877   7.678 -0.1453  1.6243  0.0729
   79CHL1  H19B 8294   0.676   4.989   7.663 -0.1397 -0.3420  1.0394
   79CHL1  H19C 8295   0.606   4.931   7.512  0.9167  1.8385  0.2053
   79CHL1    C1 8296   0.861   4.799   7.539  1.0815 -0.1359 -0.5763
   79CHL1   H1A 8297   0.910   4.885   7.588  0.9042  0.5237 -1.5540
   79CHL1   H1B 8298   0.929   4.715   7.563  1.5914  0.6715  0.8418
   79CHL1    C2 8299   0.845   4.833   7.391 -0.4968  0.3199  0.1573
   79CHL1   H2A 8300   0.943   4.847   7.341 -0.3000 -0.1320  0.4158
   79CHL1   H2B 8301   0.801   4.932   7.368  0.7747  1.0398  0.7736
   79CHL1   C20 8302   0.721   4.707   8.315  0.1794 -0.3987 -0.0492
   79CHL1   H20 8303   0.749   4.813   8.296 -1.2310  0.3367  1.8176
   79CHL1   C21 8304   0.836   4.633   8.391  0.2611  0.6880  0.0029
   79CHL1  H21A 8305   0.928   4.631   8.329  1.8845  2.0621  2.2854
   79CHL1  H21B 8306   0.795   4.533   8.418  0.3020 -0.0283 -2.4957
   79CHL1  H21C 8307   0.854   4.678   8.491  4.4127  0.3525 -0.5173
   79CHL1   C22 8308   0.584   4.714   8.393 -0.0847  0.5020 -0.0016
   79CHL1  H22A 8309   0.487   4.733   8.343  0.4693  1.6580 -0.6531
   79CHL1  H22B 8310   0.563   4.609   8.422  0.4907 -0.4542 -2.9451
   79CHL1   C23 8311   0.594   4.796   8.526  1.0922  0.2639 -0.5776
   79CHL1  H23A 8312   0.660   4.760   8.607  0.0664 -2.2384 -0.8000
   79CHL1  H23B 8313   0.636   4.895   8.496 -1.9127  2.2232  1.2992
   79CHL1   C24 8314   0.455   4.816   8.589  0.3990 -0.3164  0.3840
   79CHL1  H24A 8315   0.463   4.890   8.672  0.0273  1.6428 -1.2760
   79CHL1  H24B 8316   0.381   4.856   8.516  0.0145 -2.1095 -0.2254
   79CHL1   C25 8317   0.399   4.686   8.643 -0.2343 -0.2270  0.3735
   79CHL1   H25 8318   0.384   4.617   8.557 -2.9699  0.4370  0.2790
   79CHL1   C26 8319   0.493   4.608   8.729  0.2063 -0.1803  0.6364
   79CHL1  H26A 8320   0.595   4.584   8.690 -0.2547 -0.5932 -0.3487
   79CHL1  H26B 8321   0.502   4.666   8.823  0.3263 -0.0259  0.5293
   79CHL1  H26C 8322   0.445   4.510   8.752 -0.5505  0.1305  0.3862
   79CHL1   C27 8323   0.262   4.711   8.715  0.3407  0.2265  0.2344
   79CHL1  H27A 8324   0.280   4.739   8.822  0.6420  0.4285  0.1314
   79CHL1  H27B 8325   0.219   4.802   8.669  1.2105 -0.5779 -2.2000
   79CHL1  H27C 8326   0.186   4.631   8.709  2.2001 -1.7088  1.6592
   80CHL1    C3 8327   5.550   2.308   7.158 -0.5992  0.3706 -0.0003
   80CHL1    H3 8328   5.513   2.403   7.204 -0.2040 -0.0957  1.3167
   80CHL1    O3 8329   5.503   2.310   7.026  0.4366  0.0459 -0.1981
   80CHL1   H3' 8330   5.515   2.398   6.991 -1.5033  0.2854 -0.3020
   80CHL1    C4 8331   5.709   2.289   7.169  0.6407 -0.5070  0.2219
   80CHL1   H4A 8332   5.733   2.196   7.114  5.3349  1.6879 -1.7101
   80CHL1   H4B 8333   5.758   2.376   7.120  4.0192 -2.1304  0.6157
   80CHL1    C5 8334   5.760   2.274   7.310  0.0100  0.6829  0.5785
   80CHL1    C6 8335   5.854   2.355   7.358  0.3100 -0.1101  0.1669
   80CHL1    H6 8336   5.889   2.439   7.296 -0.2164  0.1786  0.2560
   80CHL1    C7 8337   5.915   2.341   7.495  0.0688  0.7829 -0.2756
   80CHL1   H7A 8338   6.026   2.330   7.498  0.0368  0.4257 -0.3397
   80CHL1   H7B 8339   5.899   2.432   7.557 -2.8477 -0.6511  1.1784
   80CHL1    C8 8340   5.867   2.214   7.577  0.4003 -1.0279 -0.2735
   80CHL1    H8 8341   5.935   2.132   7.545  3.4808  1.2263  0.2578
   80CHL1   C14 8342   5.886   2.231   7.730 -0.0097 -0.4509 -0.1372
   80CHL1   H14 8343   5.817   2.317   7.748  0.0922 -0.0709 -1.4933
   80CHL1   C15 8344   6.013   2.289   7.787  0.1750  0.5796 -0.2380
   80CHL1  H15A 8345   6.092   2.226   7.741  1.3653 -0.0084  2.4979
   80CHL1  H15B 8346   6.022   2.398   7.764  2.1653  0.4026 -0.4023
   80CHL1   C16 8347   5.998   2.270   7.939  0.1174 -0.1634  0.8731
   80CHL1  H16A 8348   6.084   2.225   7.994  0.3409 -1.0583 -0.1989
   80CHL1  H16B 8349   5.990   2.371   7.985  2.0991 -0.0879  1.1358
   80CHL1   C17 8350   5.868   2.188   7.962 -0.1111 -0.2881 -0.7110
   80CHL1   H17 8351   5.806   2.278   7.981  2.1791  1.5223 -1.6941
   80CHL1   C13 8352   5.828   2.130   7.820  0.1660  0.1358 -1.0765
   80CHL1   C18 8353   5.903   1.995   7.792  0.3498  0.5797 -0.8468
   80CHL1  H18A 8354   5.898   1.971   7.683  0.1930  2.5758 -1.3017
   80CHL1  H18B 8355   6.006   2.003   7.831  0.3749  1.8084 -1.1413
   80CHL1  H18C 8356   5.847   1.910   7.837  1.5370 -0.7535 -1.8335
   80CHL1   C12 8357   5.674   2.107   7.793  0.1116 -0.5954 -0.0998
   80CHL1  H12A 8358   5.640   2.023   7.857 -2.9718  1.5064  1.1130
   80CHL1  H12B 8359   5.628   2.200   7.834 -0.9398 -1.1706  0.0319
   80CHL1   C11 8360   5.650   2.080   7.644 -0.0720 -0.1208  0.9509
   80CHL1  H11A 8361   5.681   1.979   7.611  0.9519  0.9655 -1.5075
   80CHL1  H11B 8362   5.541   2.067   7.629  0.2494  0.1834 -1.9525
   80CHL1    C9 8363   5.717   2.178   7.544  0.1517 -0.2322 -0.8333
   80CHL1    H9 8364   5.662   2.272   7.567 -0.3867 -0.7624  0.1216
   80CHL1   C10 8365   5.686   2.164   7.393  0.6317  0.3680 -0.1877
   80CHL1   C19 8366   5.745   2.027   7.340 -0.2059 -0.7429  0.4842
   80CHL1  H19A 8367   5.726   2.002   7.233  2.9881 -0.1099 -0.2707
   80CHL1  H19B 8368   5.855   2.035   7.340 -0.1951 -0.6852 -0.9656
   80CHL1  H19C 8369   5.730   1.940   7.407  2.8243 -1.1725  0.6642
   80CHL1    C1 8370   5.530   2.185   7.372  0.1617 -0.0773 -0.2998
   80CHL1   H1A 8371   5.475   2.104   7.426  0.7195 -1.7190 -2.1304
   80CHL1   H1B 8372   5.506   2.279   7.426  1.0379 -0.8841  1.5627
   80CHL1    C2 8373   5.477   2.196   7.227 -0.1366  0.4548 -0.0409
   80CHL1   H2A 8374   5.369   2.221   7.226 -0.2413  0.0278  0.6074
   80CHL1   H2B 8375   5.486   2.099   7.173 -2.6195  0.7876 -1.1223
   80CHL1   C20 8376   5.853   2.092   8.083  0.5674  0.5128  0.4269
   80CHL1   H20 8377   5.919   2.006   8.058  2.9846  2.0139  1.4339
   80CHL1   C21 8378   5.706   2.050   8.115  0.0750  0.4402 -0.2086
   80CHL1  H21A 8379   5.646   2.143   8.111 -0.1726  0.3954  1.8238
   80CHL1  H21B 8380   5.705   1.991   8.210 -2.3377 -3.1307 -2.3506
   80CHL1  H21C 8381   5.680   1.968   8.045 -3.6244  0.0158  1.5558
   80CHL1   C22 8382   5.917   2.140   8.215 -0.3141 -0.2577 -0.2493
   80CHL1  H22A 8383   5.886   2.064   8.290  0.3506  0.9746  1.2963
   80CHL1  H22B 8384   6.025   2.142   8.186  0.1202  0.6379  1.3710
   80CHL1   C23 8385   5.864   2.286   8.260 -0.6825 -1.0008 -0.7317
   80CHL1  H23A 8386   5.873   2.354   8.173 -0.6359  1.8222  1.3826
   80CHL1  H23B 8387   5.759   2.269   8.290 -0.9889 -1.2651 -1.9358
   80CHL1   C24 8388   5.955   2.348   8.361 -0.0299  0.1233 -0.4405
   80CHL1  H24A 8389   5.953   2.271   8.441 -1.6192  0.0454 -0.5265
   80CHL1  H24B 8390   6.060   2.365   8.329 -0.2814  2.4804 -0.1209
   80CHL1   C25 8391   5.895   2.481   8.415  0.0639 -0.3674 -0.0692
   80CHL1   H25 8392   5.885   2.554   8.331 -0.3049 -1.1117 -0.6793
   80CHL1   C26 8393   5.757   2.463   8.486  0.3682  0.0447 -0.5268
   80CHL1  H26A 8394   5.729   2.551   8.547  1.8211 -0.3067  0.6491
   80CHL1  H26B 8395   5.674   2.443   8.414  0.8601  1.2226 -1.4343
   80CHL1  H26C 8396   5.750   2.374   8.552  1.0389  1.6580  1.7988
   80CHL1   C27 8397   5.984   2.545   8.525 -0.2604 -0.9798 -0.1156
   80CHL1  H27A 8398   5.941   2.643   8.557  1.8061  0.9390 -2.9898
   80CHL1  H27B 8399   5.974   2.474   8.611  2.8859 -2.0959 -0.6368
   80CHL1  H27C 8400   6.092   2.543   8.502 -0.1551  1.6734  0.0015
   81CHL1    C3 8401   2.965   2.272   6.675  0.2294  0.7006  0.9413
   81CHL1    H3 8402   3.068   2.232   6.674  0.9288  2.4666  0.4521
   81CHL1    O3 8403   2.941   2.272   6.537  0.1265  0.0530  0.4370
   81CHL1   H3' 8404   2.846   2.281   6.542  0.2044 -0.0307  2.1878
   81CHL1    C4 8405   2.872   2.168   6.744 -0.5401 -0.6756 -0.5128
   81CHL1   H4A 8406   2.769   2.203   6.724 -0.5313 -1.4707 -1.9792
   81CHL1   H4B 8407   2.887   2.068   6.698 -0.0726 -1.1693  0.6896
   81CHL1    C5 8408   2.892   2.168   6.900  0.1596  0.5335 -0.5224
   81CHL1    C6 8409   2.918   2.057   6.971 -0.1320  0.5769  0.5952
   81CHL1    H6 8410   2.918   1.957   6.924  1.6810  0.5504  0.6297
   81CHL1    C7 8411   2.942   2.057   7.117  0.5160 -0.5128  0.3104
   81CHL1   H7A 8412   2.892   1.968   7.162 -0.8563  0.9755  1.8207
   81CHL1   H7B 8413   3.047   2.035   7.145  1.0123  1.9522  0.5328
   81CHL1    C8 8414   2.885   2.183   7.190  0.2729 -0.7845  0.5077
   81CHL1    H8 8415   2.775   2.184   7.199 -0.0198 -0.9978 -2.5179
   81CHL1   C14 8416   2.941   2.184   7.334  0.3409 -0.0828 -0.7664
   81CHL1   H14 8417   3.052   2.179   7.326  0.2716 -0.5935 -1.4457
   81CHL1   C15 8418   2.925   2.058   7.424 -0.0364  0.3229  0.7685
   81CHL1  H15A 8419   2.824   2.016   7.405 -0.4665  1.2506  1.0032
   81CHL1  H15B 8420   2.999   1.978   7.398 -0.3639  0.6610 -1.3128
   81CHL1   C16 8421   2.951   2.114   7.566  0.1364  0.3541  0.3959
   81CHL1  H16A 8422   2.867   2.094   7.636  0.2911 -0.9961  0.2184
   81CHL1  H16B 8423   3.040   2.063   7.608 -0.0889  1.7146  2.5842
   81CHL1   C17 8424   2.969   2.265   7.561  0.6415 -0.2016 -0.4297
   81CHL1   H17 8425   3.079   2.279   7.564  0.1714  3.6389  0.8467
   81CHL1   C13 8426   2.909   2.305   7.419 -0.3181  0.0303  0.1825
   81CHL1   C18 8427   2.749   2.308   7.415  0.3019  0.4847 -0.3220
   81CHL1  H18A 8428   2.699   2.384   7.478 -1.3986  0.1754 -1.2686
   81CHL1  H18B 8429   2.710   2.336   7.315 -0.2910  1.7990  0.2724
   81CHL1  H18C 8430   2.711   2.207   7.441  0.3600  0.3955 -0.5776
   81CHL1   C12 8431   2.973   2.425   7.342 -0.1899  0.3411 -0.0344
   81CHL1  H12A 8432   2.952   2.519   7.397  2.8910  0.1142  1.6050
   81CHL1  H12B 8433   3.083   2.412   7.341 -0.2077  0.1041  0.8595
   81CHL1   C11 8434   2.922   2.441   7.194  0.5458 -0.1964 -0.2352
   81CHL1  H11A 8435   2.815   2.471   7.196  0.4423 -0.3067 -3.1184
   81CHL1  H11B 8436   2.977   2.522   7.142 -0.4747 -0.7191 -2.1629
   81CHL1    C9 8437   2.934   2.309   7.114  0.3173  0.4535 -0.1917
   81CHL1    H9 8438   3.043   2.288   7.110  0.0045 -0.9269 -2.1760
   81CHL1   C10 8439   2.888   2.312   6.971 -0.5665  0.2397  0.2508
   81CHL1   C19 8440   2.745   2.368   6.953 -1.1093  0.4899  0.2085
   81CHL1  H19A 8441   2.707   2.361   6.849 -0.5850  2.3155 -0.1275
   81CHL1  H19B 8442   2.685   2.307   7.025  1.6017 -0.0698  2.0792
   81CHL1  H19C 8443   2.736   2.473   6.988  1.6188  0.8512 -0.0690
   81CHL1    C1 8444   2.983   2.408   6.891 -0.2953  0.1558 -0.3436
   81CHL1   H1A 8445   2.997   2.513   6.925  0.1846  0.3387 -1.1063
   81CHL1   H1B 8446   3.083   2.363   6.909 -0.7776  1.1083  6.1131
   81CHL1    C2 8447   2.961   2.411   6.737  0.0399  0.0451 -0.3524
   81CHL1   H2A 8448   3.039   2.472   6.686  1.1296 -1.5594 -0.6303
   81CHL1   H2B 8449   2.861   2.454   6.713 -0.0661 -0.5331 -0.9620
   81CHL1   C20 8450   2.903   2.337   7.686 -0.4096  0.1871  0.0148
   81CHL1   H20 8451   2.797   2.305   7.674 -0.0437 -1.1913  0.3670
   81CHL1   C21 8452   2.930   2.486   7.656  0.0082 -0.2977  0.0718
   81CHL1  H21A 8453   2.863   2.517   7.573  0.4981 -1.4340 -0.7633
   81CHL1  H21B 8454   3.035   2.497   7.620  0.0991  1.0401  0.7351
   81CHL1  H21C 8455   2.906   2.547   7.745 -0.0454  1.0295 -0.8360
   81CHL1   C22 8456   2.946   2.293   7.822  0.2692 -0.4926  0.0264
   81CHL1  H22A 8457   2.960   2.183   7.834 -0.7764 -0.3689  2.8306
   81CHL1  H22B 8458   3.037   2.351   7.850 -0.0977  0.0180  0.1610
   81CHL1   C23 8459   2.855   2.340   7.935  0.1620  0.0167 -0.5630
   81CHL1  H23A 8460   2.831   2.449   7.938  1.7154  0.3829 -1.3114
   81CHL1  H23B 8461   2.753   2.297   7.920 -0.1964  0.7719 -0.3175
   81CHL1   C24 8462   2.909   2.304   8.072  0.3640 -0.1957 -1.4449
   81CHL1  H24A 8463   2.935   2.196   8.070 -2.9500 -1.0886 -0.5733
   81CHL1  H24B 8464   3.011   2.346   8.088  0.2924 -0.8806  1.0758
   81CHL1   C25 8465   2.828   2.355   8.194  0.4165 -0.7885  0.5323
   81CHL1   H25 8466   2.726   2.312   8.188 -0.3514  0.5180  3.5012
   81CHL1   C26 8467   2.886   2.295   8.323 -0.8563  0.0071 -0.2266
   81CHL1  H26A 8468   2.819   2.313   8.409  1.1417 -0.5813  1.4943
   81CHL1  H26B 8469   2.920   2.190   8.307  0.2110  0.1535  1.0033
   81CHL1  H26C 8470   2.979   2.350   8.349 -1.1183  0.8385 -1.0421
   81CHL1   C27 8471   2.824   2.506   8.208  0.5857 -0.5761  0.0001
   81CHL1  H27A 8472   2.783   2.555   8.118 -1.0769  0.0664  1.0900
   81CHL1  H27B 8473   2.744   2.520   8.283  0.3377 -0.5681 -0.2671
   81CHL1  H27C 8474   2.921   2.550   8.240 -0.6129  1.8584  0.3617
   82CHL1    C3 8475   4.716   2.758   6.836 -0.4655  0.1507 -0.7960
   82CHL1    H3 8476   4.647   2.675   6.866 -0.5074 -0.6057 -2.9117
   82CHL1    O3 8477   4.758   2.750   6.700 -0.0816 -0.2345 -0.5343
   82CHL1   H3' 8478   4.689   2.778   6.640  0.1439  0.2026 -0.5963
   82CHL1    C4 8479   4.657   2.896   6.871 -0.5195  0.2885  0.5004
   82CHL1   H4A 8480   4.730   2.966   6.825  0.2213 -0.6625  0.2170
   82CHL1   H4B 8481   4.564   2.904   6.810  0.0480  1.1135 -0.2827
   82CHL1    C5 8482   4.629   2.913   7.021 -0.3788  1.0170 -0.4315
   82CHL1    C6 8483   4.507   2.946   7.070 -0.5732 -0.0544  0.0929
   82CHL1    H6 8484   4.422   2.942   7.001 -0.2098 -0.7158 -0.3235
   82CHL1    C7 8485   4.476   2.973   7.216 -0.9008  0.1143  0.3346
   82CHL1   H7A 8486   4.420   3.068   7.227 -0.5038  0.8476 -3.2899
   82CHL1   H7B 8487   4.417   2.889   7.258 -0.2198 -0.4719  0.1299
   82CHL1    C8 8488   4.609   3.001   7.293 -0.1243  0.2738  0.1987
   82CHL1    H8 8489   4.654   3.098   7.262  1.2603 -0.4766 -0.2246
   82CHL1   C14 8490   4.583   2.991   7.446 -0.8782 -0.6051  0.4549
   82CHL1   H14 8491   4.553   2.885   7.458 -3.7838 -0.0065 -1.0266
   82CHL1   C15 8492   4.472   3.082   7.513 -0.4644 -0.5298  0.2676
   82CHL1  H15A 8493   4.484   3.182   7.467  2.1608 -0.5859  0.8035
   82CHL1  H15B 8494   4.365   3.056   7.495 -1.6939  1.8374  3.5841
   82CHL1   C16 8495   4.506   3.070   7.661 -0.2161  0.4859  0.6210
   82CHL1  H16A 8496   4.494   3.172   7.705 -1.6671  1.7944 -2.5814
   82CHL1  H16B 8497   4.436   2.993   7.698  0.9793 -0.7767  0.2843
   82CHL1   C17 8498   4.646   3.006   7.675 -0.3772 -0.1043  0.0516
   82CHL1   H17 8499   4.625   2.898   7.687  1.2762 -0.4826 -0.3413
   82CHL1   C13 8500   4.709   3.013   7.533 -0.0646  0.6205 -0.0674
   82CHL1   C18 8501   4.765   3.157   7.530 -0.7891 -0.0836 -0.2600
   82CHL1  H18A 8502   4.812   3.180   7.432  1.0361 -1.4311  0.2659
   82CHL1  H18B 8503   4.699   3.237   7.570  0.0020  1.0427 -1.1763
   82CHL1  H18C 8504   4.852   3.167   7.598 -2.1117 -0.1447  1.4868
   82CHL1   C12 8505   4.818   2.902   7.502  0.5483 -0.3554  0.1985
   82CHL1  H12A 8506   4.915   2.904   7.557  0.0644  0.4600  1.0303
   82CHL1  H12B 8507   4.765   2.809   7.529 -0.8454  0.0486 -1.1257
   82CHL1   C11 8508   4.850   2.901   7.350  0.1196  0.3922  0.0822
   82CHL1  H11A 8509   4.913   2.987   7.318  0.0071  0.5079  0.1665
   82CHL1  H11B 8510   4.919   2.817   7.330 -2.5625 -2.1806  1.2189
   82CHL1    C9 8511   4.718   2.895   7.257 -0.5233  0.7267 -0.2061
   82CHL1    H9 8512   4.675   2.797   7.285 -1.3730  1.4817  1.1805
   82CHL1   C10 8513   4.755   2.891   7.111  0.3726  0.0057 -0.4386
   82CHL1   C19 8514   4.850   3.009   7.073 -0.0289 -0.2358 -0.4135
   82CHL1  H19A 8515   4.809   3.109   7.099  0.2518 -0.1997 -0.0986
   82CHL1  H19B 8516   4.946   3.005   7.129  0.2054 -0.2972 -0.8248
   82CHL1  H19C 8517   4.883   3.011   6.967  0.9430 -0.3763 -0.1179
   82CHL1    C1 8518   4.808   2.748   7.074 -0.2844  0.0244 -0.1308
   82CHL1   H1A 8519   4.896   2.734   7.142  1.0917  1.0997 -1.6518
   82CHL1   H1B 8520   4.738   2.670   7.111 -1.6697  1.2087 -0.2535
   82CHL1    C2 8521   4.838   2.732   6.923 -0.2542 -0.6981 -0.5621
   82CHL1   H2A 8522   4.882   2.634   6.895  0.4789 -0.3837 -0.5191
   82CHL1   H2B 8523   4.912   2.813   6.903 -0.6699 -0.1954 -0.0804
   82CHL1   C20 8524   4.722   3.053   7.802  0.1517 -0.3454  0.5443
   82CHL1   H20 8525   4.739   3.163   7.797 -4.5836  0.4549 -0.2912
   82CHL1   C21 8526   4.862   2.993   7.820  0.3010 -1.0638 -0.1716
   82CHL1  H21A 8527   4.910   3.050   7.903 -1.4383  1.6572 -0.9869
   82CHL1  H21B 8528   4.938   3.010   7.740  2.1126  1.1865  1.9330
   82CHL1  H21C 8529   4.859   2.887   7.853  0.5082 -0.8897  0.4097
   82CHL1   C22 8530   4.633   3.046   7.927 -0.1961 -0.2297 -0.1295
   82CHL1  H22A 8531   4.700   3.087   8.006 -1.5799 -1.3063  1.6238
   82CHL1  H22B 8532   4.549   3.118   7.922  1.2143  1.4477 -0.2724
   82CHL1   C23 8533   4.575   2.913   7.964  0.1530  1.1928 -0.1574
   82CHL1  H23A 8534   4.519   2.874   7.877 -0.1398  2.2526 -0.4555
   82CHL1  H23B 8535   4.654   2.835   7.972  0.1392  0.6367 -4.5089
   82CHL1   C24 8536   4.484   2.910   8.085  0.6443  0.1112 -0.5821
   82CHL1  H24A 8537   4.401   2.982   8.070  1.3475  1.2471  0.8664
   82CHL1  H24B 8538   4.442   2.808   8.097  0.8521  0.1045  0.1212
   82CHL1   C25 8539   4.554   2.942   8.221 -0.2399  0.1626  0.4341
   82CHL1   H25 8540   4.590   3.047   8.219  0.8855 -0.2096  0.8800
   82CHL1   C26 8541   4.445   2.930   8.335 -0.1672  0.2685  0.5324
   82CHL1  H26A 8542   4.358   2.996   8.311 -0.1732  0.0125 -0.1536
   82CHL1  H26B 8543   4.405   2.827   8.326 -1.5440  1.0155 -2.5848
   82CHL1  H26C 8544   4.479   2.954   8.438  0.9532  1.6294 -0.1311
   82CHL1   C27 8545   4.685   2.870   8.247 -0.0198  0.0151 -0.4409
   82CHL1  H27A 8546   4.768   2.892   8.177  1.0299  4.3102  2.0314
   82CHL1  H27B 8547   4.729   2.891   8.347  1.2578 -2.7869 -0.3651
   82CHL1  H27C 8548   4.672   2.759   8.247  0.5733 -0.0714 -2.3727
   83CHL1    C3 8549   1.083   4.200   7.135 -0.5176  0.0053  0.0343
   83CHL1    H3 8550   1.168   4.263   7.168  0.2604 -0.5465 -0.9086
   83CHL1    O3 8551   1.086   4.189   6.997 -0.1688  0.0487 -0.1394
   83CHL1   H3' 8552   0.995   4.178   6.967 -0.1526  0.4341 -0.3237
   83CHL1    C4 8553   1.105   4.056   7.194  0.2359  0.8862 -0.2215
   83CHL1   H4A 8554   1.021   3.991   7.161  0.1934 -0.4143  2.3206
   83CHL1   H4B 8555   1.195   4.008   7.151  0.5277  1.5738 -0.3845
   83CHL1    C5 8556   1.117   4.071   7.350 -0.4515  0.0542 -0.0572
   83CHL1    C6 8557   1.222   4.035   7.422  0.9598  0.3041 -0.2067
   83CHL1    H6 8558   1.316   4.003   7.374  0.6251  1.3459 -1.5804
   83CHL1    C7 8559   1.227   4.049   7.568 -0.1748  0.0797  0.1817
   83CHL1   H7A 8560   1.282   3.968   7.620  0.6142 -1.0365 -2.3197
   83CHL1   H7B 8561   1.283   4.144   7.581  1.5035 -1.0762  1.6991
   83CHL1    C8 8562   1.094   4.065   7.635  0.8541  0.5890 -0.8154
   83CHL1    H8 8563   1.043   3.966   7.631  2.2390 -0.1957  0.2843
   83CHL1   C14 8564   1.108   4.100   7.785 -0.3003  0.0975 -0.6388
   83CHL1   H14 8565   1.159   4.198   7.776 -1.4097  0.7271 -0.2191
   83CHL1   C15 8566   1.206   4.020   7.870 -0.0993  0.5121  0.6485
   83CHL1  H15A 8567   1.200   3.911   7.848 -0.5354  0.3658  1.4587
   83CHL1  H15B 8568   1.311   4.056   7.863 -0.5532  2.1178  1.7929
   83CHL1   C16 8569   1.161   4.054   8.016  0.9181 -0.3225 -0.6326
   83CHL1  H16A 8570   1.139   3.962   8.074  0.2252  0.9860  1.2264
   83CHL1  H16B 8571   1.253   4.097   8.061  0.1731 -0.1349  0.7311
   83CHL1   C17 8572   1.042   4.156   8.005  0.2661 -0.6316 -0.0732
   83CHL1   H17 8573   1.093   4.255   8.000  0.7454 -0.9309 -1.1818
   83CHL1   C13 8574   0.982   4.121   7.863 -0.0107 -0.3656  0.0283
   83CHL1   C18 8575   0.898   3.990   7.875  0.7188  0.1510  0.2755
   83CHL1  H18A 8576   0.960   3.909   7.918  0.9741  0.7437  1.0483
   83CHL1  H18B 8577   0.800   4.003   7.925  1.6636  0.3272  2.1160
   83CHL1  H18C 8578   0.867   3.951   7.776 -0.2414 -1.2125  1.0973
   83CHL1   C12 8579   0.900   4.228   7.794 -0.9481  0.3274  0.6027
   83CHL1  H12A 8580   0.799   4.227   7.840 -0.0572 -2.3338  2.6725
   83CHL1  H12B 8581   0.948   4.326   7.810 -1.1317  0.2442  1.6938
   83CHL1   C11 8582   0.878   4.201   7.640 -0.0588  0.3979 -0.0327
   83CHL1  H11A 8583   0.802   4.123   7.622  2.2176 -2.1985  1.2700
   83CHL1  H11B 8584   0.829   4.294   7.603  0.2904  0.1453 -1.1459
   83CHL1    C9 8585   1.005   4.168   7.564 -0.1032 -0.1838  0.4553
   83CHL1    H9 8586   1.074   4.254   7.571 -0.9562  0.3690  2.7900
   83CHL1   C10 8587   0.984   4.131   7.414 -0.6022  0.1176  0.4578
   83CHL1   C19 8588   0.877   4.020   7.395 -0.5749 -0.4425  0.1184
   83CHL1  H19A 8589   0.897   3.941   7.471 -1.2264 -1.2284 -0.5073
   83CHL1  H19B 8590   0.777   4.055   7.426  0.0099  0.9847  0.4168
   83CHL1  H19C 8591   0.862   3.966   7.299 -0.5679  2.9755 -1.8931
   83CHL1    C1 8592   0.944   4.262   7.336  0.1611 -0.5097  0.3413
   83CHL1   H1A 8593   0.847   4.297   7.377  0.9677 -0.0684  1.8864
   83CHL1   H1B 8594   1.029   4.331   7.355 -0.8860  1.6680 -2.5186
   83CHL1    C2 8595   0.944   4.253   7.183 -0.9815 -0.0929  0.3921
   83CHL1   H2A 8596   0.934   4.353   7.136  0.5678 -0.5179 -0.9216
   83CHL1   H2B 8597   0.867   4.187   7.138 -0.1283 -0.1702 -1.0011
   83CHL1   C20 8598   0.960   4.149   8.134  0.6097  0.2208  0.2996
   83CHL1   H20 8599   0.930   4.042   8.136  0.2734  0.2474 -2.1784
   83CHL1   C21 8600   0.846   4.250   8.111  0.2671 -0.1160  0.2262
   83CHL1  H21A 8601   0.886   4.342   8.063 -2.1393  0.3937 -0.8584
   83CHL1  H21B 8602   0.799   4.281   8.207 -1.0858 -0.5548 -0.2899
   83CHL1  H21C 8603   0.774   4.195   8.047 -0.5869 -0.1521  1.2069
   83CHL1   C22 8604   1.025   4.168   8.273 -0.0167 -0.0277 -0.3543
   83CHL1  H22A 8605   1.129   4.128   8.276 -0.9610 -2.6766 -0.8402
   83CHL1  H22B 8606   1.024   4.276   8.295 -2.4019 -0.0437 -0.2942
   83CHL1   C23 8607   0.955   4.082   8.392  0.4684  0.1440  1.1496
   83CHL1  H23A 8608   0.846   4.101   8.406 -0.2147 -1.8081 -1.0279
   83CHL1  H23B 8609   0.955   3.978   8.352 -0.6361  0.2793  0.7746
   83CHL1   C24 8610   1.034   4.093   8.527  0.0136 -0.6079 -0.6718
   83CHL1  H24A 8611   1.142   4.081   8.502 -0.6167 -0.7153 -3.5913
   83CHL1  H24B 8612   1.033   4.195   8.570  0.4550 -1.0852  0.5034
   83CHL1   C25 8613   1.004   3.988   8.634  0.0899 -0.1196  0.4494
   83CHL1   H25 8614   1.069   4.004   8.722  1.2472 -1.8375 -0.0565
   83CHL1   C26 8615   0.855   3.992   8.675  0.8412  0.1218  0.2820
   83CHL1  H26A 8616   0.800   3.945   8.591 -2.4505  0.5122  2.1102
   83CHL1  H26B 8617   0.840   3.931   8.766 -0.8055  0.3946  0.2010
   83CHL1  H26C 8618   0.811   4.091   8.700  0.2486  0.4795 -2.0762
   83CHL1   C27 8619   1.038   3.838   8.591 -0.0095 -0.2448 -0.0131
   83CHL1  H27A 8620   1.032   3.771   8.679  2.3170  1.4288  1.4781
   83CHL1  H27B 8621   0.961   3.805   8.519 -0.5895  0.7932  0.1151
   83CHL1  H27C 8622   1.146   3.837   8.563  0.2547 -1.5753  1.0315
   84CHL1    C3 8623   3.022   0.286   7.042  0.6344  0.1218  0.1293
   84CHL1    H3 8624   2.949   0.367   7.062 -1.1059 -1.2965 -0.3189
   84CHL1    O3 8625   3.047   0.277   6.903 -0.1420 -0.7065 -0.7892
   84CHL1   H3' 8626   2.965   0.243   6.867  0.6833 -2.3124 -1.2308
   84CHL1    C4 8627   3.154   0.313   7.121 -0.0895  0.2964 -0.5764
   84CHL1   H4A 8628   3.228   0.234   7.095  0.5261  0.8161 -0.4124
   84CHL1   H4B 8629   3.193   0.412   7.089 -0.4058  1.1622  1.6074
   84CHL1    C5 8630   3.147   0.312   7.271 -0.7855 -1.3459 -0.1415
   84CHL1    C6 8631   3.195   0.407   7.352  0.3348  0.8910 -0.0949
   84CHL1    H6 8632   3.244   0.495   7.310 -2.8270  3.6769  1.8179
   84CHL1    C7 8633   3.189   0.402   7.501  0.1760 -0.1933 -0.0866
   84CHL1   H7A 8634   3.288   0.423   7.547  0.1508 -1.4776  0.5768
   84CHL1   H7B 8635   3.130   0.482   7.551  0.0734 -0.8137  0.7968
   84CHL1    C8 8636   3.146   0.265   7.568 -0.2739  0.4594  0.3694
   84CHL1    H8 8637   3.237   0.202   7.566 -1.7179 -1.6746  0.3339
   84CHL1   C14 8638   3.104   0.278   7.708  0.5658  0.3667  0.8574
   84CHL1   H14 8639   3.016   0.346   7.702 -1.7495 -2.4004  2.2230
   84CHL1   C15 8640   3.195   0.338   7.818 -0.3355 -0.0571  0.7262
   84CHL1  H15A 8641   3.300   0.307   7.801 -0.0614  0.5892  1.2041
   84CHL1  H15B 8642   3.204   0.449   7.809 -1.7919 -0.0375 -0.7024
   84CHL1   C16 8643   3.134   0.289   7.945 -0.2551 -0.1772 -0.0052
   84CHL1  H16A 8644   3.201   0.230   8.010  0.2674  0.8327  0.3722
   84CHL1  H16B 8645   3.104   0.374   8.009 -1.4685 -0.6957  0.1384
   84CHL1   C17 8646   3.012   0.195   7.914 -0.0084  0.1431 -0.4617
   84CHL1   H17 8647   2.921   0.258   7.908 -0.7770 -0.7755  1.3346
   84CHL1   C13 8648   3.050   0.149   7.768 -0.0546 -0.5680 -0.2415
   84CHL1   C18 8649   3.160   0.044   7.773 -0.0496 -0.0969  1.4928
   84CHL1  H18A 8650   3.136  -0.039   7.843  2.1867  0.7547  3.3420
   84CHL1  H18B 8651   3.187  -0.000   7.675  1.1153 -0.0355  1.7816
   84CHL1  H18C 8652   3.253   0.090   7.813  0.4854  0.3668 -0.2175
   84CHL1   C12 8653   2.922   0.121   7.685 -0.5723 -0.5793  0.3091
   84CHL1  H12A 8654   2.868   0.034   7.729 -1.2317 -0.9395 -1.1937
   84CHL1  H12B 8655   2.862   0.214   7.690 -0.0487 -0.2045 -0.2234
   84CHL1   C11 8656   2.950   0.089   7.535  0.1630 -0.2191 -0.7534
   84CHL1  H11A 8657   3.006  -0.006   7.522 -1.3546 -1.3403  0.7725
   84CHL1  H11B 8658   2.861   0.088   7.468  0.5755  0.4397 -1.3283
   84CHL1    C9 8659   3.033   0.200   7.476  0.0971 -0.6312  0.2270
   84CHL1    H9 8660   2.961   0.284   7.479 -1.3850 -1.9241  1.2150
   84CHL1   C10 8661   3.077   0.181   7.327 -0.3257  0.5689 -0.2398
   84CHL1   C19 8662   3.179   0.062   7.328 -0.3302 -0.4868 -0.0540
   84CHL1  H19A 8663   3.189   0.037   7.221 -0.3421 -0.7468  0.0071
   84CHL1  H19B 8664   3.272   0.085   7.383 -1.4778 -0.0341  1.7507
   84CHL1  H19C 8665   3.137  -0.030   7.375 -0.6739 -0.0436  0.5224
   84CHL1    C1 8666   2.952   0.148   7.244 -0.1346 -0.3120  0.4355
   84CHL1   H1A 8667   2.914   0.048   7.274  1.6961 -1.3489 -0.6308
   84CHL1   H1B 8668   2.870   0.218   7.272  0.7254  0.3508  1.3031
   84CHL1    C2 8669   2.964   0.151   7.086  0.4596 -0.6468  0.4039
   84CHL1   H2A 8670   2.865   0.131   7.040  1.3028  3.1269 -3.4087
   84CHL1   H2B 8671   3.042   0.077   7.055  0.8187  0.3453 -1.1420
   84CHL1   C20 8672   2.993   0.093   8.025 -0.0033 -1.0490 -0.3565
   84CHL1   H20 8673   3.088   0.037   8.039  0.9785  0.5553 -0.3275
   84CHL1   C21 8674   2.903  -0.023   7.996 -0.1573 -0.4150 -0.2206
   84CHL1  H21A 8675   2.801   0.016   7.977 -0.8792 -2.8045 -1.4004
   84CHL1  H21B 8676   2.903  -0.095   8.080  1.6282 -0.2757 -0.0709
   84CHL1  H21C 8677   2.932  -0.075   7.902  0.8570  0.0243 -0.1632
   84CHL1   C22 8678   2.957   0.157   8.166  0.2868  0.8476  0.8810
   84CHL1  H22A 8679   2.965   0.072   8.237 -0.8099 -0.7793 -0.8628
   84CHL1  H22B 8680   3.034   0.234   8.186 -0.4449  1.5731  0.9305
   84CHL1   C23 8681   2.825   0.236   8.177 -0.3139  0.2373 -0.3795
   84CHL1  H23A 8682   2.821   0.325   8.110  0.8273  0.4508 -0.1751
   84CHL1  H23B 8683   2.741   0.171   8.143  1.7483 -3.0183  0.5204
   84CHL1   C24 8684   2.801   0.285   8.322  0.1440  0.5554 -0.5534
   84CHL1  H24A 8685   2.882   0.348   8.364  0.2012  0.1621 -0.0717
   84CHL1  H24B 8686   2.712   0.352   8.317 -0.5926 -0.2853  0.9346
   84CHL1   C25 8687   2.776   0.176   8.430 -0.1420 -0.5607  0.4762
   84CHL1   H25 8688   2.869   0.118   8.444  1.5305  2.2537  1.4491
   84CHL1   C26 8689   2.738   0.229   8.573 -0.4810  0.3372 -0.6286
   84CHL1  H26A 8690   2.636   0.274   8.568 -0.9168 -0.5075  0.5413
   84CHL1  H26B 8691   2.725   0.141   8.640 -1.2890  0.2205 -0.9377
   84CHL1  H26C 8692   2.817   0.300   8.606  0.0166 -0.5726  0.1848
   84CHL1   C27 8693   2.662   0.075   8.391  0.1248 -0.0471 -0.1120
   84CHL1  H27A 8694   2.669   0.036   8.287  0.5885 -1.0447  0.2861
   84CHL1  H27B 8695   2.656  -0.010   8.462 -1.2689 -0.3507 -0.5724
   84CHL1  H27C 8696   2.568   0.130   8.413  1.0781  1.3328  0.6168
   85CHL1    C3 8697   2.549   4.497   6.681 -0.4450  0.4799 -0.4076
   85CHL1    H3 8698   2.492   4.582   6.725 -0.5453 -0.9657  2.3598
   85CHL1    O3 8699   2.525   4.506   6.539 -0.1741  0.3848 -0.0362
   85CHL1   H3' 8700   2.429   4.502   6.530 -0.1907  1.3867 -0.4060
   85CHL1    C4 8701   2.696   4.508   6.717 -0.1299  0.1840  0.2480
   85CHL1   H4A 8702   2.735   4.425   6.654 -1.6452  0.2749 -0.8622
   85CHL1   H4B 8703   2.727   4.609   6.682  0.7976 -0.2707 -0.2500
   85CHL1    C5 8704   2.728   4.495   6.866 -0.1306  0.1455 -0.0059
   85CHL1    C6 8705   2.803   4.585   6.936  0.7729 -0.2078 -0.0751
   85CHL1    H6 8706   2.859   4.657   6.873  0.2706  1.0083  0.8619
   85CHL1    C7 8707   2.845   4.583   7.078  0.8242  0.5278 -0.2179
   85CHL1   H7A 8708   2.952   4.600   7.106 -0.0695  3.2077  1.8528
   85CHL1   H7B 8709   2.794   4.675   7.115  0.1333 -0.9331  2.5767
   85CHL1    C8 8710   2.782   4.461   7.145  0.0359 -0.3161 -0.2083
   85CHL1    H8 8711   2.853   4.376   7.144  0.0850 -0.2735 -0.3963
   85CHL1   C14 8712   2.762   4.496   7.296 -0.1336 -0.3042 -0.2025
   85CHL1   H14 8713   2.685   4.575   7.299 -2.9374 -2.9300 -0.2070
   85CHL1   C15 8714   2.888   4.565   7.365 -0.3650  0.0908 -0.2333
   85CHL1  H15A 8715   2.970   4.504   7.321 -1.9499 -1.0520 -1.6686
   85CHL1  H15B 8716   2.899   4.674   7.347 -1.2895  0.0221 -1.2589
   85CHL1   C16 8717   2.864   4.537   7.515 -0.1175  0.5514 -0.6136
   85CHL1  H16A 8718   2.947   4.471   7.549 -1.2601 -1.0391 -0.8653
   85CHL1  H16B 8719   2.849   4.631   7.572 -0.5833 -0.0416  0.2436
   85CHL1   C17 8720   2.730   4.460   7.525  0.0318 -0.9036  0.4454
   85CHL1   H17 8721   2.661   4.548   7.528  1.8372  0.5846 -0.8157
   85CHL1   C13 8722   2.706   4.388   7.386  0.2705  0.1394 -0.1275
   85CHL1   C18 8723   2.801   4.260   7.387 -0.0313  0.7132 -0.6757
   85CHL1  H18A 8724   2.830   4.232   7.283  1.3236  0.4568 -0.2478
   85CHL1  H18B 8725   2.899   4.270   7.438 -1.1498 -1.4801  2.0460
   85CHL1  H18C 8726   2.743   4.179   7.436  1.3810  0.8609  1.3088
   85CHL1   C12 8727   2.569   4.358   7.329  0.0878  0.0101  0.2750
   85CHL1  H12A 8728   2.536   4.271   7.389  0.0196  0.2494  0.5847
   85CHL1  H12B 8729   2.496   4.441   7.343 -2.0114 -1.6956 -0.2423
   85CHL1   C11 8730   2.575   4.316   7.182 -0.2555  0.2598  1.3537
   85CHL1  H11A 8731   2.620   4.214   7.176 -0.5241  0.1871  0.3827
   85CHL1  H11B 8732   2.468   4.295   7.159  0.2742 -2.2566  1.0119
   85CHL1    C9 8733   2.648   4.417   7.089  0.0398 -0.4088 -0.5430
   85CHL1    H9 8734   2.588   4.511   7.099  1.1616  0.1402  1.2506
   85CHL1   C10 8735   2.650   4.378   6.940  0.0158  0.1025  0.1705
   85CHL1   C19 8736   2.727   4.247   6.923 -0.9478  0.1693  0.4244
   85CHL1  H19A 8737   2.689   4.161   6.982  0.0991 -1.2838 -0.9803
   85CHL1  H19B 8738   2.730   4.217   6.816 -0.5856  0.2760  0.4036
   85CHL1  H19C 8739   2.834   4.261   6.948 -0.4774 -2.6222  0.1236
   85CHL1    C1 8740   2.501   4.365   6.888  0.4595 -0.2345  0.3481
   85CHL1   H1A 8741   2.457   4.271   6.928  0.4758 -0.3827  0.0154
   85CHL1   H1B 8742   2.439   4.442   6.938 -1.1284  0.7866 -3.0602
   85CHL1    C2 8743   2.483   4.368   6.737  0.6978 -0.0024  0.4282
   85CHL1   H2A 8744   2.381   4.352   6.698  0.7640 -1.5809  0.8626
   85CHL1   H2B 8745   2.541   4.284   6.694  1.9182  0.4700  1.0994
   85CHL1   C20 8746   2.720   4.378   7.658  1.0390  0.4308  0.6803
   85CHL1   H20 8747   2.767   4.278   7.650 -0.8167 -0.4462  0.4422
   85CHL1   C21 8748   2.571   4.356   7.689  0.9547  0.0696 -0.2361
   85CHL1  H21A 8749   2.526   4.454   7.715 -1.0391  0.0209 -3.2800
   85CHL1  H21B 8750   2.568   4.301   7.785  2.5299  1.5263  0.6938
   85CHL1  H21C 8751   2.521   4.289   7.617  1.1752  1.2333 -1.5091
   85CHL1   C22 8752   2.790   4.445   7.778  0.4514  0.2231  0.9053
   85CHL1  H22A 8753   2.888   4.494   7.758 -0.2011  1.1744 -0.0119
   85CHL1  H22B 8754   2.723   4.521   7.823  0.1307  1.0753 -0.9585
   85CHL1   C23 8755   2.805   4.341   7.892 -0.3362 -0.7393  0.3027
   85CHL1  H23A 8756   2.706   4.298   7.919 -1.2139  2.1715  1.9037
   85CHL1  H23B 8757   2.873   4.263   7.850  0.5976 -0.5389  1.4189
   85CHL1   C24 8758   2.865   4.400   8.023 -0.0339 -0.0014  0.3139
   85CHL1  H24A 8759   2.794   4.467   8.075 -1.5998 -1.4816  0.1051
   85CHL1  H24B 8760   2.877   4.311   8.089  0.2328  0.1239  0.4368
   85CHL1   C25 8761   3.009   4.459   8.020 -0.1149 -0.2720  0.2258
   85CHL1   H25 8762   3.002   4.525   7.932 -0.2589 -0.5033  0.0636
   85CHL1   C26 8763   3.045   4.547   8.145  0.5505  0.0961  0.1936
   85CHL1  H26A 8764   3.151   4.576   8.131  0.7330  0.8425  2.8450
   85CHL1  H26B 8765   2.970   4.630   8.144 -0.3000 -0.6331 -3.0657
   85CHL1  H26C 8766   3.047   4.487   8.238  0.5789 -1.3769 -0.7384
   85CHL1   C27 8767   3.109   4.344   8.003 -0.2956 -0.3538 -0.2172
   85CHL1  H27A 8768   3.138   4.282   8.090  1.8858 -0.3023 -0.8820
   85CHL1  H27B 8769   3.083   4.293   7.908  1.7335 -0.8264 -0.5507
   85CHL1  H27C 8770   3.203   4.399   7.978  1.1016 -2.2249  0.7796
   86CHL1    C3 8771   4.189   1.931   6.906 -0.2187  0.0727  0.2021
   86CHL1    H3 8772   4.112   2.006   6.936 -1.9839 -1.9507  0.8696
   86CHL1    O3 8773   4.187   1.929   6.762  0.0350 -0.2725  0.0381
   86CHL1   H3' 8774   4.145   1.844   6.745  3.0873 -2.0202  0.7811
   86CHL1    C4 8775   4.321   1.984   6.946  0.6230 -0.2190 -0.0683
   86CHL1   H4A 8776   4.393   1.909   6.907  0.6091 -0.1587 -0.2112
   86CHL1   H4B 8777   4.349   2.076   6.892 -1.4856  0.0394 -0.7584
   86CHL1    C5 8778   4.325   1.997   7.099 -0.1060  0.1207  0.3617
   86CHL1    C6 8779   4.341   2.114   7.162 -0.0399  0.3507  0.3103
   86CHL1    H6 8780   4.368   2.206   7.109  0.7813 -0.6519 -1.0597
   86CHL1    C7 8781   4.359   2.122   7.314  0.1654 -0.4427 -0.3694
   86CHL1   H7A 8782   4.451   2.181   7.335 -0.8678  1.1034 -0.0759
   86CHL1   H7B 8783   4.276   2.178   7.362 -0.9538 -1.8438 -0.6436
   86CHL1    C8 8784   4.371   1.993   7.386 -0.4299 -0.8995  0.3716
   86CHL1    H8 8785   4.478   1.964   7.377  0.2090  1.0291  1.4825
   86CHL1   C14 8786   4.341   2.003   7.534 -0.1125  0.4232  0.3326
   86CHL1   H14 8787   4.234   2.035   7.540  0.3611  1.7869  1.9230
   86CHL1   C15 8788   4.429   2.097   7.608  0.3500  0.5137 -1.2854
   86CHL1  H15A 8789   4.537   2.078   7.596  0.3217 -0.8327  0.4726
   86CHL1  H15B 8790   4.397   2.202   7.589 -1.4231  0.7697  2.5753
   86CHL1   C16 8791   4.394   2.063   7.757 -0.4427  0.8945  0.3586
   86CHL1  H16A 8792   4.483   2.049   7.821 -0.0060 -0.4447 -0.5354
   86CHL1  H16B 8793   4.327   2.143   7.795 -1.5293  0.8234 -1.3081
   86CHL1   C17 8794   4.326   1.930   7.750  0.7615  0.7317  0.1203
   86CHL1   H17 8795   4.219   1.960   7.747  0.4081 -0.2281  2.1427
   86CHL1   C13 8796   4.347   1.867   7.609  0.0456 -0.6072 -0.7464
   86CHL1   C18 8797   4.491   1.803   7.586  0.6019  0.1434 -0.4115
   86CHL1  H18A 8798   4.561   1.879   7.628  0.2494 -0.0332  0.4968
   86CHL1  H18B 8799   4.494   1.712   7.650  0.6035  1.5747  1.6582
   86CHL1  H18C 8800   4.500   1.780   7.477  2.3936 -1.1089 -0.0247
   86CHL1   C12 8801   4.241   1.773   7.551  0.0263  0.3517 -0.4567
   86CHL1  H12A 8802   4.248   1.674   7.600  0.5953  0.9161  0.6363
   86CHL1  H12B 8803   4.144   1.825   7.563  0.0096 -0.0017  1.1667
   86CHL1   C11 8804   4.261   1.748   7.400  0.3380 -0.5734 -0.6395
   86CHL1  H11A 8805   4.345   1.677   7.387  0.3850 -0.8676  1.1781
   86CHL1  H11B 8806   4.174   1.693   7.358  0.2225  2.0202 -4.0558
   86CHL1    C9 8807   4.268   1.887   7.324 -0.3783 -0.2926  0.4230
   86CHL1    H9 8808   4.166   1.931   7.331 -1.8260 -3.4618 -0.0267
   86CHL1   C10 8809   4.293   1.865   7.172  0.9087  0.3958 -0.0030
   86CHL1   C19 8810   4.413   1.769   7.144  0.2685 -0.0147 -0.1614
   86CHL1  H19A 8811   4.438   1.770   7.036  2.1659  1.3254  0.2402
   86CHL1  H19B 8812   4.513   1.793   7.187  0.3852 -1.1446  0.2149
   86CHL1  H19C 8813   4.386   1.667   7.178  0.7535 -0.7961 -2.0774
   86CHL1    C1 8814   4.166   1.796   7.111  0.3833  0.1927  0.2794
   86CHL1   H1A 8815   4.155   1.688   7.136 -0.2681  0.0781 -0.4946
   86CHL1   H1B 8816   4.083   1.857   7.152  1.6715  1.0114  1.7128
   86CHL1    C2 8817   4.153   1.794   6.962 -0.2170 -0.2614  0.0101
   86CHL1   H2A 8818   4.059   1.754   6.918  1.2758 -0.7179 -2.9302
   86CHL1   H2B 8819   4.232   1.721   6.933 -0.4876 -0.2751 -0.7122
   86CHL1   C20 8820   4.355   1.848   7.880  0.3571 -0.1119 -0.3210
   86CHL1   H20 8821   4.459   1.809   7.870 -0.1090 -1.2250 -0.8569
   86CHL1   C21 8822   4.266   1.716   7.874  0.6102  0.0712 -0.2013
   86CHL1  H21A 8823   4.315   1.652   7.798 -0.3002  1.3346 -1.8833
   86CHL1  H21B 8824   4.165   1.729   7.830  0.2669 -0.0924  0.5276
   86CHL1  H21C 8825   4.262   1.670   7.976 -1.7742 -0.1320 -0.3591
   86CHL1   C22 8826   4.328   1.929   8.019  0.2399  0.4476 -0.3617
   86CHL1  H22A 8827   4.351   1.855   8.099  1.4150  0.2459 -0.8661
   86CHL1  H22B 8828   4.409   2.005   8.020  1.2514 -0.5670 -2.3884
   86CHL1   C23 8829   4.184   1.980   8.030  0.1458 -0.3979 -0.5200
   86CHL1  H23A 8830   4.145   2.042   7.946 -0.8310 -1.0144 -0.5308
   86CHL1  H23B 8831   4.114   1.894   8.040  0.5799 -0.7977 -0.9399
   86CHL1   C24 8832   4.178   2.067   8.156 -0.3713 -0.2410 -0.9330
   86CHL1  H24A 8833   4.207   2.006   8.244 -1.8463 -0.4312 -0.5548
   86CHL1  H24B 8834   4.235   2.162   8.149  2.8107 -2.1000 -1.1460
   86CHL1   C25 8835   4.023   2.111   8.180 -0.0908  0.0645  0.5544
   86CHL1   H25 8836   3.987   2.173   8.095  0.7123  1.4450  1.2057
   86CHL1   C26 8837   3.929   1.987   8.205 -0.5387  0.5505  0.1785
   86CHL1  H26A 8838   3.970   1.925   8.287 -1.5608  0.9326  0.9786
   86CHL1  H26B 8839   3.825   2.018   8.227 -1.6059 -2.9894  0.2999
   86CHL1  H26C 8840   3.925   1.912   8.123 -0.0598 -1.3474  1.8415
   86CHL1   C27 8841   4.033   2.207   8.297 -0.2240  0.6653 -0.2113
   86CHL1  H27A 8842   3.928   2.226   8.326 -0.1377  1.6111 -0.5146
   86CHL1  H27B 8843   4.080   2.167   8.389  0.0920  0.1659 -0.5833
   86CHL1  H27C 8844   4.091   2.299   8.277 -1.7869  1.3403 -1.7363
   87CHL1    C3 8845   4.453   0.206   7.085 -0.1793  0.1321 -0.4562
   87CHL1    H3 8846   4.469   0.098   7.066  2.5751  0.2915  0.6362
   87CHL1    O3 8847   4.415   0.273   6.966 -0.2102  0.1099 -0.2465
   87CHL1   H3' 8848   4.323   0.258   6.941  0.2990  0.1132 -2.2396
   87CHL1    C4 8849   4.364   0.238   7.202  0.6227  0.1817 -0.2379
   87CHL1   H4A 8850   4.356   0.349   7.206  2.7093  0.4046 -1.4919
   87CHL1   H4B 8851   4.263   0.198   7.179 -0.0507  0.5251  1.9957
   87CHL1    C5 8852   4.417   0.183   7.331 -0.0645 -0.3817  0.3049
   87CHL1    C6 8853   4.337   0.104   7.398  0.3075  0.5293 -0.2524
   87CHL1    H6 8854   4.233   0.081   7.369  0.3898  2.0509 -1.8133
   87CHL1    C7 8855   4.363   0.052   7.540 -0.2399  0.2349  0.2099
   87CHL1   H7A 8856   4.275   0.074   7.605  1.8409  0.4637  3.0169
   87CHL1   H7B 8857   4.395  -0.053   7.525 -0.9934 -0.1083  0.9323
   87CHL1    C8 8858   4.499   0.110   7.604 -0.5949 -0.0193  0.4098
   87CHL1    H8 8859   4.470   0.204   7.655 -1.7559 -0.1365 -0.0053
   87CHL1   C14 8860   4.549   0.003   7.702 -0.7024 -0.2424  0.0959
   87CHL1   H14 8861   4.588  -0.085   7.646 -1.1935 -0.9207  0.8094
   87CHL1   C15 8862   4.449  -0.056   7.805  0.2581  0.5709  0.7245
   87CHL1  H15A 8863   4.387   0.027   7.846 -3.3724 -1.2605 -0.8199
   87CHL1  H15B 8864   4.388  -0.139   7.762 -2.9401  2.5797  1.1987
   87CHL1   C16 8865   4.545  -0.111   7.910 -0.0749 -0.3516  0.2616
   87CHL1  H16A 8866   4.513  -0.083   8.013 -1.1806  1.8716 -0.6702
   87CHL1  H16B 8867   4.535  -0.222   7.914 -2.3851 -0.1509  0.9404
   87CHL1   C17 8868   4.692  -0.073   7.868 -0.1828 -0.1563  0.2814
   87CHL1   H17 8869   4.719  -0.155   7.799 -0.4903 -2.5511  2.9164
   87CHL1   C13 8870   4.668   0.052   7.774 -0.4293  0.2163 -0.3680
   87CHL1   C18 8871   4.646   0.181   7.856 -0.0817  0.4434 -0.3325
   87CHL1  H18A 8872   4.601   0.260   7.793 -0.0388 -0.6200 -1.7352
   87CHL1  H18B 8873   4.584   0.155   7.945  1.8346 -2.3894  0.2394
   87CHL1  H18C 8874   4.740   0.225   7.896  0.1396  0.4683 -0.8787
   87CHL1   C12 8875   4.780   0.081   7.669 -0.5544  0.4211 -0.5079
   87CHL1  H12A 8876   4.865   0.130   7.721  0.8243 -0.6660 -1.6771
   87CHL1  H12B 8877   4.809  -0.019   7.630 -0.3831  0.3942 -0.3122
   87CHL1   C11 8878   4.747   0.173   7.550 -0.0995  0.2196 -0.1185
   87CHL1  H11A 8879   4.753   0.275   7.594  0.3260  0.1804 -0.0814
   87CHL1  H11B 8880   4.830   0.165   7.478  3.0526  1.0714  3.2446
   87CHL1    C9 8881   4.605   0.129   7.496 -0.1593 -0.2656  0.8539
   87CHL1    H9 8882   4.624   0.030   7.450 -0.5984  0.7471 -1.5861
   87CHL1   C10 8883   4.560   0.218   7.373  0.3035  0.2513 -0.0779
   87CHL1   C19 8884   4.582   0.356   7.419  0.9310 -0.2048 -0.0810
   87CHL1  H19A 8885   4.685   0.391   7.398  0.6867  0.2968 -0.4724
   87CHL1  H19B 8886   4.522   0.430   7.362  2.8025  2.0029  0.7369
   87CHL1  H19C 8887   4.556   0.359   7.527  1.2789 -0.2219  0.0044
   87CHL1    C1 8888   4.647   0.194   7.241 -0.2487  0.0689  0.3250
   87CHL1   H1A 8889   4.752   0.228   7.253 -0.5008  1.0343 -0.1730
   87CHL1   H1B 8890   4.652   0.083   7.236  1.9757  0.2600 -2.9054
   87CHL1    C2 8891   4.597   0.258   7.113  0.8895  0.4471  0.4369
   87CHL1   H2A 8892   4.663   0.222   7.031 -0.6515  0.4053 -0.8200
   87CHL1   H2B 8893   4.606   0.369   7.116 -1.8997  0.7875 -1.6590
   87CHL1   C20 8894   4.788  -0.071   7.982 -0.1714  0.4792  0.3506
   87CHL1   H20 8895   4.785   0.030   8.029 -0.0167  0.1338  1.1095
   87CHL1   C21 8896   4.929  -0.080   7.923  0.7579  1.1812  0.2348
   87CHL1  H21A 8897   4.999  -0.055   8.007 -1.4525 -0.2496  2.5696
   87CHL1  H21B 8898   4.933  -0.015   7.833 -1.3745  1.1284  0.0973
   87CHL1  H21C 8899   4.943  -0.188   7.900 -0.0734  0.4842  2.7518
   87CHL1   C22 8900   4.757  -0.181   8.089  0.0626  0.6666 -0.8861
   87CHL1  H22A 8901   4.666  -0.150   8.144  1.1795 -0.8399  1.8975
   87CHL1  H22B 8902   4.748  -0.274   8.030 -2.6721  2.0922 -2.8094
   87CHL1   C23 8903   4.858  -0.185   8.201 -0.7061  0.2147  0.3459
   87CHL1  H23A 8904   4.949  -0.234   8.159 -1.1584  0.3623 -0.8217
   87CHL1  H23B 8905   4.893  -0.084   8.229 -1.5684  0.7641 -0.5592
   87CHL1   C24 8906   4.816  -0.262   8.323  0.7510  0.6667 -0.0257
   87CHL1  H24A 8907   4.717  -0.224   8.357  1.7214  1.9500  1.4518
   87CHL1  H24B 8908   4.813  -0.371   8.302  0.0508 -0.0116  3.2322
   87CHL1   C25 8909   4.907  -0.254   8.451  0.4116 -0.0519  0.4967
   87CHL1   H25 8910   5.012  -0.286   8.430  0.3597 -0.3789  0.7277
   87CHL1   C26 8911   4.903  -0.107   8.509 -0.1878  0.0366  0.2348
   87CHL1  H26A 8912   4.795  -0.084   8.517 -0.4689 -0.3377 -2.0623
   87CHL1  H26B 8913   4.960  -0.100   8.604  3.5347 -0.8323 -1.8572
   87CHL1  H26C 8914   4.949  -0.036   8.437  0.5201  0.9622  1.5843
   87CHL1   C27 8915   4.854  -0.347   8.560 -0.2292 -0.2732  0.5877
   87CHL1  H27A 8916   4.745  -0.347   8.577 -0.2981  0.3327  0.1214
   87CHL1  H27B 8917   4.884  -0.452   8.536 -0.4961 -0.1059 -0.5156
   87CHL1  H27C 8918   4.916  -0.329   8.650  0.0792  2.5125 -0.1564
   88CHL1    C3 8919   2.452   5.317   6.830  0.4925  0.0528 -0.0092
   88CHL1    H3 8920   2.471   5.213   6.863  1.4321  0.6224  1.3276
   88CHL1    O3 8921   2.431   5.327   6.689  0.2655  0.3891 -0.1211
   88CHL1   H3' 8922   2.361   5.261   6.678  0.8172 -0.4806  1.3089
   88CHL1    C4 8923   2.337   5.392   6.894 -0.3359 -0.2140  1.0435
   88CHL1   H4A 8924   2.330   5.495   6.853 -1.1988 -0.1901  1.2441
   88CHL1   H4B 8925   2.244   5.337   6.867 -1.4854  1.1242  2.2466
   88CHL1    C5 8926   2.354   5.391   7.046 -0.7018 -0.9168 -0.6866
   88CHL1    C6 8927   2.252   5.346   7.119 -1.0412  0.0956  0.6467
   88CHL1    H6 8928   2.159   5.316   7.068  1.0716 -1.9715 -2.2032
   88CHL1    C7 8929   2.251   5.346   7.266 -0.2847 -0.5234 -0.4675
   88CHL1   H7A 8930   2.160   5.398   7.303  1.7734  2.6877  0.3503
   88CHL1   H7B 8931   2.244   5.245   7.312 -0.8494 -0.8345 -1.2375
   88CHL1    C8 8932   2.380   5.410   7.327 -0.7572  0.3408  0.4064
   88CHL1    H8 8933   2.358   5.518   7.342  0.9075  0.8085 -0.4854
   88CHL1   C14 8934   2.396   5.340   7.462 -0.3147 -0.0134 -0.6161
   88CHL1   H14 8935   2.423   5.233   7.445 -3.6662 -1.2754  1.5187
   88CHL1   C15 8936   2.282   5.336   7.564 -0.4974  0.5736 -0.1902
   88CHL1  H15A 8937   2.242   5.439   7.578  0.1654  0.5423  2.3187
   88CHL1  H15B 8938   2.198   5.270   7.536 -2.4056  2.5811  0.6028
   88CHL1   C16 8939   2.357   5.297   7.688  0.6661  0.4439  0.6315
   88CHL1  H16A 8940   2.332   5.353   7.780  1.9712 -1.0890  1.9477
   88CHL1  H16B 8941   2.330   5.194   7.720 -0.8403  0.4788 -0.4671
   88CHL1   C17 8942   2.506   5.306   7.662  0.0295 -0.3896 -0.2527
   88CHL1   H17 8943   2.537   5.199   7.650  2.0071  0.1628 -0.3506
   88CHL1   C13 8944   2.521   5.386   7.535  0.2574  0.5643  0.4308
   88CHL1   C18 8945   2.509   5.533   7.579  0.3750  0.2924 -0.1103
   88CHL1  H18A 8946   2.444   5.552   7.667  0.4747 -1.7302  0.4252
   88CHL1  H18B 8947   2.607   5.564   7.622  0.2112 -0.9532  1.1760
   88CHL1  H18C 8948   2.485   5.604   7.496 -0.3189 -1.1302 -1.1496
   88CHL1   C12 8949   2.645   5.360   7.450  0.2340  0.1110 -0.1148
   88CHL1  H12A 8950   2.729   5.408   7.505 -1.0890 -0.4010  2.4475
   88CHL1  H12B 8951   2.671   5.255   7.423  0.6564  0.2235 -0.1515
   88CHL1   C11 8952   2.633   5.430   7.316 -0.0168  0.1666  0.2539
   88CHL1  H11A 8953   2.625   5.539   7.337  1.5770 -0.3291  3.7925
   88CHL1  H11B 8954   2.723   5.409   7.254 -0.5947  0.2189 -0.6087
   88CHL1    C9 8955   2.508   5.387   7.243  0.4537  0.1766 -0.3491
   88CHL1    H9 8956   2.520   5.277   7.236  1.8885  0.2376  0.9882
   88CHL1   C10 8957   2.492   5.440   7.099 -0.5139  0.0398  0.0286
   88CHL1   C19 8958   2.491   5.595   7.091 -0.7099  0.0834  0.2190
   88CHL1  H19A 8959   2.591   5.634   7.118  0.4557  0.1191 -3.8005
   88CHL1  H19B 8960   2.453   5.627   6.992 -2.3771  2.5711  1.6152
   88CHL1  H19C 8961   2.412   5.628   7.161  0.2251  0.4930  1.0915
   88CHL1    C1 8962   2.612   5.393   7.011  0.4625 -0.1510  0.4329
   88CHL1   H1A 8963   2.708   5.445   7.032  0.8660 -0.0999 -1.4851
   88CHL1   H1B 8964   2.618   5.285   7.038 -1.6655 -1.1425 -2.8186
   88CHL1    C2 8965   2.585   5.387   6.859  0.5516 -0.2408 -0.1249
   88CHL1   H2A 8966   2.674   5.335   6.817  0.4837 -1.6014  1.3562
   88CHL1   H2B 8967   2.578   5.495   6.834 -0.5182 -0.2438  0.1452
   88CHL1   C20 8968   2.598   5.336   7.789 -0.7891  0.9188 -0.2867
   88CHL1   H20 8969   2.568   5.440   7.814  3.3141  1.6926  1.7742
   88CHL1   C21 8970   2.752   5.336   7.751 -0.1365 -0.0527  0.8168
   88CHL1  H21A 8971   2.816   5.333   7.842 -0.1095 -1.4133  0.7656
   88CHL1  H21B 8972   2.775   5.434   7.704 -0.4914  0.7130  2.2028
   88CHL1  H21C 8973   2.772   5.255   7.678 -2.6083  1.2168 -1.3686
   88CHL1   C22 8974   2.562   5.255   7.914  0.6759 -0.5311 -0.1955
   88CHL1  H22A 8975   2.453   5.262   7.929  0.8720  2.4482  0.0344
   88CHL1  H22B 8976   2.594   5.149   7.899  4.2850  0.5877 -1.0180
   88CHL1   C23 8977   2.640   5.303   8.033  0.5709 -0.2547 -0.1829
   88CHL1  H23A 8978   2.751   5.309   8.026  0.4550 -0.1552 -1.9680
   88CHL1  H23B 8979   2.596   5.401   8.062 -0.2074 -1.3597  2.5809
   88CHL1   C24 8980   2.617   5.204   8.151  0.0842  0.4026 -0.5436
   88CHL1  H24A 8981   2.507   5.193   8.161 -0.0609  1.4764 -0.8907
   88CHL1  H24B 8982   2.647   5.110   8.101 -0.6949 -0.8245  1.2537
   88CHL1   C25 8983   2.698   5.225   8.283 -0.1009 -0.2623 -0.3006
   88CHL1   H25 8984   2.669   5.137   8.344 -1.1758  0.8173  0.7728
   88CHL1   C26 8985   2.853   5.227   8.261 -0.3423 -0.1538  0.2578
   88CHL1  H26A 8986   2.894   5.295   8.184 -0.0241 -1.7980 -1.0616
   88CHL1  H26B 8987   2.900   5.243   8.361  0.9318 -2.3089  0.0342
   88CHL1  H26C 8988   2.889   5.127   8.227  0.4775  0.0773  0.4332
   88CHL1   C27 8989   2.641   5.352   8.354  0.7036 -0.3739  0.0498
   88CHL1  H27A 8990   2.701   5.362   8.447  0.4063 -2.7478  0.5383
   88CHL1  H27B 8991   2.655   5.447   8.299 -2.4600  0.5060  0.6564
   88CHL1  H27C 8992   2.533   5.341   8.376  0.5905 -0.0043 -0.3078
   89CHL1    C3 8993   5.149   1.761   7.048 -0.0825  0.0323  0.6229
   89CHL1    H3 8994   5.051   1.743   7.098 -2.1970  3.0174 -2.2277
   89CHL1    O3 8995   5.128   1.803   6.915 -0.6870 -0.1996 -0.1852
   89CHL1   H3' 8996   5.199   1.758   6.870 -1.5648 -2.0630  0.2356
   89CHL1    C4 8997   5.221   1.865   7.135 -0.0594 -0.3452  0.2722
   89CHL1   H4A 8998   5.312   1.905   7.086 -1.5402  1.4536 -1.0633
   89CHL1   H4B 8999   5.164   1.960   7.129  1.3603  0.4300 -1.0507
   89CHL1    C5 9000   5.261   1.814   7.273 -0.5218  0.1365 -0.6480
   89CHL1    C6 9001   5.218   1.876   7.390 -0.1220 -0.1277  0.2576
   89CHL1    H6 9002   5.178   1.978   7.378 -1.0012 -0.5397 -0.3247
   89CHL1    C7 9003   5.242   1.833   7.529 -0.1597 -0.3940  0.7976
   89CHL1   H7A 9004   5.282   1.915   7.591 -1.8623  0.3841  0.9142
   89CHL1   H7B 9005   5.154   1.798   7.587 -1.0859 -1.0099 -0.9079
   89CHL1    C8 9006   5.358   1.728   7.526 -0.2335 -0.4955 -0.6650
   89CHL1    H8 9007   5.452   1.785   7.510 -0.4728  0.0572 -0.1303
   89CHL1   C14 9008   5.350   1.665   7.662 -0.1363 -0.1799 -0.0796
   89CHL1   H14 9009   5.255   1.609   7.669 -0.5655  0.2782 -2.0052
   89CHL1   C15 9010   5.359   1.758   7.788  0.0896  0.4523 -0.2344
   89CHL1  H15A 9011   5.439   1.833   7.772  0.1112  0.3595 -0.5706
   89CHL1  H15B 9012   5.263   1.810   7.805 -0.4667 -0.3789 -0.7808
   89CHL1   C16 9013   5.401   1.661   7.899 -0.0467 -0.5942 -0.4333
   89CHL1  H16A 9014   5.501   1.687   7.941 -0.5249  0.1999  0.2202
   89CHL1  H16B 9015   5.324   1.656   7.979 -0.5265 -1.6045 -0.9483
   89CHL1   C17 9016   5.412   1.521   7.838 -0.3459 -0.2317  0.5610
   89CHL1   H17 9017   5.312   1.473   7.849  0.1511 -1.6989 -1.0355
   89CHL1   C13 9018   5.447   1.552   7.690 -0.0306  0.1359 -0.0562
   89CHL1   C18 9019   5.597   1.605   7.678  0.0506  0.6600 -0.0179
   89CHL1  H18A 9020   5.668   1.525   7.707 -1.1827 -0.2124  0.6188
   89CHL1  H18B 9021   5.625   1.623   7.572 -2.3536 -0.5274 -0.9025
   89CHL1  H18C 9022   5.608   1.696   7.741  1.7877  1.0494 -0.8643
   89CHL1   C12 9023   5.422   1.441   7.591 -0.1903  0.6033 -0.0002
   89CHL1  H12A 9024   5.503   1.365   7.603 -0.2704  0.7672  1.7224
   89CHL1  H12B 9025   5.324   1.393   7.613 -0.0231 -0.8483 -2.2650
   89CHL1   C11 9026   5.421   1.493   7.444 -0.0727  0.6190 -0.4890
   89CHL1  H11A 9027   5.525   1.500   7.403  0.3495 -1.2204  0.2146
   89CHL1  H11B 9028   5.380   1.414   7.377 -3.1676 -0.9403  3.1303
   89CHL1    C9 9029   5.335   1.626   7.417 -0.2314 -0.3464 -0.4522
   89CHL1    H9 9030   5.234   1.581   7.432  0.0188 -1.0020 -0.6938
   89CHL1   C10 9031   5.333   1.680   7.275 -0.0889  0.6203  0.1635
   89CHL1   C19 9032   5.470   1.705   7.230  0.3322  0.7679  0.1227
   89CHL1  H19A 9033   5.465   1.747   7.127 -1.2806  0.4654  0.0678
   89CHL1  H19B 9034   5.523   1.773   7.300  0.9456  0.0361  0.3800
   89CHL1  H19C 9035   5.535   1.615   7.229  0.8269  1.1109  0.9170
   89CHL1    C1 9036   5.265   1.578   7.186  0.0119 -0.1797 -0.3261
   89CHL1   H1A 9037   5.340   1.497   7.174  0.3916  0.2579 -0.9690
   89CHL1   H1B 9038   5.169   1.557   7.237 -0.3652  1.3717 -0.3849
   89CHL1    C2 9039   5.228   1.632   7.044  0.4529  0.4498 -0.3375
   89CHL1   H2A 9040   5.171   1.557   6.984 -0.4836 -0.2002  1.3127
   89CHL1   H2B 9041   5.322   1.655   6.989  2.1687 -1.9286  1.4698
   89CHL1   C20 9042   5.512   1.437   7.923 -0.1747 -0.0462  0.1057
   89CHL1   H20 9043   5.609   1.489   7.911 -0.1550 -0.1966 -0.3885
   89CHL1   C21 9044   5.526   1.287   7.872  0.2183 -0.1451  0.0476
   89CHL1  H21A 9045   5.582   1.280   7.777 -1.7451 -1.0828 -1.0647
   89CHL1  H21B 9046   5.427   1.239   7.861  0.1373  0.3409 -1.3882
   89CHL1  H21C 9047   5.581   1.234   7.952  3.2614  0.0493 -1.8525
   89CHL1   C22 9048   5.485   1.434   8.084 -0.0600 -0.3587  0.1010
   89CHL1  H22A 9049   5.555   1.365   8.135 -1.1877 -0.3457  1.6946
   89CHL1  H22B 9050   5.516   1.531   8.129 -1.5590  1.1097 -1.8753
   89CHL1   C23 9051   5.344   1.384   8.131  0.9357  0.2632 -0.3377
   89CHL1  H23A 9052   5.258   1.440   8.088  0.7750  1.0373  0.9651
   89CHL1  H23B 9053   5.339   1.279   8.098 -0.8553  0.5405 -0.9871
   89CHL1   C24 9054   5.325   1.395   8.282 -0.3488 -0.0153  0.0412
   89CHL1  H24A 9055   5.225   1.356   8.308 -0.4386 -0.5092 -1.0101
   89CHL1  H24B 9056   5.406   1.336   8.331  0.4996 -0.8454 -2.2757
   89CHL1   C25 9057   5.338   1.539   8.334 -0.3382  0.7143  0.9857
   89CHL1   H25 9058   5.426   1.594   8.294 -1.2552 -0.2289 -2.5463
   89CHL1   C26 9059   5.218   1.618   8.297 -0.1619  0.2520  0.0475
   89CHL1  H26A 9060   5.222   1.655   8.192  0.5221 -2.4441 -0.9275
   89CHL1  H26B 9061   5.121   1.566   8.311 -1.3936  2.2908 -0.7480
   89CHL1  H26C 9062   5.214   1.711   8.356 -1.3016 -0.3153  0.8765
   89CHL1   C27 9063   5.348   1.530   8.494  0.2795  0.3552 -0.0581
   89CHL1  H27A 9064   5.362   1.633   8.535 -0.8810 -0.0446  1.3595
   89CHL1  H27B 9065   5.253   1.494   8.540  1.2996 -1.2946  0.7884
   89CHL1  H27C 9066   5.435   1.471   8.528  1.0386  0.6763 -1.3990
   90CHL1    C3 9067   5.508   3.842   6.949  0.2442  0.4872  0.5993
   90CHL1    H3 9068   5.590   3.917   6.946  0.1692  0.4852 -1.8425
   90CHL1    O3 9069   5.478   3.812   6.816  0.1252  0.2501 -0.1353
   90CHL1   H3' 9070   5.394   3.765   6.821 -0.2863  1.0748  0.8753
   90CHL1    C4 9071   5.532   3.710   7.031 -0.0686  0.3179  0.5569
   90CHL1   H4A 9072   5.452   3.634   7.019 -1.1590  1.8033 -1.8354
   90CHL1   H4B 9073   5.624   3.670   6.984 -0.7873  1.1044 -1.5932
   90CHL1    C5 9074   5.549   3.728   7.175  0.3227 -0.3688 -0.4532
   90CHL1    C6 9075   5.660   3.688   7.233 -0.2623 -0.0179 -0.6544
   90CHL1    H6 9076   5.735   3.646   7.164 -0.1961 -0.5304 -0.2715
   90CHL1    C7 9077   5.690   3.704   7.374  0.4417  0.0728  0.1117
   90CHL1   H7A 9078   5.735   3.611   7.415  1.1644 -1.2802 -3.5928
   90CHL1   H7B 9079   5.757   3.792   7.379 -0.2167  0.7666 -2.3928
   90CHL1    C8 9080   5.564   3.736   7.463  0.4155 -0.5316  1.1896
   90CHL1    H8 9081   5.501   3.645   7.463 -2.0752  1.1395  1.2114
   90CHL1   C14 9082   5.606   3.787   7.590  0.4717 -0.1172 -0.2095
   90CHL1   H14 9083   5.672   3.874   7.570 -0.1792 -0.0123 -2.0033
   90CHL1   C15 9084   5.693   3.694   7.679  0.3999 -0.0004 -0.4828
   90CHL1  H15A 9085   5.641   3.596   7.686  2.1450 -0.8489  1.0842
   90CHL1  H15B 9086   5.799   3.695   7.647  0.7018  0.0253  0.5037
   90CHL1   C16 9087   5.700   3.779   7.813 -0.4153 -0.0537 -0.9194
   90CHL1  H16A 9088   5.676   3.712   7.899  2.4358 -1.8493 -1.4489
   90CHL1  H16B 9089   5.802   3.819   7.830  0.2377 -2.7366  1.9355
   90CHL1   C17 9090   5.591   3.890   7.799  0.2490  0.5361  0.2626
   90CHL1   H17 9091   5.650   3.983   7.785  2.1532 -0.6619  0.1147
   90CHL1   C13 9092   5.503   3.852   7.676 -0.1607 -0.6008 -0.1393
   90CHL1   C18 9093   5.402   3.747   7.724 -0.1123  0.4935 -0.2253
   90CHL1  H18A 9094   5.328   3.812   7.775 -0.8812  0.2087 -0.9728
   90CHL1  H18B 9095   5.352   3.695   7.640  0.9382  0.8632 -1.0894
   90CHL1  H18C 9096   5.454   3.684   7.800  0.4788  3.0410  1.5653
   90CHL1   C12 9097   5.430   3.972   7.604 -0.1419 -0.0893 -0.1811
   90CHL1  H12A 9098   5.343   4.007   7.664 -0.2256 -1.7754  0.7237
   90CHL1  H12B 9099   5.500   4.056   7.589  0.2007 -0.3473 -0.0528
   90CHL1   C11 9100   5.376   3.921   7.470  0.2670  0.2581 -0.1703
   90CHL1  H11A 9101   5.294   3.849   7.490  1.4093 -0.8377  0.6572
   90CHL1  H11B 9102   5.324   3.999   7.409  1.2819  0.0637 -1.3110
   90CHL1    C9 9103   5.484   3.846   7.387  0.2179 -0.6245 -0.2971
   90CHL1    H9 9104   5.552   3.933   7.369  0.0037 -0.4035 -0.0446
   90CHL1   C10 9105   5.434   3.800   7.244  0.0091 -0.0490 -0.1280
   90CHL1   C19 9106   5.312   3.708   7.258  0.1055  0.3890 -0.0041
   90CHL1  H19A 9107   5.273   3.673   7.160  1.1394  1.1332 -0.6935
   90CHL1  H19B 9108   5.328   3.618   7.321  0.4415  1.1118  0.9476
   90CHL1  H19C 9109   5.232   3.763   7.312  0.0093  0.9255 -0.6896
   90CHL1    C1 9110   5.399   3.932   7.160 -0.0794 -0.2807  0.1506
   90CHL1   H1A 9111   5.304   3.982   7.189 -0.8020 -1.7273  0.3596
   90CHL1   H1B 9112   5.480   4.004   7.183 -0.4981  0.1434  0.2960
   90CHL1    C2 9113   5.382   3.911   7.006 -0.0506  0.4177  0.7637
   90CHL1   H2A 9114   5.359   4.011   6.962 -1.8262 -1.1157 -1.8668
   90CHL1   H2B 9115   5.290   3.852   6.988 -0.0555  1.1733 -1.8810
   90CHL1   C20 9116   5.532   3.924   7.939  0.0961  0.0422 -0.2964
   90CHL1   H20 9117   5.474   3.834   7.969  0.8519 -0.4366 -0.2714
   90CHL1   C21 9118   5.431   4.037   7.923 -0.5619  0.3597  0.0715
   90CHL1  H21A 9119   5.380   4.080   8.011  0.5997  0.3888  0.7417
   90CHL1  H21B 9120   5.355   3.982   7.863  1.4218 -1.6538 -0.6887
   90CHL1  H21C 9121   5.460   4.127   7.865 -0.8026  1.3823  1.5432
   90CHL1   C22 9122   5.638   3.962   8.049  0.4426 -0.2315  0.0120
   90CHL1  H22A 9123   5.689   3.868   8.078 -0.1192 -0.4136  0.4354
   90CHL1  H22B 9124   5.700   4.042   8.004  0.8320 -0.2599  0.4884
   90CHL1   C23 9125   5.583   4.021   8.181 -0.6500 -0.2631  0.4689
   90CHL1  H23A 9126   5.527   4.115   8.163  1.8128  0.5402 -3.4981
   90CHL1  H23B 9127   5.505   3.958   8.229 -1.0685  0.0858  0.2388
   90CHL1   C24 9128   5.694   4.054   8.286  1.0053  0.0893 -0.4424
   90CHL1  H24A 9129   5.757   3.962   8.291 -1.9138 -1.9993 -0.8024
   90CHL1  H24B 9130   5.749   4.140   8.243  0.1093  0.0767 -1.6587
   90CHL1   C25 9131   5.641   4.098   8.426 -0.2766  0.8522  0.3829
   90CHL1   H25 9132   5.569   4.025   8.468  0.2887  0.5471  0.8233
   90CHL1   C26 9133   5.756   4.097   8.524  0.1264  0.0921  0.1583
   90CHL1  H26A 9134   5.829   4.017   8.498 -0.3054 -0.2512  0.0090
   90CHL1  H26B 9135   5.814   4.192   8.516 -0.3028  0.4789  1.5058
   90CHL1  H26C 9136   5.721   4.074   8.627 -1.7031  1.1749 -0.2075
   90CHL1   C27 9137   5.571   4.233   8.428  0.2362 -0.3367 -0.1574
   90CHL1  H27A 9138   5.632   4.314   8.382  0.5409 -1.5021 -1.8391
   90CHL1  H27B 9139   5.480   4.222   8.365 -0.5670 -0.1595  0.9529
   90CHL1  H27C 9140   5.542   4.263   8.531  1.3437 -0.1737  0.1147
   91CHL1    C3 9141   0.277   4.859   7.216 -0.4878  0.8018 -0.3795
   91CHL1    H3 9142   0.387   4.840   7.216 -0.3026  1.8078 -1.0313
   91CHL1    O3 9143   0.238   4.905   7.083 -0.0342  0.3945 -0.2544
   91CHL1   H3' 9144   0.252   4.835   7.019  0.0026  0.9463 -0.8552
   91CHL1    C4 9145   0.206   4.719   7.250 -0.0221 -0.3863  0.1418
   91CHL1   H4A 9146   0.097   4.737   7.239 -0.2914 -1.5221  0.8953
   91CHL1   H4B 9147   0.239   4.643   7.177  1.7198 -0.0692  0.5857
   91CHL1    C5 9148   0.222   4.679   7.403 -0.4098  0.0983  0.2238
   91CHL1    C6 9149   0.261   4.556   7.432  0.2577 -0.0667  0.5375
   91CHL1    H6 9150   0.283   4.481   7.354  0.2365 -0.7363  1.1708
   91CHL1    C7 9151   0.264   4.502   7.570 -0.1929 -0.6504  0.4480
   91CHL1   H7A 9152   0.215   4.403   7.562  3.0275 -2.3470  0.7242
   91CHL1   H7B 9153   0.371   4.491   7.599  0.5801  0.4842 -1.8614
   91CHL1    C8 9154   0.198   4.594   7.677  0.1184  0.2273 -0.5697
   91CHL1    H8 9155   0.092   4.568   7.659 -0.1236  1.5328 -1.0914
   91CHL1   C14 9156   0.235   4.559   7.817  0.0311 -0.1822  0.0778
   91CHL1   H14 9157   0.338   4.598   7.833 -0.1577 -0.1218  1.1640
   91CHL1   C15 9158   0.231   4.409   7.850 -0.6683  0.0479 -0.0103
   91CHL1  H15A 9159   0.158   4.350   7.790 -1.1906  1.7572 -1.0943
   91CHL1  H15B 9160   0.334   4.385   7.816 -0.8055  0.3773 -0.6663
   91CHL1   C16 9161   0.224   4.406   7.997 -0.4353  0.4580  0.1772
   91CHL1  H16A 9162   0.137   4.347   8.032 -0.8336  2.2823  2.3817
   91CHL1  H16B 9163   0.312   4.355   8.044 -1.5918  0.1396  2.0460
   91CHL1   C17 9164   0.209   4.552   8.054 -0.4152  0.8967  0.2269
   91CHL1   H17 9165   0.308   4.597   8.076 -0.1121  0.5682 -0.4347
   91CHL1   C13 9166   0.161   4.633   7.930 -0.2033  0.5524 -0.2394
   91CHL1   C18 9167   0.013   4.605   7.919 -0.3630  0.4188  0.7597
   91CHL1  H18A 9168  -0.003   4.495   7.915  0.4736  0.2878  0.9758
   91CHL1  H18B 9169  -0.044   4.644   8.006 -4.1377  0.6460 -1.7027
   91CHL1  H18C 9170  -0.031   4.651   7.828  0.3042 -1.6838 -0.6680
   91CHL1   C12 9171   0.194   4.786   7.916 -0.0845 -0.5769 -0.1521
   91CHL1  H12A 9172   0.144   4.847   7.994 -1.7433 -2.1216  0.0307
   91CHL1  H12B 9173   0.302   4.786   7.939  0.0338  0.5407 -0.7221
   91CHL1   C11 9174   0.160   4.831   7.772 -0.8124 -0.0212  0.1972
   91CHL1  H11A 9175   0.049   4.834   7.768 -0.7766 -0.2283 -1.1527
   91CHL1  H11B 9176   0.178   4.940   7.761  1.8737 -0.5323 -0.9344
   91CHL1    C9 9177   0.218   4.745   7.655 -0.3875  0.1356 -0.0058
   91CHL1    H9 9178   0.328   4.757   7.665 -0.3557 -0.1064 -0.0570
   91CHL1   C10 9179   0.186   4.790   7.511 -1.0037 -0.3043  0.4147
   91CHL1   C19 9180   0.032   4.829   7.513 -0.4345  0.5197 -0.2812
   91CHL1  H19A 9181   0.014   4.917   7.578  2.3665  2.2107 -1.6824
   91CHL1  H19B 9182  -0.007   4.849   7.411 -0.5243  1.7749 -0.0035
   91CHL1  H19C 9183  -0.016   4.737   7.553  0.0100  1.0404  1.5004
   91CHL1    C1 9184   0.256   4.922   7.470  0.6430 -0.3076 -0.4149
   91CHL1   H1A 9185   0.219   5.006   7.532  0.0224  0.8331 -2.2841
   91CHL1   H1B 9186   0.365   4.908   7.486  0.3717 -1.0096  0.9092
   91CHL1    C2 9187   0.236   4.966   7.321 -0.0358  0.2186  0.1626
   91CHL1   H2A 9188   0.293   5.060   7.308 -1.5705  1.1900  0.4350
   91CHL1   H2B 9189   0.130   4.997   7.310  0.7428  3.4058  1.1900
   91CHL1   C20 9190   0.125   4.555   8.188 -0.0739  0.4521  0.2199
   91CHL1   H20 9191   0.018   4.536   8.163 -0.0279  0.6043 -0.1014
   91CHL1   C21 9192   0.116   4.696   8.243 -0.5636  0.6116  0.3656
   91CHL1  H21A 9193   0.040   4.699   8.324 -0.5105  0.4313  0.4237
   91CHL1  H21B 9194   0.088   4.774   8.169  1.0532 -0.1682 -1.1083
   91CHL1  H21C 9195   0.213   4.731   8.285 -0.2093  1.0106 -0.7738
   91CHL1   C22 9196   0.170   4.461   8.303  0.3358 -0.7603  0.9638
   91CHL1  H22A 9197   0.166   4.360   8.256 -0.2091  0.4988 -1.7686
   91CHL1  H22B 9198   0.276   4.476   8.332  0.8009 -1.0320 -0.5569
   91CHL1   C23 9199   0.076   4.457   8.425 -0.6290 -0.0550  0.2041
   91CHL1  H23A 9200   0.088   4.548   8.486 -0.1389  1.0050 -1.4308
   91CHL1  H23B 9201  -0.029   4.451   8.388 -0.6878  0.0592  0.3525
   91CHL1   C24 9202   0.095   4.337   8.511 -0.4933 -0.8049  0.4942
   91CHL1  H24A 9203   0.053   4.243   8.470 -2.6144 -0.1237  1.0138
   91CHL1  H24B 9204   0.205   4.323   8.517 -0.2101  0.8181 -0.5139
   91CHL1   C25 9205   0.043   4.344   8.659  0.1511  0.1890  0.1510
   91CHL1   H25 9206   0.091   4.425   8.719 -0.6827  0.2828  0.7139
   91CHL1   C26 9207  -0.106   4.364   8.655 -0.4787 -0.2847  0.5193
   91CHL1  H26A 9208  -0.133   4.459   8.605 -0.2820 -0.4852  0.0303
   91CHL1  H26B 9209  -0.166   4.287   8.601  1.8295 -0.6519 -1.5582
   91CHL1  H26C 9210  -0.158   4.378   8.753  1.1193 -1.0816  1.4981
   91CHL1   C27 9211   0.075   4.218   8.734  0.2522  0.5874  1.2564
   91CHL1  H27A 9212   0.019   4.124   8.714  0.8894  0.1632  1.4571
   91CHL1  H27B 9213   0.185   4.205   8.727  0.2625  2.3107 -3.1756
   91CHL1  H27C 9214   0.061   4.237   8.842  0.3292  0.3474  1.3087
   92CHL1    C3 9215   3.055   6.698   6.689 -0.5372 -0.4233 -0.4860
   92CHL1    H3 9216   3.079   6.794   6.739  2.5884 -0.8778 -1.0423
   92CHL1    O3 9217   3.126   6.703   6.568  0.3098 -0.4325  0.1850
   92CHL1   H3' 9218   3.069   6.669   6.498 -0.2190  1.1248 -0.1390
   92CHL1    C4 9219   3.108   6.580   6.766 -0.5179  0.3693 -0.2383
   92CHL1   H4A 9220   3.102   6.478   6.722 -0.4859  0.8406 -1.3440
   92CHL1   H4B 9221   3.219   6.580   6.770 -0.4681 -0.8006 -1.1957
   92CHL1    C5 9222   3.042   6.569   6.906  0.2075  0.3443  1.2712
   92CHL1    C6 9223   3.111   6.567   7.019  0.1906 -0.3751 -0.0230
   92CHL1    H6 9224   3.219   6.543   7.023  0.1993 -0.3700 -0.2180
   92CHL1    C7 9225   3.050   6.565   7.151 -0.1784 -0.0617  0.6952
   92CHL1   H7A 9226   3.114   6.500   7.215 -0.1228  1.2060  1.9494
   92CHL1   H7B 9227   3.046   6.668   7.194 -2.1680  0.5916 -0.9675
   92CHL1    C8 9228   2.901   6.518   7.144 -0.5011 -0.0417 -0.5225
   92CHL1    H8 9229   2.900   6.408   7.126 -1.3433 -0.0141 -0.6384
   92CHL1   C14 9230   2.832   6.530   7.277 -0.0604  0.1344  0.4357
   92CHL1   H14 9231   2.831   6.639   7.294  0.5338  0.2033  0.0469
   92CHL1   C15 9232   2.901   6.467   7.398 -0.6630  0.6153  0.0461
   92CHL1  H15A 9233   2.933   6.364   7.370 -1.6944  0.6781 -1.4139
   92CHL1  H15B 9234   2.985   6.525   7.441 -1.1495  0.3824  1.3367
   92CHL1   C16 9235   2.783   6.457   7.502 -0.5006  0.5362 -0.0458
   92CHL1  H16A 9236   2.760   6.349   7.516 -2.7104  1.0338  0.3406
   92CHL1  H16B 9237   2.813   6.489   7.604 -2.0253 -0.1148  0.6251
   92CHL1   C17 9238   2.656   6.520   7.434 -0.7790  0.0132  0.0241
   92CHL1   H17 9239   2.668   6.630   7.447  1.5754 -0.2977  0.5955
   92CHL1   C13 9240   2.682   6.491   7.284  0.1125  0.3982  0.6549
   92CHL1   C18 9241   2.665   6.336   7.256  0.9427 -0.3613 -0.7159
   92CHL1  H18A 9242   2.701   6.312   7.153 -1.6347  1.8465 -2.2096
   92CHL1  H18B 9243   2.729   6.273   7.321  1.3106  0.4923 -0.2516
   92CHL1  H18C 9244   2.559   6.306   7.271  0.8356  0.4046  0.0901
   92CHL1   C12 9245   2.609   6.587   7.192 -0.1343 -0.6025 -0.3563
   92CHL1  H12A 9246   2.500   6.562   7.193 -0.7906  1.9341 -1.6028
   92CHL1  H12B 9247   2.626   6.684   7.243 -1.1101 -0.5061 -0.1935
   92CHL1   C11 9248   2.666   6.580   7.051  0.4613  0.4764 -0.1431
   92CHL1  H11A 9249   2.636   6.484   7.005  0.3645  0.6157 -0.3706
   92CHL1  H11B 9250   2.628   6.655   6.978 -0.9159 -1.2872 -1.2928
   92CHL1    C9 9251   2.828   6.596   7.039 -0.2165  0.2963 -0.7304
   92CHL1    H9 9252   2.849   6.703   7.060  1.1026  0.5490 -3.1244
   92CHL1   C10 9253   2.886   6.577   6.897 -0.0466 -0.0902 -0.0452
   92CHL1   C19 9254   2.824   6.451   6.844 -0.6774  0.4220 -0.0378
   92CHL1  H19A 9255   2.849   6.370   6.916 -1.9392  1.5842  1.7390
   92CHL1  H19B 9256   2.719   6.468   6.810 -0.8129 -1.8396 -0.8484
   92CHL1  H19C 9257   2.872   6.422   6.748 -0.7265  1.7790 -0.4843
   92CHL1    C1 9258   2.845   6.694   6.802  0.2506 -0.4205 -0.0004
   92CHL1   H1A 9259   2.735   6.692   6.791  0.3480 -2.3873 -0.7618
   92CHL1   H1B 9260   2.872   6.792   6.847 -1.7932  0.2228 -0.1455
   92CHL1    C2 9261   2.909   6.685   6.665 -0.0276 -0.2592 -0.3119
   92CHL1   H2A 9262   2.879   6.767   6.597 -3.0291  1.8018  3.2929
   92CHL1   H2B 9263   2.888   6.588   6.615 -1.4823 -0.4250  0.5817
   92CHL1   C20 9264   2.527   6.480   7.511  0.7771  0.2835  0.0774
   92CHL1   H20 9265   2.506   6.372   7.502 -3.1664  1.0527 -1.0200
   92CHL1   C21 9266   2.402   6.540   7.445 -0.2484  0.2430 -1.0287
   92CHL1  H21A 9267   2.418   6.650   7.435 -3.7947  0.9508  0.5869
   92CHL1  H21B 9268   2.311   6.509   7.500 -0.5034  2.6206 -0.0618
   92CHL1  H21C 9269   2.394   6.495   7.344 -2.0234  1.0572 -1.2707
   92CHL1   C22 9270   2.532   6.516   7.661 -0.0020  0.5972  0.1304
   92CHL1  H22A 9271   2.445   6.464   7.707  0.6433  2.7206  3.9197
   92CHL1  H22B 9272   2.619   6.461   7.703 -0.3168  0.1719  0.2365
   92CHL1   C23 9273   2.517   6.655   7.715 -0.1067 -0.3925 -0.4942
   92CHL1  H23A 9274   2.589   6.723   7.666  0.4765 -1.1013 -0.6295
   92CHL1  H23B 9275   2.417   6.692   7.685 -0.9361 -2.7939 -0.7771
   92CHL1   C24 9276   2.535   6.668   7.874 -0.6827  0.1490 -0.1269
   92CHL1  H24A 9277   2.637   6.633   7.899  0.0534 -0.6408 -4.0631
   92CHL1  H24B 9278   2.536   6.779   7.888 -0.9989 -0.0845  2.0414
   92CHL1   C25 9279   2.439   6.595   7.965  0.1499 -0.2662 -0.1018
   92CHL1   H25 9280   2.447   6.485   7.963 -0.1814 -0.2996  0.3091
   92CHL1   C26 9281   2.464   6.625   8.113  0.4765 -0.3545  0.0834
   92CHL1  H26A 9282   2.571   6.613   8.138  0.5452 -0.1325 -0.1053
   92CHL1  H26B 9283   2.431   6.723   8.154 -1.1701 -0.5198 -0.7726
   92CHL1  H26C 9284   2.408   6.553   8.177  0.4393  0.3363  0.8239
   92CHL1   C27 9285   2.296   6.632   7.931 -0.1767 -0.8493 -0.1983
   92CHL1  H27A 9286   2.264   6.601   7.829  1.8085  0.0547 -1.1123
   92CHL1  H27B 9287   2.232   6.583   8.007 -0.9120  0.1162 -0.1912
   92CHL1  H27C 9288   2.298   6.743   7.933 -1.6806 -0.8024 -0.3128
   93CHL1    C3 9289   1.737   4.384   6.946  0.3139  0.9472 -0.4064
   93CHL1    H3 9290   1.842   4.402   6.978 -0.6539  2.4195  2.1447
   93CHL1    O3 9291   1.729   4.413   6.810  0.0989 -0.4395 -0.3427
   93CHL1   H3' 9292   1.641   4.380   6.789  1.1716 -2.9113 -1.2584
   93CHL1    C4 9293   1.695   4.242   6.986  0.4031  0.1272 -0.2319
   93CHL1   H4A 9294   1.590   4.228   6.953  0.0838 -0.1187  0.8971
   93CHL1   H4B 9295   1.751   4.167   6.927 -3.2747 -2.6538 -0.3373
   93CHL1    C5 9296   1.713   4.229   7.130 -0.8715  0.5863  0.1053
   93CHL1    C6 9297   1.800   4.138   7.182  0.4017 -0.1395 -0.3183
   93CHL1    H6 9298   1.838   4.065   7.109 -2.7156 -0.0925 -2.0848
   93CHL1    C7 9299   1.830   4.118   7.328 -0.1181  0.3629  1.0447
   93CHL1   H7A 9300   1.833   4.007   7.338  2.0690  0.4324  1.3212
   93CHL1   H7B 9301   1.934   4.139   7.360 -0.9779  3.3450  2.0420
   93CHL1    C8 9302   1.723   4.178   7.424 -0.4647 -0.0039 -0.2584
   93CHL1    H8 9303   1.635   4.110   7.412 -0.7937  0.0680  1.6126
   93CHL1   C14 9304   1.781   4.182   7.568 -0.3522 -0.6709 -0.5841
   93CHL1   H14 9305   1.868   4.251   7.570 -0.7576 -0.1716 -0.1628
   93CHL1   C15 9306   1.837   4.048   7.627 -0.7396  0.2537 -0.6883
   93CHL1  H15A 9307   1.777   3.956   7.607 -0.0074 -0.4666  0.3293
   93CHL1  H15B 9308   1.937   4.023   7.587 -0.7866  1.4037 -1.5391
   93CHL1   C16 9309   1.833   4.078   7.776  0.4318 -0.0649 -0.0101
   93CHL1  H16A 9310   1.758   4.017   7.830  0.5337  0.7913  1.1104
   93CHL1  H16B 9311   1.926   4.054   7.832  0.4393  1.3681  0.6212
   93CHL1   C17 9312   1.778   4.228   7.797 -0.4194  0.1194 -0.8228
   93CHL1   H17 9313   1.869   4.292   7.792  0.4040 -0.8451  1.0508
   93CHL1   C13 9314   1.695   4.254   7.670  0.1509 -0.2721  0.7028
   93CHL1   C18 9315   1.562   4.183   7.684 -0.3991 -0.0372  0.1746
   93CHL1  H18A 9316   1.600   4.078   7.687  1.5508  0.5896 -1.8145
   93CHL1  H18B 9317   1.495   4.201   7.771 -0.3706  2.3777 -0.2802
   93CHL1  H18C 9318   1.498   4.201   7.595  0.0186 -1.4895 -0.4440
   93CHL1   C12 9319   1.677   4.402   7.622 -0.1454  0.5180 -0.1158
   93CHL1  H12A 9320   1.591   4.449   7.675 -2.3220 -0.9469 -2.2234
   93CHL1  H12B 9321   1.775   4.443   7.652 -0.1938  0.2393  0.4376
   93CHL1   C11 9322   1.626   4.413   7.477  0.5369  0.5762  0.5199
   93CHL1  H11A 9323   1.520   4.379   7.480  0.7930 -0.1411  1.7445
   93CHL1  H11B 9324   1.606   4.521   7.456 -0.0058  0.6510  1.3867
   93CHL1    C9 9325   1.700   4.324   7.375  0.3464 -0.5633 -0.0138
   93CHL1    H9 9326   1.801   4.369   7.378 -0.3106  0.8314  2.2224
   93CHL1   C10 9327   1.644   4.326   7.231 -0.3000 -0.0931  0.4743
   93CHL1   C19 9328   1.489   4.301   7.236 -0.2590 -0.7771 -0.4007
   93CHL1  H19A 9329   1.427   4.368   7.299  1.7197  0.7622 -0.0152
   93CHL1  H19B 9330   1.445   4.321   7.137  0.5316  1.1745 -0.3728
   93CHL1  H19C 9331   1.474   4.198   7.275 -0.9042 -0.4406  0.2551
   93CHL1    C1 9332   1.664   4.467   7.169 -0.5363 -0.1734 -0.0773
   93CHL1   H1A 9333   1.590   4.535   7.215  0.9408  1.5476 -0.1716
   93CHL1   H1B 9334   1.759   4.504   7.214 -2.2214  0.8492  2.7233
   93CHL1    C2 9335   1.654   4.497   7.022  0.2378  0.3524  0.1154
   93CHL1   H2A 9336   1.707   4.591   6.997  1.6581 -0.3809  0.2997
   93CHL1   H2B 9337   1.547   4.494   6.991 -0.0163  1.7431  0.8588
   93CHL1   C20 9338   1.713   4.238   7.932 -0.1883 -0.8742  0.0519
   93CHL1   H20 9339   1.633   4.162   7.940 -0.4062 -0.7886 -1.2488
   93CHL1   C21 9340   1.643   4.379   7.959 -0.3608  0.3236 -0.2940
   93CHL1  H21A 9341   1.579   4.408   7.873  0.2158  0.7302 -0.5881
   93CHL1  H21B 9342   1.716   4.462   7.965  2.3510 -2.0502  0.9195
   93CHL1  H21C 9343   1.575   4.377   8.047 -0.9130  0.8769 -0.7018
   93CHL1   C22 9344   1.809   4.197   8.051  0.6223  0.1814  0.5570
   93CHL1  H22A 9345   1.814   4.086   8.051 -1.6770  0.0479  3.1392
   93CHL1  H22B 9346   1.914   4.231   8.035  1.2742 -1.8873  0.1980
   93CHL1   C23 9347   1.766   4.252   8.189 -0.0140  0.8180 -0.6534
   93CHL1  H23A 9348   1.776   4.362   8.182  2.8170  0.5947 -0.7221
   93CHL1  H23B 9349   1.658   4.234   8.205  0.5088 -1.6013  0.4828
   93CHL1   C24 9350   1.846   4.186   8.304  0.1167  0.7907 -0.5223
   93CHL1  H24A 9351   1.852   4.079   8.275 -1.7752  0.4635  0.1825
   93CHL1  H24B 9352   1.949   4.225   8.291 -0.0798  1.4051 -0.2770
   93CHL1   C25 9353   1.789   4.203   8.447  0.2550  0.1036  0.1625
   93CHL1   H25 9354   1.767   4.311   8.460 -3.6095 -0.3268 -1.9550
   93CHL1   C26 9355   1.648   4.134   8.462  0.4014 -0.5485 -0.4190
   93CHL1  H26A 9356   1.574   4.202   8.413 -1.2516 -2.3440 -0.4956
   93CHL1  H26B 9357   1.648   4.037   8.408 -0.9470 -1.1292  0.5950
   93CHL1  H26C 9358   1.624   4.122   8.570 -0.1607 -0.5522 -0.5407
   93CHL1   C27 9359   1.883   4.152   8.556  0.4317 -0.8922  0.0355
   93CHL1  H27A 9360   1.921   4.053   8.523  0.9581 -0.3022 -1.1256
   93CHL1  H27B 9361   1.963   4.229   8.554  0.7557 -1.2659 -1.1351
   93CHL1  H27C 9362   1.829   4.133   8.652  0.0524  0.6631  0.1362
   94CHL1    C3 9363   3.580   0.596   7.025 -0.4664 -0.3629  0.5076
   94CHL1    H3 9364   3.491   0.658   7.051  1.1372  1.8502  0.8404
   94CHL1    O3 9365   3.614   0.628   6.891  0.0979  0.8430 -0.0737
   94CHL1   H3' 9366   3.658   0.713   6.895  2.4039 -0.4126  2.9591
   94CHL1    C4 9367   3.690   0.647   7.123 -0.4206 -0.4334 -0.6368
   94CHL1   H4A 9368   3.789   0.615   7.086 -0.2796  2.5033 -3.0048
   94CHL1   H4B 9369   3.692   0.758   7.117 -0.9860 -0.4762 -1.7787
   94CHL1    C5 9370   3.681   0.605   7.268 -0.3300  0.1401 -0.6286
   94CHL1    C6 9371   3.698   0.694   7.373  0.0684 -0.0013  0.4899
   94CHL1    H6 9372   3.716   0.800   7.349 -0.9278 -0.1134 -0.8213
   94CHL1    C7 9373   3.703   0.655   7.516 -0.3021  0.3162  0.3061
   94CHL1   H7A 9374   3.779   0.716   7.570  0.5582 -0.6921  0.2411
   94CHL1   H7B 9375   3.615   0.696   7.571  0.1194  1.2880  0.2694
   94CHL1    C8 9376   3.706   0.499   7.544 -0.8286 -0.3735  0.3790
   94CHL1    H8 9377   3.813   0.472   7.530 -0.7850  0.3022 -0.6600
   94CHL1   C14 9378   3.666   0.467   7.685  0.1813 -0.1731  0.1891
   94CHL1   H14 9379   3.557   0.486   7.701  0.3271  1.4812 -0.7661
   94CHL1   C15 9380   3.732   0.536   7.798 -0.3805  0.2489  0.0547
   94CHL1  H15A 9381   3.840   0.553   7.780 -0.3502 -1.7279 -1.8233
   94CHL1  H15B 9382   3.698   0.639   7.823 -0.6543  0.0587  0.4763
   94CHL1   C16 9383   3.702   0.442   7.918 -0.3435 -0.2159 -0.7857
   94CHL1  H16A 9384   3.787   0.419   7.986 -1.9246  1.1555  1.7591
   94CHL1  H16B 9385   3.628   0.484   7.989  1.1353  0.7434  0.2177
   94CHL1   C17 9386   3.633   0.310   7.867 -0.3714 -0.3670 -0.1933
   94CHL1   H17 9387   3.524   0.332   7.865 -0.5094 -1.0800 -0.5496
   94CHL1   C13 9388   3.676   0.311   7.721 -0.0407  0.8616 -0.3623
   94CHL1   C18 9389   3.828   0.265   7.722 -0.3075 -0.3069  0.5419
   94CHL1  H18A 9390   3.835   0.158   7.749 -0.5314 -0.0069  1.8216
   94CHL1  H18B 9391   3.867   0.276   7.618 -1.8573  1.4725  0.1065
   94CHL1  H18C 9392   3.892   0.319   7.795  2.0804 -1.5266 -0.5713
   94CHL1   C12 9393   3.592   0.241   7.612 -0.0860 -0.0660 -0.1353
   94CHL1  H12A 9394   3.608   0.131   7.626  0.7861 -0.2131 -2.1953
   94CHL1  H12B 9395   3.483   0.258   7.626 -0.2435 -0.8371 -0.3722
   94CHL1   C11 9396   3.629   0.271   7.473 -0.4059 -0.4096 -0.9234
   94CHL1  H11A 9397   3.736   0.243   7.460 -0.6344 -0.4888 -2.6806
   94CHL1  H11B 9398   3.575   0.208   7.399  0.8408 -2.9916  0.2971
   94CHL1    C9 9399   3.618   0.424   7.444 -0.6653 -0.4894 -0.0250
   94CHL1    H9 9400   3.517   0.463   7.467 -0.7308 -0.3339 -0.5681
   94CHL1   C10 9401   3.652   0.458   7.295  1.3066  0.8471 -0.5109
   94CHL1   C19 9402   3.785   0.386   7.265 -0.7451  0.3453 -0.7283
   94CHL1  H19A 9403   3.827   0.406   7.164 -2.7279  1.4845 -1.3711
   94CHL1  H19B 9404   3.868   0.404   7.337 -0.3248 -0.1434 -1.0836
   94CHL1  H19C 9405   3.765   0.277   7.257 -3.0133  0.7380 -0.8734
   94CHL1    C1 9406   3.539   0.411   7.194 -0.4321 -0.1320 -0.0918
   94CHL1   H1A 9407   3.524   0.301   7.195  1.5650 -0.4456 -0.9830
   94CHL1   H1B 9408   3.444   0.463   7.218  1.2083  2.6244  0.6624
   94CHL1    C2 9409   3.565   0.443   7.042  0.4878 -0.4277 -0.6580
   94CHL1   H2A 9410   3.478   0.408   6.984  1.0943 -1.6246 -0.8652
   94CHL1   H2B 9411   3.651   0.387   7.000  0.9254  0.0508 -0.4078
   94CHL1   C20 9412   3.645   0.184   7.958 -0.4704 -0.0316  1.0472
   94CHL1   H20 9413   3.747   0.141   7.961 -0.8534 -0.9562  1.1561
   94CHL1   C21 9414   3.567   0.065   7.898  0.1128  0.0615  0.4292
   94CHL1  H21A 9415   3.625   0.031   7.809 -0.2028  0.4870  0.0609
   94CHL1  H21B 9416   3.464   0.093   7.869 -0.0023  0.2019  0.9618
   94CHL1  H21C 9417   3.556  -0.020   7.969  2.1054  1.2000  2.1610
   94CHL1   C22 9418   3.601   0.211   8.109 -0.6144  0.2493 -0.2528
   94CHL1  H22A 9419   3.634   0.310   8.147  1.6418 -0.8920  0.8326
   94CHL1  H22B 9420   3.490   0.222   8.109 -0.6063  0.4112  1.1968
   94CHL1   C23 9421   3.641   0.096   8.199 -0.9150 -0.3991  0.1162
   94CHL1  H23A 9422   3.600  -0.001   8.164 -0.4837 -0.2820 -0.7217
   94CHL1  H23B 9423   3.751   0.084   8.212 -1.1086 -1.5351  0.8247
   94CHL1   C24 9424   3.596   0.125   8.342  1.1935 -0.5033 -0.3894
   94CHL1  H24A 9425   3.626   0.227   8.374 -0.6922 -0.7015  2.1230
   94CHL1  H24B 9426   3.485   0.133   8.342  1.1777 -0.6591 -1.4325
   94CHL1   C25 9427   3.637   0.029   8.451  0.3329  0.1317  0.9594
   94CHL1   H25 9428   3.747   0.028   8.467  0.1530 -0.2098  2.2414
   94CHL1   C26 9429   3.580   0.077   8.587  0.3589 -0.7413 -0.0228
   94CHL1  H26A 9430   3.614   0.179   8.614 -1.9029  0.0408 -0.0110
   94CHL1  H26B 9431   3.469   0.086   8.581  0.6563  2.5461 -1.5209
   94CHL1  H26C 9432   3.610   0.009   8.670 -0.7878  0.6641  1.5693
   94CHL1   C27 9433   3.601  -0.117   8.418 -0.7987 -0.2248  0.4579
   94CHL1  H27A 9434   3.490  -0.121   8.417 -0.9307 -0.3774  5.6720
   94CHL1  H27B 9435   3.646  -0.165   8.328 -2.9156  0.2833 -0.9005
   94CHL1  H27C 9436   3.639  -0.179   8.502 -1.4574 -1.8382 -0.4023
   95CHL1    C3 9437   3.320   6.148   6.854  0.3314 -0.0551  0.7914
   95CHL1    H3 9438   3.416   6.106   6.815  0.6893  0.1965  1.3898
   95CHL1    O3 9439   3.263   6.194   6.740 -0.1619 -0.1435  0.1742
   95CHL1   H3' 9440   3.189   6.133   6.741  0.5794 -1.0864  3.6802
   95CHL1    C4 9441   3.232   6.043   6.921  0.0125 -0.6102  0.9764
   95CHL1   H4A 9442   3.134   6.090   6.942 -1.4349 -2.3795 -1.5637
   95CHL1   H4B 9443   3.222   5.952   6.857  0.9954  1.9103 -2.9866
   95CHL1    C5 9444   3.301   6.004   7.054 -0.1458  0.0052 -0.6485
   95CHL1    C6 9445   3.341   5.880   7.089  0.4543  0.1433  1.0314
   95CHL1    H6 9446   3.333   5.796   7.018 -0.5095  1.0821  0.0153
   95CHL1    C7 9447   3.388   5.833   7.224  0.2390  0.0451  0.6877
   95CHL1   H7A 9448   3.359   5.730   7.251  1.0338 -0.0177  1.3140
   95CHL1   H7B 9449   3.499   5.837   7.230  0.1366  0.9032  2.6184
   95CHL1    C8 9450   3.349   5.932   7.334 -0.1028  0.9075  0.2526
   95CHL1    H8 9451   3.242   5.911   7.356 -0.3059  0.2698 -1.2931
   95CHL1   C14 9452   3.428   5.902   7.465 -0.0328  0.0430  0.0573
   95CHL1   H14 9453   3.535   5.917   7.440 -0.0881  2.2802  1.0618
   95CHL1   C15 9454   3.426   5.755   7.530 -0.2661 -0.1314 -0.0568
   95CHL1  H15A 9455   3.326   5.707   7.523 -0.5437  0.3398  0.6121
   95CHL1  H15B 9456   3.506   5.692   7.485 -0.3478  0.4940 -1.0670
   95CHL1   C16 9457   3.473   5.773   7.677  0.7014  0.2916 -0.7946
   95CHL1  H16A 9458   3.394   5.758   7.753  1.6922 -2.6844 -0.2732
   95CHL1  H16B 9459   3.556   5.709   7.715  1.4718  0.4780 -2.1399
   95CHL1   C17 9460   3.496   5.925   7.690  0.2741  0.7229  0.1035
   95CHL1   H17 9461   3.591   5.953   7.640  0.6286  0.5205  0.6551
   95CHL1   C13 9462   3.408   5.993   7.581  0.0860 -0.3810 -0.0273
   95CHL1   C18 9463   3.260   5.997   7.628  0.0968 -0.2375  0.0466
   95CHL1  H18A 9464   3.241   6.065   7.713 -0.0464  0.2511 -0.3748
   95CHL1  H18B 9465   3.197   6.030   7.543  2.1772  0.3865 -1.2763
   95CHL1  H18C 9466   3.234   5.894   7.659 -1.3054 -0.0647 -0.5208
   95CHL1   C12 9467   3.450   6.134   7.539  0.1596 -0.7777 -0.7206
   95CHL1  H12A 9468   3.431   6.208   7.619  2.8947  0.4304 -1.1422
   95CHL1  H12B 9469   3.559   6.147   7.519  0.4044  2.5471  2.3005
   95CHL1   C11 9470   3.374   6.177   7.404 -0.8934  0.2153  0.5224
   95CHL1  H11A 9471   3.273   6.200   7.445 -1.2269 -1.3139  0.5836
   95CHL1  H11B 9472   3.419   6.271   7.365 -1.5250  0.1874 -0.2673
   95CHL1    C9 9473   3.381   6.073   7.287  0.1525 -0.0131 -0.7940
   95CHL1    H9 9474   3.491   6.076   7.267  0.3877  0.0584  0.4276
   95CHL1   C10 9475   3.306   6.122   7.159 -0.1569  0.6093  0.2444
   95CHL1   C19 9476   3.166   6.171   7.196  0.4678 -0.0190 -0.1033
   95CHL1  H19A 9477   3.172   6.272   7.244 -0.0547 -0.3012  0.5766
   95CHL1  H19B 9478   3.106   6.187   7.104 -0.3152 -0.5564  0.3093
   95CHL1  H19C 9479   3.112   6.105   7.267 -0.2524  1.1757  0.4769
   95CHL1    C1 9480   3.392   6.230   7.085 -0.2069  0.3517  0.0615
   95CHL1   H1A 9481   3.387   6.318   7.153  1.0559 -1.9505  3.2669
   95CHL1   H1B 9482   3.499   6.201   7.078 -0.9749 -1.8075 -3.3723
   95CHL1    C2 9483   3.340   6.268   6.944 -0.4777 -0.4643 -0.0662
   95CHL1   H2A 9484   3.410   6.344   6.904  1.1405 -0.6136  2.3366
   95CHL1   H2B 9485   3.241   6.317   6.957 -0.5762 -0.7039  0.1058
   95CHL1   C20 9486   3.505   5.984   7.832  0.0259 -0.1815 -0.3124
   95CHL1   H20 9487   3.479   6.092   7.825 -0.5261 -0.3115 -0.3404
   95CHL1   C21 9488   3.656   5.984   7.870 -0.3851  0.3353  0.4136
   95CHL1  H21A 9489   3.721   6.031   7.792 -0.0357 -3.2144 -1.5294
   95CHL1  H21B 9490   3.686   5.877   7.866  1.9708  0.9466  0.9618
   95CHL1  H21C 9491   3.674   6.023   7.972 -0.6674 -0.0904  0.6230
   95CHL1   C22 9492   3.408   5.930   7.948  0.6272  0.2302 -0.6986
   95CHL1  H22A 9493   3.313   5.917   7.892  1.2106 -0.1967 -1.5985
   95CHL1  H22B 9494   3.435   5.826   7.977  1.5396  0.8215  0.6583
   95CHL1   C23 9495   3.398   6.013   8.074  0.6208 -0.1848  0.0712
   95CHL1  H23A 9496   3.491   6.012   8.135  1.0896 -0.6441 -0.6426
   95CHL1  H23B 9497   3.379   6.120   8.048  0.1831  0.0755  1.4174
   95CHL1   C24 9498   3.277   5.979   8.164 -0.2545 -0.0805 -0.1888
   95CHL1  H24A 9499   3.185   5.965   8.103  0.0001  0.1252 -0.6218
   95CHL1  H24B 9500   3.291   5.877   8.206  0.2769 -1.9921 -4.7687
   95CHL1   C25 9501   3.260   6.084   8.268 -0.3633  0.0365 -0.5616
   95CHL1   H25 9502   3.249   6.178   8.211 -0.8285  0.9116  0.9649
   95CHL1   C26 9503   3.128   6.049   8.347 -0.1196  0.5736 -0.3872
   95CHL1  H26A 9504   3.143   5.951   8.397 -0.5256  0.4927 -0.4177
   95CHL1  H26B 9505   3.121   6.123   8.430  0.0709  0.8378 -0.6109
   95CHL1  H26C 9506   3.044   6.040   8.275 -0.3023  0.7831 -0.2054
   95CHL1   C27 9507   3.366   6.095   8.379 -0.7032 -1.1660  0.1764
   95CHL1  H27A 9508   3.465   6.127   8.340 -0.1056 -1.1060  1.7116
   95CHL1  H27B 9509   3.332   6.154   8.467 -1.7903 -2.3667  0.5862
   95CHL1  H27C 9510   3.383   5.996   8.426 -1.0421  0.2559  3.4894
   96CHL1    C3 9511   3.533   5.208   6.745  1.1322 -1.0776  0.1623
   96CHL1    H3 9512   3.423   5.201   6.749  1.0529 -0.9009 -1.5394
   96CHL1    O3 9513   3.591   5.202   6.613 -0.4355  0.0486  0.9309
   96CHL1   H3' 9514   3.685   5.191   6.631 -0.8239 -0.9126  2.4363
   96CHL1    C4 9515   3.584   5.338   6.822 -0.6356 -0.0836 -0.0597
   96CHL1   H4A 9516   3.694   5.347   6.808 -0.5016 -0.2921  0.8738
   96CHL1   H4B 9517   3.528   5.429   6.790 -0.5043  0.9856  2.6376
   96CHL1    C5 9518   3.552   5.325   6.974 -0.0785  0.1935  0.1600
   96CHL1    C6 9519   3.484   5.416   7.047  0.3170  0.4932 -0.6192
   96CHL1    H6 9520   3.441   5.506   7.002 -1.6024 -0.7940 -1.4295
   96CHL1    C7 9521   3.455   5.413   7.192 -0.1961  0.8429  0.0453
   96CHL1   H7A 9522   3.476   5.516   7.228  1.5704  0.1989  0.9067
   96CHL1   H7B 9523   3.349   5.378   7.198  0.5664 -1.9616 -1.9529
   96CHL1    C8 9524   3.545   5.305   7.256 -0.3873 -0.6778 -0.2935
   96CHL1    H8 9525   3.650   5.341   7.264 -0.5387 -0.4054  0.4879
   96CHL1   C14 9526   3.498   5.275   7.403 -0.3366 -0.4306 -0.7421
   96CHL1   H14 9527   3.401   5.223   7.393  0.2520 -1.4421 -1.3109
   96CHL1   C15 9528   3.469   5.391   7.497  0.1675 -0.2707 -0.1066
   96CHL1  H15A 9529   3.557   5.459   7.483  0.1503 -0.6081 -2.0093
   96CHL1  H15B 9530   3.374   5.446   7.480 -0.1500 -0.6831  0.3595
   96CHL1   C16 9531   3.472   5.331   7.640  0.5566  0.1586  0.1764
   96CHL1  H16A 9532   3.549   5.387   7.697  2.7290  0.0868 -2.5944
   96CHL1  H16B 9533   3.378   5.351   7.696 -0.5744 -3.0208 -0.5096
   96CHL1   C17 9534   3.512   5.183   7.617 -0.7579  0.6237 -0.0455
   96CHL1   H17 9535   3.418   5.124   7.604 -0.7962  0.1543  2.0944
   96CHL1   C13 9536   3.585   5.175   7.485 -0.4671 -0.2603  0.4965
   96CHL1   C18 9537   3.734   5.224   7.493 -1.2107  0.3504  0.0864
   96CHL1  H18A 9538   3.778   5.164   7.576  0.2516 -0.5353 -1.3012
   96CHL1  H18B 9539   3.790   5.208   7.399 -0.9066 -1.6738  0.5921
   96CHL1  H18C 9540   3.727   5.330   7.525  2.0893  0.3905  0.7766
   96CHL1   C12 9541   3.575   5.044   7.408  0.2447  0.3233  0.0899
   96CHL1  H12A 9542   3.652   4.975   7.450  0.6206  1.3410  1.1163
   96CHL1  H12B 9543   3.473   5.002   7.417  1.0959 -2.0296 -0.8521
   96CHL1   C11 9544   3.609   5.059   7.257  0.3241 -0.4119 -0.2165
   96CHL1  H11A 9545   3.719   5.065   7.258  0.2272  1.8611 -0.5821
   96CHL1  H11B 9546   3.595   4.961   7.205 -0.7556 -0.0952 -0.5444
   96CHL1    C9 9547   3.546   5.174   7.178 -0.1847 -0.0106  0.1773
   96CHL1    H9 9548   3.439   5.150   7.160  0.0630 -0.6975 -0.3841
   96CHL1   C10 9549   3.603   5.197   7.037  0.4448 -0.2747  0.0054
   96CHL1   C19 9550   3.752   5.196   7.044  0.6068 -0.2667 -0.3013
   96CHL1  H19A 9551   3.787   5.096   7.077  2.1844  0.2518 -0.3544
   96CHL1  H19B 9552   3.802   5.209   6.946  0.9918  0.8533  0.0360
   96CHL1  H19C 9553   3.799   5.276   7.105  0.4896 -0.1532 -0.3582
   96CHL1    C1 9554   3.550   5.076   6.953 -0.1572  0.3577  0.1644
   96CHL1   H1A 9555   3.597   4.980   6.984  1.4463  1.0744  0.0416
   96CHL1   H1B 9556   3.440   5.067   6.959  0.1145 -2.4665  1.9167
   96CHL1    C2 9557   3.585   5.077   6.808 -0.5273 -0.2415  0.2737
   96CHL1   H2A 9558   3.538   4.989   6.759 -1.9138  2.0482 -2.6239
   96CHL1   H2B 9559   3.696   5.078   6.804 -0.5016  1.3090  0.8010
   96CHL1   C20 9560   3.572   5.107   7.734  0.0884  0.3667  0.0511
   96CHL1   H20 9561   3.618   5.010   7.705  0.1802  0.2278  0.6502
   96CHL1   C21 9562   3.455   5.073   7.830  0.0027 -0.4452  0.7547
   96CHL1  H21A 9563   3.398   5.164   7.858 -1.9446 -1.8896  1.5498
   96CHL1  H21B 9564   3.490   5.019   7.921 -0.3227 -1.7949  0.0870
   96CHL1  H21C 9565   3.390   4.998   7.781 -0.5776 -0.1403  1.0601
   96CHL1   C22 9566   3.674   5.188   7.825 -0.3174  0.1434 -0.0483
   96CHL1  H22A 9567   3.748   5.244   7.764 -1.2967  0.3828 -1.0106
   96CHL1  H22B 9568   3.628   5.263   7.893 -0.6570  0.3253 -0.4811
   96CHL1   C23 9569   3.764   5.096   7.906  0.3965 -0.5632 -0.0594
   96CHL1  H23A 9570   3.699   5.050   7.983 -0.7214  1.5121  0.2599
   96CHL1  H23B 9571   3.812   5.010   7.854  1.5099  0.4197 -0.6875
   96CHL1   C24 9572   3.862   5.180   7.991 -0.5614 -0.2824  0.0764
   96CHL1  H24A 9573   3.927   5.247   7.932  0.1528  0.1749  1.3850
   96CHL1  H24B 9574   3.797   5.241   8.057  0.0968  1.7587 -1.1428
   96CHL1   C25 9575   3.957   5.094   8.077 -0.2531 -0.1256 -0.0525
   96CHL1   H25 9576   3.890   5.033   8.142 -0.9103  0.0506 -0.5587
   96CHL1   C26 9577   4.041   4.990   8.003 -0.4021 -0.2415  0.3335
   96CHL1  H26A 9578   3.997   4.920   7.929  1.4576  0.4677 -1.4950
   96CHL1  H26B 9579   4.118   5.039   7.941  0.1584 -2.2811 -0.6202
   96CHL1  H26C 9580   4.105   4.947   8.083  1.1088  1.6403  0.1697
   96CHL1   C27 9581   4.046   5.175   8.174 -0.3681  0.4348 -0.8217
   96CHL1  H27A 9582   3.973   5.246   8.218  1.0168  1.0149  0.5613
   96CHL1  H27B 9583   4.093   5.109   8.251  0.1682 -0.0591 -1.5590
   96CHL1  H27C 9584   4.110   5.233   8.105  1.3397  0.8432  1.0803
   97OSM      N 9585   1.189   0.221  10.959  0.0488 -0.2956 -0.3400
   97OSM    C15 9586   1.154   0.313  11.074 -0.6552  0.4279  0.0582
   97OSM   H15A 9587   1.047   0.322  11.081 -0.7075 -0.7520  1.0307
   97OSM   H15B 9588   1.193   0.413  11.071  1.4063 -0.3856 -1.0010
   97OSM   H15C 9589   1.201   0.264  11.158 -0.7556 -1.4538 -0.9425
   97OSM    C14 9590   1.133   0.081  10.979  0.4739 -0.4067  0.0768
   97OSM   H14A 9591   1.168   0.034  11.070  2.0712 -2.0874 -1.3598
   97OSM   H14B 9592   1.162   0.013  10.901 -0.8831 -1.5870  0.5895
   97OSM   H14C 9593   1.026   0.075  10.970  0.5719 -2.1278 -0.0129
   97OSM    C13 9594   1.140   0.275  10.827 -0.0083 -0.0692 -0.0639
   97OSM   H13A 9595   1.173   0.221  10.739 -1.3138  0.9151 -1.1678
   97OSM   H13B 9596   1.161   0.380  10.815  1.9069 -0.3412  0.7244
   97OSM   H13C 9597   1.035   0.252  10.832  0.6532 -3.2586  0.4526
   97OSM    C12 9598   1.342   0.222  10.950 -0.0575 -0.1881 -0.0432
   97OSM   H12A 9599   1.370   0.321  10.917 -0.1756 -0.7336 -1.8189
   97OSM   H12B 9600   1.370   0.154  10.871 -0.8092  1.8639 -2.1285
   97OSM    C11 9601   1.426   0.186  11.072 -0.1912 -0.2805 -0.6021
   97OSM   H11A 9602   1.417   0.251  11.161 -0.0529  2.2500 -2.3729
   97OSM   H11B 9603   1.530   0.178  11.034  0.1139 -0.4001  0.2423
   97OSM      P 9604   1.462  -0.072  11.090 -0.1930  0.3014 -0.0668
   97OSM    O13 9605   1.585  -0.078  11.177 -0.0416  0.9954  0.3068
   97OSM    O14 9606   1.377  -0.195  11.098 -0.2405  0.0043  1.3289
   97OSM    O11 9607   1.507  -0.062  10.941  0.0383  0.7279 -0.4988
   97OSM    O12 9608   1.387   0.056  11.121  0.8468 -0.8550  0.0002
   97OSM    C1S 9609   1.419  -0.119  10.840  0.5111  0.5296 -0.4202
   97OSM    H1S 9610   1.320  -0.068  10.851  0.6933  0.7248  0.3543
   97OSM    H1T 9611   1.413  -0.229  10.852  0.6153  0.4964 -0.6678
   97OSM     NF 9612   1.382  -0.122  10.599 -0.0327 -0.2236 -0.0320
   97OSM    HNF 9613   1.398  -0.208  10.552 -0.9951 -0.6153  0.3522
   97OSM    C2S 9614   1.476  -0.099  10.703  0.0805 -0.2335  0.3764
   97OSM    H2S 9615   1.511   0.005  10.690 -2.7113  0.8527  1.1249
   97OSM    C3S 9616   1.603  -0.183  10.689  0.0703 -0.0812 -0.2469
   97OSM    H3S 9617   1.571  -0.289  10.704 -0.9676  0.3720  0.8439
   97OSM     O3 9618   1.701  -0.158  10.787  0.0250 -0.1163  0.3715
   97OSM    HO3 9619   1.660  -0.097  10.849 -2.2380  0.3130 -1.4642
   97OSM    C4S 9620   1.656  -0.168  10.546 -0.1290 -0.0888 -0.2031
   97OSM    H4S 9621   1.596  -0.224  10.473 -0.5404 -1.4017  1.1443
   97OSM    C5S 9622   1.761  -0.095  10.504  0.4633  0.3246  0.2304
   97OSM    H5S 9623   1.830  -0.052  10.579 -1.7042 -0.2082  2.6238
   97OSM    C6S 9624   1.813  -0.075  10.365  0.0863 -0.5285 -0.7468
   97OSM    H6S 9625   1.918  -0.110  10.370  0.9883  2.1333 -0.3734
   97OSM    H6T 9626   1.826   0.034  10.353  0.7301 -0.4538  0.5405
   97OSM    C7S 9627   1.739  -0.134  10.242 -0.0006  0.1708 -0.3765
   97OSM    H7S 9628   1.742  -0.244  10.253  0.1666  0.2340  0.2577
   97OSM    H7T 9629   1.800  -0.098  10.156 -0.1562  0.9675 -0.1626
   97OSM    C8S 9630   1.595  -0.078  10.221  0.3142 -0.0023 -1.0359
   97OSM    H8S 9631   1.589   0.031  10.242 -1.8396 -0.3543  0.3198
   97OSM    H8T 9632   1.545  -0.118  10.311 -0.6260  0.6299 -1.2621
   97OSM    C9S 9633   1.517  -0.121  10.096  0.3051  0.3376 -0.7408
   97OSM    H9S 9634   1.410  -0.091  10.103  0.3096  0.1789  0.0516
   97OSM    H9T 9635   1.528  -0.231  10.082  1.1519  0.2118  0.7914
   97OSM   C10S 9636   1.572  -0.040   9.979 -0.1497 -0.8860 -0.5812
   97OSM   H10S 9637   1.683  -0.043   9.981  0.0620  3.9092 -0.0699
   97OSM   H10T 9638   1.560   0.066  10.009  1.9561 -0.3831 -1.4172
   97OSM   C11S 9639   1.509  -0.071   9.848 -0.2784 -0.4978 -0.6317
   97OSM   H11S 9640   1.446   0.016   9.820  0.7602  0.6417  0.5248
   97OSM   H11T 9641   1.449  -0.164   9.859 -0.2164 -0.6085 -1.1962
   97OSM   C12S 9642   1.614  -0.098   9.741 -0.2757 -0.2474  0.2835
   97OSM   H12S 9643   1.682  -0.176   9.781  0.7691  0.7949  0.5747
   97OSM   H12T 9644   1.687  -0.014   9.734 -0.4627  0.0521  1.6159
   97OSM   C13S 9645   1.561  -0.126   9.599 -0.4304  0.5810 -0.1400
   97OSM   H13S 9646   1.462  -0.177   9.608 -1.7066  2.7133 -1.5868
   97OSM   H13T 9647   1.630  -0.196   9.547 -1.5938  0.9715 -2.2985
   97OSM   C14S 9648   1.555  -0.002   9.506  0.0256 -0.1145 -0.2858
   97OSM   H14S 9649   1.654   0.048   9.501  0.7273 -1.3942  0.5433
   97OSM   H14T 9650   1.481   0.069   9.550  0.5487 -0.9691  2.0739
   97OSM   C15S 9651   1.509  -0.047   9.370 -0.7744  0.3135  0.3393
   97OSM   H15S 9652   1.404  -0.082   9.384 -0.7050 -1.4898 -3.2513
   97OSM   H15T 9653   1.567  -0.136   9.339 -0.4030  0.0041  1.8975
   97OSM   C16S 9654   1.500   0.062   9.263 -0.2937  0.2260 -0.0684
   97OSM   H16S 9655   1.583   0.133   9.283  0.5946 -0.6419 -0.6156
   97OSM   H16T 9656   1.398   0.103   9.283 -1.1272 -1.3548 -0.9458
   97OSM   C17S 9657   1.513  -0.013   9.123  0.5354 -0.0745 -0.5039
   97OSM   H17S 9658   1.449  -0.103   9.108  2.6626 -1.8189  0.6034
   97OSM   H17T 9659   1.617  -0.045   9.103  1.1052  1.2944  0.2228
   97OSM   C18S 9660   1.489   0.082   9.003  0.1698 -0.0322  0.3521
   97OSM   H18S 9661   1.389   0.129   9.009  0.6045  0.9387  0.0799
   97OSM   H18T 9662   1.508   0.029   8.907  3.0162  0.6356  0.4742
   97OSM   H18U 9663   1.570   0.156   9.023  1.5065 -1.5775  0.8100
   97OSM    C1F 9664   1.283  -0.039  10.577 -0.5109  0.1884 -0.4069
   97OSM     OF 9665   1.253   0.053  10.655  0.0207  0.1766  0.8422
   97OSM    C2F 9666   1.222  -0.055  10.438 -0.3623  0.3741  0.4117
   97OSM    H2F 9667   1.111  -0.061  10.435 -0.3183 -0.3815  0.2664
   97OSM    H2G 9668   1.252  -0.152  10.394 -0.6188 -1.0061  3.2163
   97OSM    C3F 9669   1.250   0.063  10.333 -0.3749 -0.2608 -0.0411
   97OSM    H3F 9670   1.357   0.071  10.307 -0.7274  0.1119 -1.3904
   97OSM    H3G 9671   1.219   0.158  10.382 -0.8045 -1.3444  1.8573
   97OSM    C4F 9672   1.174   0.034  10.205 -0.1177 -0.0139 -0.0760
   97OSM    H4F 9673   1.073  -0.005  10.231  1.4554 -2.3366  2.8767
   97OSM    H4G 9674   1.215  -0.056  10.153  0.1105 -0.6106  1.1171
   97OSM    C5F 9675   1.180   0.152  10.101 -0.5507 -0.2728 -0.4309
   97OSM    H5F 9676   1.290   0.172  10.100 -0.3743 -1.0710  1.3253
   97OSM    H5G 9677   1.115   0.233  10.139  0.5596  0.4823 -0.1127
   97OSM    C6F 9678   1.115   0.108   9.964 -0.8062 -0.0678 -0.0675
   97OSM    H6F 9679   1.021   0.053   9.987  0.0897 -1.4486  0.3437
   97OSM    H6G 9680   1.195   0.043   9.923 -0.1785  0.2410  0.6660
   97OSM    C7F 9681   1.087   0.233   9.879  0.2056  0.2628  0.2018
   97OSM    H7F 9682   1.174   0.299   9.899  0.6270 -0.8670  2.2317
   97OSM    H7G 9683   1.002   0.286   9.925  0.5197  1.5900 -0.7310
   97OSM    C8F 9684   1.051   0.212   9.730  0.5946  1.0337  0.2965
   97OSM    H8F 9685   0.995   0.294   9.680 -0.0484  0.3295 -0.1436
   97OSM    H8G 9686   0.977   0.129   9.732  1.3582  0.3030 -0.7322
   97OSM    C9F 9687   1.171   0.163   9.661  0.3011  0.2462 -0.0231
   97OSM    H9F 9688   1.266   0.154   9.716  0.6511 -0.2999 -0.6881
   97OSM   C10F 9689   1.171   0.128   9.529  0.3416  0.2867  0.1120
   97OSM   H10F 9690   1.256   0.076   9.483  0.0235 -0.2501  0.1238
   97OSM   C11F 9691   1.052   0.132   9.442 -0.2992 -0.5297  0.0346
   97OSM   H11F 9692   1.016   0.236   9.429  0.2555 -0.4995 -1.3078
   97OSM   H11G 9693   0.966   0.078   9.487 -1.0443  0.8606  0.3243
   97OSM   C12F 9694   1.071   0.077   9.300  0.0684 -0.9513  0.2798
   97OSM   H12F 9695   1.069  -0.034   9.298  0.1425 -0.9340 -0.5717
   97OSM   H12G 9696   1.167   0.118   9.264 -0.0977 -0.5717  0.2658
   97OSM   C13F 9697   0.968   0.142   9.206 -0.4005  0.6418  0.3249
   97OSM   H13F 9698   0.997   0.249   9.199  0.5082  0.3970  0.1857
   97OSM   H13G 9699   0.867   0.129   9.249 -0.7952 -1.5989 -1.1744
   97OSM   C14F 9700   0.961   0.074   9.077  0.5989 -0.6113  0.3376
   97OSM   H14F 9701   0.868   0.099   9.022  0.5860 -0.8853  0.2307
   97OSM   H14G 9702   0.960  -0.036   9.095  1.3034 -0.9479 -1.5386
   97OSM   C15F 9703   1.080   0.109   8.989  0.1562  0.3697 -0.2320
   97OSM   H15F 9704   1.114   0.019   8.933  0.6674  1.7538 -2.2006
   97OSM   H15G 9705   1.158   0.142   9.061 -1.0368  0.6899  0.9163
   97OSM   C16F 9706   1.058   0.222   8.891 -0.0131  0.2595 -0.3451
   97OSM   H16F 9707   1.058   0.320   8.944  0.6274  0.0034  0.1418
   97OSM   H16G 9708   0.955   0.216   8.851 -0.3384  1.0313  0.3576
   97OSM   C17F 9709   1.148   0.237   8.766 -0.2650  0.2783 -0.2496
   97OSM   H17F 9710   1.147   0.137   8.717 -1.7371  0.9686 -1.7008
   97OSM   H17G 9711   1.254   0.253   8.795  0.6344 -3.1649 -1.4000
   97OSM   C18F 9712   1.113   0.342   8.666 -0.8280  0.0299 -0.4052
   97OSM   H18F 9713   1.096   0.436   8.723 -0.0732 -0.0420 -0.0712
   97OSM   H18G 9714   1.017   0.316   8.616  0.1212 -1.6622 -1.4006
   97OSM   H18H 9715   1.197   0.344   8.593  1.2407 -1.5762  1.8923
   98OSM      N 9716   0.290   6.594  11.110  0.5943 -0.9669  0.2815
   98OSM    C15 9717   0.343   6.735  11.114  0.3187  0.3935  0.1606
   98OSM   H15A 9718   0.271   6.815  11.122 -0.0275 -0.0156  1.3000
   98OSM   H15B 9719   0.412   6.743  11.031  1.8893 -0.8050  1.3259
   98OSM   H15C 9720   0.400   6.742  11.206  1.7783 -0.5286 -0.6590
   98OSM    C14 9721   0.231   6.569  11.247 -0.1121  0.0879 -0.0105
   98OSM   H14A 9722   0.297   6.581  11.331 -0.0045  0.6093 -0.1656
   98OSM   H14B 9723   0.178   6.476  11.259 -0.4129  0.3479  0.7307
   98OSM   H14C 9724   0.159   6.648  11.267  1.0279  0.7774  1.4525
   98OSM    C13 9725   0.189   6.584  11.004 -0.2798 -0.2589  0.5824
   98OSM   H13A 9726   0.233   6.619  10.912  0.2712 -0.0955  0.9040
   98OSM   H13B 9727   0.093   6.628  11.026 -0.4280  0.0263 -0.6202
   98OSM   H13C 9728   0.163   6.482  10.981 -0.4398  0.7719 -4.4393
   98OSM    C12 9729   0.399   6.496  11.075 -0.0953  0.5380  0.6806
   98OSM   H12A 9730   0.356   6.400  11.098  1.6238 -0.2812  0.5459
   98OSM   H12B 9731   0.475   6.506  11.151 -0.2855 -0.5662  1.0172
   98OSM    C11 9732   0.466   6.504  10.937 -0.1970  0.5596  0.4137
   98OSM   H11A 9733   0.391   6.480  10.859 -0.1805  1.1935  0.1981
   98OSM   H11B 9734   0.543   6.424  10.932 -0.4878  0.3518 -0.9912
   98OSM      P 9735   0.674   6.669  10.942 -0.1227  0.1690 -0.1975
   98OSM    O13 9736   0.693   6.813  10.953 -0.1715 -0.2327  0.6764
   98OSM    O14 9737   0.712   6.591  11.060  0.3151 -0.0639 -0.4080
   98OSM    O11 9738   0.737   6.612  10.815 -0.2393 -0.8002  0.6414
   98OSM    O12 9739   0.520   6.639  10.919  0.1187  0.1736 -0.0284
   98OSM    C1S 9740   0.704   6.657  10.686  0.1587  0.1942  0.0668
   98OSM    H1S 9741   0.758   6.748  10.651 -0.2602  0.6116  0.5053
   98OSM    H1T 9742   0.597   6.687  10.680 -0.2297 -1.0504  0.5231
   98OSM     NF 9743   0.702   6.584  10.455  0.1445 -0.1601 -0.1852
   98OSM    HNF 9744   0.607   6.569  10.430 -0.2151  0.6836  0.6453
   98OSM    C2S 9745   0.739   6.537  10.583 -0.0668  0.2282 -0.1660
   98OSM    H2S 9746   0.846   6.511  10.575 -0.9267 -3.6209 -0.0961
   98OSM    C3S 9747   0.662   6.413  10.623  0.3339 -0.7079  0.5907
   98OSM    H3S 9748   0.563   6.430  10.671  0.8762 -0.0284  1.4886
   98OSM     O3 9749   0.726   6.350  10.728  0.2026 -0.4016 -0.1244
   98OSM    HO3 9750   0.787   6.418  10.758 -2.4794 -0.0491  5.2039
   98OSM    C4S 9751   0.640   6.315  10.503  0.8146 -0.0822  0.1955
   98OSM    H4S 9752   0.543   6.298  10.454  0.9664 -0.3134 -0.0244
   98OSM    C5S 9753   0.733   6.231  10.461 -0.2134  0.1981 -0.1959
   98OSM    H5S 9754   0.838   6.225  10.493  0.3493 -0.5156 -2.1315
   98OSM    C6S 9755   0.696   6.141  10.345 -0.6328  0.4815  1.0808
   98OSM    H6S 9756   0.588   6.134  10.321 -1.4351  0.6477  4.3990
   98OSM    H6T 9757   0.722   6.040  10.382  1.2248 -0.0441 -1.5352
   98OSM    C7S 9758   0.781   6.184  10.226 -0.9040  0.1724  0.3496
   98OSM    H7S 9759   0.758   6.114  10.142  1.8455 -0.3165 -0.0575
   98OSM    H7T 9760   0.891   6.177  10.239 -0.7592  1.3342 -0.1900
   98OSM    C8S 9761   0.740   6.320  10.166 -0.3038 -0.0708  0.8279
   98OSM    H8S 9762   0.769   6.400  10.236 -0.1852  0.5988  0.0193
   98OSM    H8T 9763   0.629   6.308  10.163 -0.4503  1.4198 -0.0510
   98OSM    C9S 9764   0.783   6.356  10.026 -0.6579  0.4486  0.1711
   98OSM    H9S 9765   0.889   6.329  10.008 -0.8045 -0.2895  0.3972
   98OSM    H9T 9766   0.775   6.467  10.019 -0.0781  0.5977  1.6722
   98OSM   C10S 9767   0.697   6.292   9.913  0.2379  0.6925  0.1484
   98OSM   H10S 9768   0.592   6.320   9.938  0.2127 -0.0053  0.8478
   98OSM   H10T 9769   0.687   6.182   9.927  0.1866  0.4147 -1.8838
   98OSM   C11S 9770   0.744   6.334   9.776 -0.0543  0.3286  0.5592
   98OSM   H11S 9771   0.845   6.295   9.752 -0.0307  0.7776 -0.0847
   98OSM   H11T 9772   0.750   6.442   9.752 -1.2249 -0.1630 -2.0828
   98OSM   C12S 9773   0.658   6.271   9.663 -0.4091  0.2733 -0.1502
   98OSM   H12S 9774   0.553   6.307   9.667 -0.7887 -0.8829  0.7161
   98OSM   H12T 9775   0.668   6.161   9.678 -0.9291  0.1136 -0.9870
   98OSM   C13S 9776   0.717   6.293   9.518  0.1371  0.3772 -0.3449
   98OSM   H13S 9777   0.825   6.267   9.513 -0.3339 -1.7397  0.2756
   98OSM   H13T 9778   0.720   6.404   9.504  0.8379  0.2321 -1.4135
   98OSM   C14S 9779   0.647   6.230   9.400  0.5324 -0.3142 -0.9346
   98OSM   H14S 9780   0.540   6.251   9.421  1.2824  1.3835  1.3851
   98OSM   H14T 9781   0.663   6.120   9.397 -0.3906 -0.5171  0.9319
   98OSM   C15S 9782   0.687   6.292   9.260 -0.5255  0.1399 -0.4406
   98OSM   H15S 9783   0.789   6.257   9.235 -0.0074  1.0223  0.4035
   98OSM   H15T 9784   0.684   6.402   9.275  1.1253 -0.0047  1.0853
   98OSM   C16S 9785   0.590   6.230   9.153  0.0624  0.7409 -0.1746
   98OSM   H16S 9786   0.490   6.274   9.171  0.1988  1.3453 -0.8697
   98OSM   H16T 9787   0.580   6.119   9.160 -2.0569  0.9403  0.2046
   98OSM   C17S 9788   0.632   6.262   9.008 -0.0980 -0.3151  1.1550
   98OSM   H17S 9789   0.741   6.241   8.998  0.0717  1.2381 -0.4402
   98OSM   H17T 9790   0.619   6.372   8.998 -0.8783 -0.6796 -3.1955
   98OSM   C18S 9791   0.549   6.184   8.900  0.0945 -0.8632 -0.7793
   98OSM   H18S 9792   0.557   6.234   8.802 -1.8030  2.1629  0.5244
   98OSM   H18T 9793   0.444   6.205   8.932  0.1598  1.4165 -1.9815
   98OSM   H18U 9794   0.563   6.075   8.912 -0.2311 -0.7359  0.8835
   98OSM    C1F 9795   0.772   6.677  10.387 -0.2349  0.7144  0.7999
   98OSM     OF 9796   0.876   6.728  10.430 -0.2558 -0.0106 -0.1168
   98OSM    C2F 9797   0.707   6.732  10.263  0.3420  0.4580  0.3412
   98OSM    H2F 9798   0.596   6.726  10.272  0.3035  0.1733 -0.2672
   98OSM    H2G 9799   0.731   6.653  10.188  0.6234  2.0050 -1.2084
   98OSM    C3F 9800   0.754   6.870  10.215 -0.9249 -0.0060 -0.6914
   98OSM    H3F 9801   0.864   6.879  10.203 -0.6615 -3.0810 -0.8984
   98OSM    H3G 9802   0.739   6.936  10.303 -1.3718  0.1466 -0.8798
   98OSM    C4F 9803   0.672   6.908  10.084  0.3109 -0.3565  0.6933
   98OSM    H4F 9804   0.709   7.012  10.072  0.5964 -0.4713  0.5708
   98OSM    H4G 9805   0.566   6.887  10.110  0.6042 -1.4720  1.0102
   98OSM    C5F 9806   0.705   6.826   9.963 -0.5289  0.6144  0.7062
   98OSM    H5F 9807   0.699   6.719   9.995  0.5957  0.0151 -1.0205
   98OSM    H5G 9808   0.810   6.841   9.930 -0.3030  2.1459  2.1240
   98OSM    C6F 9809   0.613   6.842   9.832 -0.0988  0.0395  0.7290
   98OSM    H6F 9810   0.635   6.947   9.802  0.0038  0.2315  1.4565
   98OSM    H6G 9811   0.503   6.826   9.842  0.1607 -0.7644  2.4154
   98OSM    C7F 9812   0.667   6.739   9.727  0.1853 -0.1433  0.2559
   98OSM    H7F 9813   0.674   6.640   9.777  0.1311 -0.8755 -1.1823
   98OSM    H7G 9814   0.774   6.765   9.709  0.5638 -0.8123  1.4332
   98OSM    C8F 9815   0.585   6.717   9.598 -0.0618  0.5280 -0.1999
   98OSM    H8F 9816   0.490   6.664   9.618  1.1377 -1.5006  0.2636
   98OSM    H8G 9817   0.651   6.649   9.540  0.6185  1.1633 -0.1806
   98OSM    C9F 9818   0.565   6.852   9.532 -0.6683  0.2282  0.2089
   98OSM    H9F 9819   0.551   6.938   9.600 -1.1594 -0.8138  1.4417
   98OSM   C10F 9820   0.560   6.878   9.402 -0.5297 -0.2899  0.1935
   98OSM   H10F 9821   0.564   6.976   9.352 -2.2240  0.1019  0.7822
   98OSM   C11F 9822   0.572   6.771   9.306 -0.1229  0.5001  0.4516
   98OSM   H11F 9823   0.569   6.671   9.354 -1.2582  0.8002  1.0141
   98OSM   H11G 9824   0.664   6.782   9.244  0.5954 -2.3000  0.9120
   98OSM   C12F 9825   0.447   6.776   9.216 -0.1399  0.7586  0.4335
   98OSM   H12F 9826   0.443   6.868   9.153  1.1215 -0.2363 -1.1184
   98OSM   H12G 9827   0.347   6.766   9.264 -0.9988  2.0555 -1.0245
   98OSM   C13F 9828   0.477   6.678   9.101 -0.0293 -0.3611 -0.9645
   98OSM   H13F 9829   0.514   6.581   9.138 -3.3421 -0.7911  1.5130
   98OSM   H13G 9830   0.558   6.720   9.038  0.2631 -0.4167 -0.6241
   98OSM   C14F 9831   0.347   6.646   9.029 -0.3411  0.6387  0.2644
   98OSM   H14F 9832   0.337   6.739   8.968 -0.2319  0.4237 -0.0825
   98OSM   H14G 9833   0.267   6.640   9.107 -0.0621  1.0849  0.5837
   98OSM   C15F 9834   0.344   6.536   8.919 -0.0762  0.5356  0.3848
   98OSM   H15F 9835   0.365   6.438   8.968 -2.1864  0.4040  1.0841
   98OSM   H15G 9836   0.421   6.557   8.842  0.6427  0.0017  0.9545
   98OSM   C16F 9837   0.205   6.529   8.857  0.1921 -0.1698 -0.3391
   98OSM   H16F 9838   0.182   6.632   8.822  0.3355  0.4070  1.1863
   98OSM   H16G 9839   0.139   6.506   8.944 -0.4410  2.1936 -0.1497
   98OSM   C17F 9840   0.197   6.422   8.743  0.1727 -0.2301 -0.8319
   98OSM   H17F 9841   0.217   6.315   8.765 -1.6237 -0.4884 -0.4168
   98OSM   H17G 9842   0.289   6.447   8.685 -0.4643  1.9082 -0.9820
   98OSM   C18F 9843   0.063   6.436   8.675 -0.0431  0.6206  0.0737
   98OSM   H18F 9844  -0.024   6.378   8.712  1.4219 -2.2477 -0.7320
   98OSM   H18G 9845   0.068   6.389   8.574 -2.3756 -2.2250  1.2076
   98OSM   H18H 9846   0.034   6.540   8.652  0.3023  0.5861 -0.5519
   99OSM      N 9847   2.339   6.797  11.373 -0.2031  0.1322 -0.0109
   99OSM    C15 9848   2.194   6.774  11.360  0.4822 -0.0602  0.5031
   99OSM   H15A 9849   2.152   6.852  11.298 -0.3920  0.5689  1.8542
   99OSM   H15B 9850   2.134   6.773  11.450  0.9454  0.2123  0.8169
   99OSM   H15C 9851   2.177   6.676  11.319 -0.8287  0.5945 -0.5801
   99OSM    C14 9852   2.338   6.917  11.469  0.5851  0.4058  0.4463
   99OSM   H14A 9853   2.290   6.995  11.412  0.3083  0.8443  1.2842
   99OSM   H14B 9854   2.439   6.953  11.486  0.5000 -0.4622  3.0352
   99OSM   H14C 9855   2.288   6.890  11.560  0.3054 -0.6624 -0.0206
   99OSM    C13 9856   2.407   6.684  11.440  0.8465 -0.1539  0.2519
   99OSM   H13A 9857   2.382   6.678  11.544 -4.8122  1.3831 -0.8535
   99OSM   H13B 9858   2.514   6.696  11.425  0.4636  0.6732 -2.1975
   99OSM   H13C 9859   2.374   6.588  11.403 -0.3553 -0.2756  1.6195
   99OSM    C12 9860   2.402   6.827  11.238  0.4413 -0.1722  0.0397
   99OSM   H12A 9861   2.504   6.860  11.254 -0.4627  2.4299  0.6436
   99OSM   H12B 9862   2.355   6.909  11.186  0.5844 -0.5656 -0.7073
   99OSM    C11 9863   2.397   6.715  11.133 -0.6344 -0.8374  0.5281
   99OSM   H11A 9864   2.297   6.694  11.090  1.2309  0.4591 -4.9349
   99OSM   H11B 9865   2.446   6.625  11.176  0.0990 -0.2671  0.9018
   99OSM      P 9866   2.592   6.715  10.955  0.1540 -0.3451 -0.1717
   99OSM    O13 9867   2.714   6.769  11.014 -0.0750 -0.1290  0.5661
   99OSM    O14 9868   2.592   6.574  10.939  0.1429 -0.6957 -0.5739
   99OSM    O11 9869   2.574   6.778  10.807  0.1597  0.8940  0.5912
   99OSM    O12 9870   2.463   6.774  11.026 -0.5619 -0.0378  0.2799
   99OSM    C1S 9871   2.537   6.911  10.788  0.2346 -1.0417  0.4058
   99OSM    H1S 9872   2.614   6.982  10.824  0.0526 -0.9986  0.7153
   99OSM    H1T 9873   2.446   6.926  10.851 -0.0948 -2.6066  0.3139
   99OSM     NF 9874   2.507   7.091  10.625  0.8582  0.1459  0.2089
   99OSM    HNF 9875   2.433   7.146  10.662  0.0307 -1.0036  0.3052
   99OSM    C2S 9876   2.494   6.944  10.645 -0.2340  0.7215 -0.7761
   99OSM    H2S 9877   2.556   6.875  10.583 -0.8726 -2.1341  1.6244
   99OSM    C3S 9878   2.347   6.882  10.626  0.3400  0.9193 -0.2729
   99OSM    H3S 9879   2.285   6.934  10.702  0.5026  0.1281  0.4076
   99OSM     O3 9880   2.340   6.743  10.649 -0.4404 -0.5157 -0.0322
   99OSM    HO3 9881   2.425   6.723  10.690 -0.4998 -2.0928 -0.6574
   99OSM    C4S 9882   2.288   6.908  10.488 -0.7014  0.4118  0.4866
   99OSM    H4S 9883   2.356   6.872  10.409 -0.5104 -2.5434  1.8988
   99OSM    C5S 9884   2.178   6.975  10.445 -0.0364 -0.1574 -0.4136
   99OSM    H5S 9885   2.107   7.025  10.512  0.9655 -1.7666  1.9113
   99OSM    C6S 9886   2.139   6.988  10.302 -0.5671 -1.0281  0.3941
   99OSM    H6S 9887   2.043   7.045  10.298  0.8144  1.2547 -1.1589
   99OSM    H6T 9888   2.132   6.888  10.255  0.1250  0.0223 -2.0212
   99OSM    C7S 9889   2.251   7.035  10.201  0.4010  0.0667 -0.0886
   99OSM    H7S 9890   2.330   6.958  10.188 -0.6232 -1.0732  0.4386
   99OSM    H7T 9891   2.306   7.118  10.250 -0.1657 -0.0482  0.7396
   99OSM    C8S 9892   2.190   7.079  10.069  0.4401  0.1866  0.1010
   99OSM    H8S 9893   2.120   7.164  10.085 -0.5766 -0.7693  0.7457
   99OSM    H8T 9894   2.138   6.997  10.015  0.9283  1.5732 -2.5819
   99OSM    C9S 9895   2.298   7.129   9.958 -0.3196 -0.5759 -0.3747
   99OSM    H9S 9896   2.389   7.066   9.958  1.0361  1.3210  0.8354
   99OSM    H9T 9897   2.323   7.231   9.995  0.5967 -1.4690  1.5054
   99OSM   C10S 9898   2.244   7.117   9.811 -0.0267  0.2332 -0.1302
   99OSM   H10S 9899   2.148   7.172   9.808  0.5884  1.3643  0.5800
   99OSM   H10T 9900   2.224   7.010   9.789  1.4981 -0.0205 -0.3209
   99OSM   C11S 9901   2.325   7.185   9.698  0.1606 -0.1527  0.8260
   99OSM   H11S 9902   2.425   7.137   9.699  0.4374  0.4259  3.5454
   99OSM   H11T 9903   2.325   7.292   9.730 -2.0748 -0.6939  2.6761
   99OSM   C12S 9904   2.245   7.168   9.565 -0.0453  0.5914  0.1307
   99OSM   H12S 9905   2.225   7.060   9.549  1.2691  0.2980  0.4654
   99OSM   H12T 9906   2.150   7.227   9.568 -1.1489 -1.1705  0.2352
   99OSM   C13S 9907   2.312   7.226   9.440 -0.5895  0.2307  0.8046
   99OSM   H13S 9908   2.412   7.181   9.420 -1.1029 -0.1200 -1.0514
   99OSM   H13T 9909   2.326   7.336   9.452  1.2955  0.4015 -2.3560
   99OSM   C14S 9910   2.243   7.187   9.310 -0.0822 -0.2822  0.0240
   99OSM   H14S 9911   2.141   7.230   9.299  0.2003  0.4748  0.3608
   99OSM   H14T 9912   2.234   7.077   9.296 -1.4113  0.0532 -1.9155
   99OSM   C15S 9913   2.315   7.246   9.181  0.0777 -0.1445  0.4041
   99OSM   H15S 9914   2.422   7.217   9.187 -0.3779 -1.8489  0.6792
   99OSM   H15T 9915   2.309   7.355   9.200  3.0220  0.3353 -1.1014
   99OSM   C16S 9916   2.255   7.198   9.051 -0.4070  0.3845  0.2503
   99OSM   H16S 9917   2.166   7.262   9.029  0.5707  0.9928 -2.1021
   99OSM   H16T 9918   2.243   7.088   9.053  2.4493  0.0585  1.1930
   99OSM   C17S 9919   2.350   7.244   8.931 -0.4996 -0.1757 -0.2536
   99OSM   H17S 9920   2.454   7.238   8.968 -0.9804  2.9349  1.8705
   99OSM   H17T 9921   2.328   7.353   8.928  1.2538  0.1759 -1.3728
   99OSM   C18S 9922   2.329   7.176   8.801  0.4770  0.4413  0.7364
   99OSM   H18S 9923   2.369   7.073   8.812  1.1350  0.7612  1.4520
   99OSM   H18T 9924   2.383   7.228   8.719 -1.1832 -0.5769 -1.0295
   99OSM   H18U 9925   2.220   7.184   8.781  0.2953  1.4681  2.0680
   99OSM    C1F 9926   2.629   7.141  10.589  0.2597 -0.5482 -0.0219
   99OSM     OF 9927   2.715   7.058  10.554  0.3777  0.6778 -0.7363
   99OSM    C2F 9928   2.647   7.284  10.587 -0.3465 -0.8484 -0.0611
   99OSM    H2F 9929   2.695   7.311  10.683 -0.7396 -0.0720 -0.0811
   99OSM    H2G 9930   2.546   7.331  10.580 -0.4117 -0.8279  0.9540
   99OSM    C3F 9931   2.733   7.334  10.470 -0.6045 -0.7580 -0.6538
   99OSM    H3F 9932   2.760   7.438  10.498  1.5996 -1.0893 -1.4518
   99OSM    H3G 9933   2.829   7.278  10.469 -1.5839 -2.5634  1.6520
   99OSM    C4F 9934   2.685   7.339  10.323  0.4594  0.4236 -0.0339
   99OSM    H4F 9935   2.766   7.381  10.259  1.6023 -3.5239 -1.2835
   99OSM    H4G 9936   2.614   7.423  10.309  1.9784  1.8929  0.8480
   99OSM    C5F 9937   2.627   7.213  10.265 -0.3971  0.7681 -0.7199
   99OSM    H5F 9938   2.535   7.167  10.306  0.2445 -0.6580 -0.8521
   99OSM    H5G 9939   2.705   7.134  10.278 -0.9671  0.0606 -1.5604
   99OSM    C6F 9940   2.611   7.232  10.107  0.0990 -0.3773 -0.3089
   99OSM    H6F 9941   2.546   7.321  10.090 -1.8002 -1.8455 -0.9619
   99OSM    H6G 9942   2.564   7.137  10.074 -0.8992 -0.1342  0.3987
   99OSM    C7F 9943   2.747   7.235  10.035 -0.0055  0.0361  0.4035
   99OSM    H7F 9944   2.810   7.148  10.063  0.3723  0.2346  0.1611
   99OSM    H7G 9945   2.801   7.331  10.051 -0.6889  0.3858  0.6445
   99OSM    C8F 9946   2.737   7.221   9.881 -0.0488  0.5773  0.1293
   99OSM    H8F 9947   2.675   7.132   9.858 -1.3464  1.3869  0.4474
   99OSM    H8G 9948   2.833   7.187   9.837 -0.4360 -0.3227 -0.0420
   99OSM    C9F 9949   2.686   7.347   9.818  0.8209  0.4754 -0.6009
   99OSM    H9F 9950   2.627   7.400   9.895  1.7141  0.8328 -0.1549
   99OSM   C10F 9951   2.704   7.407   9.698  0.9282  0.1592 -1.0983
   99OSM   H10F 9952   2.649   7.502   9.695  1.5943  0.5729 -0.3877
   99OSM   C11F 9953   2.778   7.359   9.575 -0.3535 -0.0737 -1.0213
   99OSM   H11F 9954   2.786   7.248   9.576  0.5034 -0.0331 -2.0812
   99OSM   H11G 9955   2.886   7.385   9.571 -0.5879  1.0108 -0.5301
   99OSM   C12F 9956   2.725   7.406   9.438 -0.1921 -0.0758 -0.2806
   99OSM   H12F 9957   2.702   7.514   9.425 -3.7321 -0.7199  0.0207
   99OSM   H12G 9958   2.624   7.358   9.438 -0.1082 -0.2743  0.7578
   99OSM   C13F 9959   2.814   7.356   9.331  0.3086 -0.3455 -0.0692
   99OSM   H13F 9960   2.839   7.250   9.350 -0.7378 -0.8065 -1.1851
   99OSM   H13G 9961   2.907   7.417   9.334  0.1831 -0.1135 -0.7429
   99OSM   C14F 9962   2.749   7.358   9.197 -0.2488 -0.2722  0.3101
   99OSM   H14F 9963   2.705   7.458   9.179  0.1690 -0.2448 -0.5964
   99OSM   H14G 9964   2.666   7.285   9.191 -0.5149 -0.0391  1.0623
   99OSM   C15F 9965   2.851   7.327   9.080  0.4926  0.6695  0.3364
   99OSM   H15F 9966   2.878   7.220   9.074  3.3428  1.4869 -2.7376
   99OSM   H15G 9967   2.948   7.376   9.102  2.1656 -2.0802 -0.6554
   99OSM   C16F 9968   2.829   7.374   8.928 -1.0651 -0.0266 -0.6424
   99OSM   H16F 9969   2.922   7.351   8.871 -0.9661 -3.4265  0.7613
   99OSM   H16G 9970   2.834   7.485   8.928  1.9026 -0.1294  0.3873
   99OSM   C17F 9971   2.698   7.326   8.884 -0.3331  0.4758  0.5145
   99OSM   H17F 9972   2.620   7.361   8.956 -1.3667  1.8288 -1.2176
   99OSM   H17G 9973   2.703   7.216   8.878 -2.2167  0.4075 -0.2746
   99OSM   C18F 9974   2.662   7.382   8.749  0.2921  0.1642  0.8519
   99OSM   H18F 9975   2.715   7.473   8.715 -0.0205 -0.0498 -0.2116
   99OSM   H18G 9976   2.557   7.416   8.743  0.9174  1.6872 -2.6056
   99OSM   H18H 9977   2.649   7.311   8.665 -0.5300 -0.4993  1.5348
  100OSM      N 9978   4.458   0.911  10.679  0.3713  0.1236 -0.1998
  100OSM    C15 9979   4.448   0.791  10.768 -0.4571  0.9412  0.0567
  100OSM   H15A 9980   4.359   0.732  10.753  0.1612 -0.0721  0.3335
  100OSM   H15B 9981   4.456   0.821  10.872 -1.9209  1.2609  0.0887
  100OSM   H15C 9982   4.528   0.720  10.761 -1.3923 -0.1333  0.0529
  100OSM    C14 9983   4.449   0.869  10.533  0.5250 -0.0513  0.3888
  100OSM   H14A 9984   4.364   0.804  10.519 -0.5931  0.9024  2.4804
  100OSM   H14B 9985   4.530   0.810  10.494 -1.4399 -0.7415 -2.8007
  100OSM   H14C 9986   4.438   0.957  10.471 -2.0500  0.1005  1.0345
  100OSM    C13 9987   4.338   0.998  10.714 -0.0991 -0.3928 -0.3761
  100OSM   H13A 9988   4.321   1.000  10.821 -1.5135 -2.5099 -0.5511
  100OSM   H13B 9989   4.256   0.963  10.654 -1.0552 -0.2796  0.8421
  100OSM   H13C 9990   4.355   1.098  10.676 -1.9667  0.7414  1.6592
  100OSM    C12 9991   4.591   0.981  10.697 -0.0651  0.3876 -0.0355
  100OSM   H12A 9992   4.594   1.079  10.651 -3.1805  0.2736 -0.5828
  100OSM   H12B 9993   4.671   0.921  10.656 -1.0778 -1.0716  0.1024
  100OSM    C11 9994   4.641   1.002  10.852  0.3570 -0.0508  0.3035
  100OSM   H11A 9995   4.571   1.067  10.909  0.2046  1.4194 -1.4880
  100OSM   H11B 9996   4.734   1.061  10.840 -1.1091  2.2294 -0.3955
  100OSM      P 9997   4.778   0.781  10.902 -0.0609  0.3239  0.0823
  100OSM    O13 9998   4.880   0.786  11.009 -0.9499  0.0792  0.7286
  100OSM    O14 9999   4.718   0.649  10.877 -0.4367  0.8715  0.2771
  100OSM    O1110000   4.839   0.838  10.768  0.5481  0.7383 -1.2511
  100OSM    O1210001   4.662   0.886  10.932  0.4112  0.0361  0.2878
  100OSM    C1S10002   4.944   0.751  10.715  0.2172  0.0154  0.2437
  100OSM    H1S10003   4.922   0.642  10.723  1.5175 -0.2960 -0.2720
  100OSM    H1T10004   5.039   0.761  10.770  0.0879  1.3915  0.2392
  100OSM     NF10005   5.040   0.684  10.484 -0.1368 -0.0149  0.1829
  100OSM    HNF10006   5.137   0.696  10.465 -0.3390  1.0252 -0.1985
  100OSM    C2S10007   4.973   0.787  10.566 -0.3184  0.1646 -0.1493
  100OSM    H2S10008   4.874   0.805  10.519 -0.5150  0.0844  0.2340
  100OSM    C3S10009   5.049   0.920  10.561  0.3337  1.1310 -0.7325
  100OSM    H3S10010   5.156   0.916  10.592 -0.0732  1.2295  0.6906
  100OSM     O310011   4.993   1.028  10.632 -0.5838  0.4458  0.1165
  100OSM    HO310012   4.937   0.978  10.691 -0.8709 -0.9396 -1.2868
  100OSM    C4S10013   5.067   0.958  10.413  0.1355 -0.0281  0.6475
  100OSM    H4S10014   4.983   0.973  10.343  1.2723  1.9732 -0.3453
  100OSM    C5S10015   5.187   0.980  10.359 -0.2599  0.2781 -0.5466
  100OSM    H5S10016   5.285   0.972  10.408 -0.2850 -1.3950 -0.7267
  100OSM    C6S10017   5.205   1.027  10.216 -0.4184  0.6655 -0.0317
  100OSM    H6S10018   5.298   0.979  10.176 -1.4273 -1.2239 -0.1511
  100OSM    H6T10019   5.228   1.135  10.210  0.0151  0.5829  0.0747
  100OSM    C7S10020   5.100   1.003  10.108  0.5117 -0.4753  0.3421
  100OSM    H7S10021   5.014   1.068  10.134 -0.0077 -1.4066  0.9532
  100OSM    H7T10022   5.077   0.895  10.098  0.5700 -0.4611  0.0327
  100OSM    C8S10023   5.146   1.056   9.974  0.1277  0.5712  0.9847
  100OSM    H8S10024   5.243   1.010   9.948 -0.4081  0.5116 -0.9383
  100OSM    H8T10025   5.154   1.167   9.980 -0.9286  0.5923  2.3010
  100OSM    C9S10026   5.045   1.022   9.861 -0.3460  0.3822 -0.6422
  100OSM    H9S10027   4.947   1.063   9.893 -0.4255 -0.6481  0.4583
  100OSM    H9T10028   5.046   0.914   9.833 -0.3341  0.3108 -0.3636
  100OSM   C10S10029   5.088   1.100   9.737  0.4735  0.2769 -0.3978
  100OSM   H10S10030   5.190   1.070   9.704  0.4107 -0.5123  0.1060
  100OSM   H10T10031   5.092   1.209   9.755 -1.6497  0.4363 -0.7884
  100OSM   C11S10032   5.009   1.079   9.609  0.3328 -0.9435 -0.6419
  100OSM   H11S10033   4.904   1.104   9.633  0.4085 -1.5332  0.3163
  100OSM   H11T10034   5.016   0.975   9.571  3.6595 -1.2827  0.6977
  100OSM   C12S10035   5.061   1.171   9.492 -0.4433 -0.7456  0.0817
  100OSM   H12S10036   5.171   1.161   9.475 -0.1789  2.8492 -0.7481
  100OSM   H12T10037   5.046   1.278   9.517  0.0424 -0.1041 -2.1850
  100OSM   C13S10038   4.983   1.135   9.366 -0.0813 -0.2459 -0.0650
  100OSM   H13S10039   4.875   1.145   9.390 -0.6402 -0.5707 -2.3606
  100OSM   H13T10040   4.984   1.026   9.343 -2.0549 -0.6872  1.7518
  100OSM   C14S10041   5.024   1.219   9.253 -0.2330  0.8440 -0.2346
  100OSM   H14S10042   5.127   1.203   9.213 -0.9158  1.9012 -2.5105
  100OSM   H14T10043   5.019   1.327   9.278  0.8335  1.2033 -1.4992
  100OSM   C15S10044   4.933   1.190   9.135 -0.1950 -0.3645  0.4385
  100OSM   H15S10045   4.829   1.165   9.168 -0.1864  2.1753  2.5290
  100OSM   H15T10046   4.971   1.102   9.078 -1.6015 -1.2587  0.8555
  100OSM   C16S10047   4.952   1.303   9.029  0.5392  0.2653  0.9352
  100OSM   H16S10048   5.059   1.311   9.002 -0.4475  3.0082 -2.7438
  100OSM   H16T10049   4.925   1.404   9.068 -0.9798  0.3248 -0.2127
  100OSM   C17S10050   4.875   1.287   8.897  0.7341 -0.4374  0.4762
  100OSM   H17S10051   4.872   1.183   8.858 -0.1735  0.2027 -1.2274
  100OSM   H17T10052   4.916   1.356   8.820 -0.6992  1.6827  1.5714
  100OSM   C18S10053   4.732   1.337   8.903  0.0482 -1.0985 -0.6008
  100OSM   H18S10054   4.681   1.287   8.988 -0.3114  0.5189  0.1550
  100OSM   H18T10055   4.689   1.314   8.804  0.2128 -1.0162 -0.6923
  100OSM   H18U10056   4.728   1.448   8.914 -2.3113 -1.2112 -0.0914
  100OSM    C1F10057   4.976   0.572  10.434 -0.2928  0.2336  0.8273
  100OSM     OF10058   4.855   0.551  10.438 -0.1058 -0.1267 -0.3611
  100OSM    C2F10059   5.067   0.465  10.372 -0.5297 -0.3109  0.8616
  100OSM    H2F10060   5.044   0.376  10.435  1.1890 -0.2124  1.6302
  100OSM    H2G10061   5.173   0.494  10.382 -0.5445 -0.2948  0.9701
  100OSM    C3F10062   5.040   0.445  10.221 -0.1687 -0.5304 -0.1687
  100OSM    H3F10063   4.932   0.432  10.204 -0.5010  1.3862  0.2792
  100OSM    H3G10064   5.092   0.355  10.182 -0.6146 -1.0495  0.4224
  100OSM    C4F10065   5.086   0.568  10.134  0.5170  0.2630 -0.6413
  100OSM    H4F10066   5.197   0.573  10.132  0.4890  0.5323 -1.3268
  100OSM    H4G10067   5.059   0.664  10.184  0.5544 -0.2307  0.3566
  100OSM    C5F10068   5.031   0.565   9.992  0.1721  0.2167  0.4376
  100OSM    H5F10069   5.056   0.658   9.937  0.1161  0.6717  1.1686
  100OSM    H5G10070   4.920   0.561  10.003  0.2368 -1.3167  0.6613
  100OSM    C6F10071   5.077   0.438   9.915 -0.0046  0.4648 -0.2585
  100OSM    H6F10072   5.056   0.348   9.978 -0.7148  1.2562  0.6420
  100OSM    H6G10073   5.186   0.443   9.892 -0.3967  0.0316 -2.3271
  100OSM    C7F10074   5.004   0.439   9.779  0.2022  0.6338  0.2076
  100OSM    H7F10075   5.018   0.534   9.722 -3.9519  0.3837 -1.4198
  100OSM    H7G10076   4.897   0.413   9.794  0.0377  0.7926 -0.6566
  100OSM    C8F10077   5.052   0.329   9.688 -0.1063 -0.4886 -0.0658
  100OSM    H8F10078   4.963   0.312   9.624 -0.9136 -1.2286  1.2423
  100OSM    H8G10079   5.068   0.232   9.741  1.2430  0.6062  1.5897
  100OSM    C9F10080   5.184   0.367   9.629  0.2316 -0.4691  0.5434
  100OSM    H9F10081   5.273   0.379   9.692  0.8031  1.2357 -0.5363
  100OSM   C10F10082   5.192   0.388   9.496  0.4304 -0.0999 -0.9934
  100OSM   H10F10083   5.297   0.403   9.466  0.9733 -0.3138  0.7324
  100OSM   C11F10084   5.086   0.383   9.384  0.1624 -0.2691 -0.4934
  100OSM   H11F10085   5.109   0.456   9.304  0.3540  0.5505  0.3121
  100OSM   H11G10086   4.988   0.413   9.427  1.7936  0.6314  2.7132
  100OSM   C12F10087   5.074   0.239   9.315  0.4655  0.4840  0.6715
  100OSM   H12F10088   5.057   0.149   9.378 -1.8061 -1.2506 -2.2900
  100OSM   H12G10089   5.164   0.224   9.252 -0.4833  2.3700 -1.1836
  100OSM   C13F10090   4.964   0.239   9.204 -0.2338  0.4187  0.6885
  100OSM   H13F10091   5.005   0.313   9.132  0.6671 -0.2850  0.4713
  100OSM   H13G10092   4.868   0.278   9.244 -0.8846 -0.9516  0.4664
  100OSM   C14F10093   4.941   0.093   9.149  0.8597 -0.5160 -0.6237
  100OSM   H14F10094   4.890   0.034   9.228 -0.5338 -1.4553 -2.1987
  100OSM   H14G10095   5.045   0.055   9.134  1.6052  1.0835  0.3900
  100OSM   C15F10096   4.851   0.107   9.023  0.5691 -0.2955  0.2677
  100OSM   H15F10097   4.903   0.160   8.940 -2.6217  2.0738 -0.3189
  100OSM   H15G10098   4.763   0.168   9.052  0.1291 -1.1433  0.7264
  100OSM   C16F10099   4.802  -0.029   8.983  0.5336 -1.0823 -0.2911
  100OSM   H16F10100   4.726  -0.022   8.903 -0.2964  2.0858  0.6761
  100OSM   H16G10101   4.748  -0.070   9.071 -1.4479  0.7237 -0.6301
  100OSM   C17F10102   4.905  -0.124   8.932  0.3549  0.1713 -0.0618
  100OSM   H17F10103   5.003  -0.104   8.980  1.0757 -1.7524 -0.6853
  100OSM   H17G10104   4.920  -0.118   8.822  0.8846  4.2558  0.1563
  100OSM   C18F10105   4.870  -0.270   8.972  0.3389  0.0674  0.2467
  100OSM   H18F10106   4.770  -0.302   8.935 -0.1304  0.0210  1.5169
  100OSM   H18G10107   4.878  -0.279   9.082  2.5101  3.2869  0.4066
  100OSM   H18H10108   4.938  -0.345   8.926  0.4880 -0.4179  1.2574
  101OSM      N10109   1.365   1.794  10.802 -0.6913 -0.0190 -0.0563
  101OSM    C1510110   1.398   1.863  10.931 -0.3428 -0.3589 -0.2504
  101OSM   H15A10111   1.504   1.881  10.941 -0.9863  4.1360 -0.3988
  101OSM   H15B10112   1.378   1.795  11.013  0.5970 -0.8114 -0.3886
  101OSM   H15C10113   1.335   1.949  10.947  0.6904  0.1510  1.1671
  101OSM    C1410114   1.393   1.888  10.687  0.2320 -0.1891  0.2071
  101OSM   H14A10115   1.334   1.977  10.699 -0.3738 -0.3387 -1.5442
  101OSM   H14B10116   1.367   1.838  10.595 -0.3163 -0.6561  0.6112
  101OSM   H14C10117   1.497   1.915  10.672 -0.4169  1.9201 -0.5933
  101OSM    C1310118   1.454   1.667  10.796  0.5548 -0.2978 -0.2407
  101OSM   H13A10119   1.429   1.606  10.710 -1.3843  0.2897 -0.1302
  101OSM   H13B10120   1.442   1.610  10.887 -0.6787 -1.3810 -1.0659
  101OSM   H13C10121   1.557   1.697  10.795  0.0066  1.7801  1.7217
  101OSM    C1210122   1.213   1.756  10.795  0.0172 -0.3104  0.4660
  101OSM   H12A10123   1.195   1.708  10.700  1.3359 -1.8248  0.9596
  101OSM   H12B10124   1.163   1.852  10.796  0.6426  0.0404 -0.7246
  101OSM    C1110125   1.151   1.673  10.911 -0.2406  0.0526  0.6628
  101OSM   H11A10126   1.040   1.676  10.903 -0.1565  0.0915 -0.6289
  101OSM   H11B10127   1.186   1.734  10.997  1.4650  0.2250 -0.1398
  101OSM      P10128   1.123   1.416  10.934  0.3377  0.2397  0.1053
  101OSM    O1310129   1.188   1.338  11.042 -0.2387 -0.2187 -0.8288
  101OSM    O1410130   0.982   1.444  10.949  0.4087 -0.2657 -0.1373
  101OSM    O1110131   1.154   1.348  10.793  0.0218 -0.0362  0.1768
  101OSM    O1210132   1.204   1.543  10.931  0.1403  0.7093  0.4003
  101OSM    C1S10133   1.162   1.416  10.667  0.3580 -0.1608 -0.4692
  101OSM    H1S10134   1.253   1.479  10.662  0.8024 -0.6941  0.6136
  101OSM    H1T10135   1.076   1.485  10.654  0.6870  0.4954  0.7968
  101OSM     NF10136   1.180   1.360  10.430  0.4352  0.2879 -0.4028
  101OSM    HNF10137   1.109   1.405  10.377  0.2779  0.0427 -0.4031
  101OSM    C2S10138   1.149   1.303  10.557 -0.3412  1.1669  0.0558
  101OSM    H2S10139   1.218   1.216  10.561 -1.9870 -0.1699  0.4141
  101OSM    C3S10140   1.004   1.250  10.571 -0.0330 -0.2925  0.1250
  101OSM    H3S10141   0.932   1.335  10.570  2.0195  1.5360  1.8327
  101OSM     O310142   0.970   1.195  10.696 -0.1811  0.2654 -0.0574
  101OSM    HO310143   1.039   1.227  10.754 -1.8737  2.5395  0.7626
  101OSM    C4S10144   0.972   1.152  10.455 -0.1383 -0.3009 -0.2209
  101OSM    H4S10145   0.997   1.202  10.360 -1.8322  0.1905 -0.4371
  101OSM    C5S10146   0.930   1.026  10.466 -0.0406  0.1501 -0.2278
  101OSM    H5S10147   0.918   0.981  10.565  1.9293 -1.5830 -0.7360
  101OSM    C6S10148   0.919   0.928  10.343 -0.3664 -0.0482 -0.0688
  101OSM    H6S10149   0.815   0.889  10.336 -0.1037 -0.7930  0.1089
  101OSM    H6T10150   0.985   0.840  10.363  1.1900  0.6940 -1.8125
  101OSM    C7S10151   0.963   0.994  10.209 -0.2441  0.4921 -0.3453
  101OSM    H7S10152   1.067   1.033  10.214 -0.3661  0.8201 -0.3274
  101OSM    H7T10153   0.901   1.085  10.190 -0.4294  0.0639 -1.9259
  101OSM    C8S10154   0.943   0.898  10.095 -0.2805 -1.1465  0.1420
  101OSM    H8S10155   0.837   0.868  10.082 -0.3744  0.3857 -3.3445
  101OSM    H8T10156   1.008   0.812  10.121  0.1296 -0.2138  2.2416
  101OSM    C9S10157   0.991   0.967   9.971  0.4069 -0.4550  0.7687
  101OSM    H9S10158   1.095   1.002   9.991  0.5786  0.4628 -1.5506
  101OSM    H9T10159   0.932   1.055   9.938 -1.1846 -1.2491  1.4425
  101OSM   C10S10160   0.975   0.855   9.862  0.0078 -0.1578  0.5024
  101OSM   H10S10161   0.866   0.847   9.838  0.3290 -2.4721 -0.3113
  101OSM   H10T10162   0.995   0.756   9.907  1.1945  0.5661  1.6040
  101OSM   C11S10163   1.041   0.874   9.732  0.1489  0.2783  0.1293
  101OSM   H11S10164   1.151   0.861   9.741  0.1766 -0.9595 -1.7532
  101OSM   H11T10165   1.019   0.975   9.692 -0.2994  0.4996  0.9062
  101OSM   C12S10166   0.992   0.768   9.635 -0.0178  0.2078  0.0359
  101OSM   H12S10167   0.882   0.758   9.640  0.0599 -0.6552  0.1121
  101OSM   H12T10168   1.026   0.669   9.674  1.4194  1.1710  1.2856
  101OSM   C13S10169   1.042   0.790   9.498  0.5815 -0.2809  0.1567
  101OSM   H13S10170   1.153   0.794   9.493  0.5857  0.5559  0.7471
  101OSM   H13T10171   1.014   0.888   9.454  3.1920  0.6015  0.3336
  101OSM   C14S10172   0.990   0.681   9.402 -0.2630  0.3489  0.0476
  101OSM   H14S10173   0.879   0.681   9.397 -0.1871 -0.7554 -2.0140
  101OSM   H14T10174   1.020   0.580   9.436  0.1405 -0.5853 -3.0038
  101OSM   C15S10175   1.034   0.699   9.254  0.1765 -0.3146  0.4317
  101OSM   H15S10176   1.053   0.597   9.216  0.6260 -0.4778  1.0718
  101OSM   H15T10177   1.129   0.756   9.260  1.0747 -1.7388  0.0853
  101OSM   C16S10178   0.933   0.778   9.178  0.6704 -0.4485 -0.7385
  101OSM   H16S10179   0.925   0.877   9.228  2.6347 -0.8264  0.4018
  101OSM   H16T10180   0.829   0.739   9.188  0.8662 -1.3714 -2.1935
  101OSM   C17S10181   0.961   0.793   9.023  0.1795  0.0271  0.2437
  101OSM   H17S10182   0.897   0.874   8.980  0.1407  0.7185  1.5802
  101OSM   H17T10183   0.934   0.707   8.958  1.6614  0.6280 -1.2032
  101OSM   C18S10184   1.106   0.832   8.987 -0.2399 -0.0865  0.4111
  101OSM   H18S10185   1.127   0.925   9.044  2.6698  0.8429 -2.0667
  101OSM   H18T10186   1.106   0.868   8.882  1.8507 -2.5170 -0.4816
  101OSM   H18U10187   1.184   0.754   8.999  0.1670 -0.3479 -3.2771
  101OSM    C1F10188   1.309   1.386  10.392  0.2755  0.4665  0.7527
  101OSM     OF10189   1.399   1.380  10.467 -0.4444  0.0907 -0.2519
  101OSM    C2F10190   1.341   1.447  10.257  0.1638  0.7745 -0.5631
  101OSM    H2F10191   1.410   1.532  10.276  0.0127  1.0974 -1.4297
  101OSM    H2G10192   1.248   1.491  10.216  0.3990 -0.9352 -3.0641
  101OSM    C3F10193   1.413   1.349  10.162  0.6258 -1.2125  0.3343
  101OSM    H3F10194   1.495   1.305  10.222  0.7684  1.2106  1.9811
  101OSM    H3G10195   1.459   1.420  10.089 -1.9424  0.1436 -0.0375
  101OSM    C4F10196   1.328   1.231  10.105  0.7612  0.1862  0.0223
  101OSM    H4F10197   1.234   1.274  10.063 -0.1131 -0.3148  1.4366
  101OSM    H4G10198   1.290   1.177  10.194  1.0863  0.8031  0.5430
  101OSM    C5F10199   1.411   1.149  10.009  1.2100 -0.0484  0.1991
  101OSM    H5F10200   1.361   1.051   9.990 -0.2664  0.5418  0.9829
  101OSM    H5G10201   1.508   1.115  10.051  0.1363 -0.7384  2.2103
  101OSM    C6F10202   1.442   1.214   9.877  0.0361  0.1425  0.9791
  101OSM    H6F10203   1.346   1.249   9.833  0.8069  0.1207 -0.7342
  101OSM    H6G10204   1.518   1.294   9.887  1.3533 -1.0559  0.7624
  101OSM    C7F10205   1.491   1.106   9.782 -0.4244  0.7175 -0.0439
  101OSM    H7F10206   1.415   1.026   9.765 -1.0548  1.5669 -1.3015
  101OSM    H7G10207   1.582   1.055   9.819 -0.2000  2.1874  1.4705
  101OSM    C8F10208   1.534   1.160   9.644  0.7561  0.3638  0.3897
  101OSM    H8F10209   1.627   1.219   9.648 -0.2631  2.0687 -0.5237
  101OSM    H8G10210   1.457   1.238   9.623 -1.0200 -1.1959  0.9389
  101OSM    C9F10211   1.544   1.051   9.531 -0.4067  0.1274 -0.7799
  101OSM    H9F10212   1.603   0.967   9.570 -1.7209 -0.1837  0.5788
  101OSM   C10F10213   1.488   1.049   9.409 -0.9992  0.2102  0.2600
  101OSM   H10F10214   1.502   0.954   9.356 -1.6618 -1.1887  2.5299
  101OSM   C11F10215   1.400   1.154   9.345 -0.4300  0.0067 -0.0344
  101OSM   H11F10216   1.445   1.179   9.246 -1.8218  0.6631 -0.5083
  101OSM   H11G10217   1.398   1.235   9.421 -0.0323  0.0903 -0.1127
  101OSM   C12F10218   1.262   1.099   9.314  0.6630 -0.7466  0.0402
  101OSM   H12F10219   1.227   1.073   9.416 -0.4030  0.6060  0.0339
  101OSM   H12G10220   1.259   1.013   9.244 -1.3612 -0.7268  0.0707
  101OSM   C13F10221   1.172   1.220   9.270  0.1574  0.1519 -0.6992
  101OSM   H13F10222   1.181   1.302   9.345 -4.4359 -0.4609  0.6985
  101OSM   H13G10223   1.070   1.176   9.282  0.3885 -0.2966 -0.3354
  101OSM   C14F10224   1.184   1.256   9.127  0.9360 -0.6841 -0.0692
  101OSM   H14F10225   1.155   1.167   9.067 -0.9724 -1.4183  1.8921
  101OSM   H14G10226   1.288   1.284   9.099  0.2030  2.7062  0.3188
  101OSM   C15F10227   1.083   1.362   9.090  0.2833 -0.0538  0.3816
  101OSM   H15F10228   1.088   1.460   9.142  0.1492  0.4413 -0.5192
  101OSM   H15G10229   0.980   1.328   9.116  0.4087 -0.0872  0.8339
  101OSM   C16F10230   1.087   1.395   8.939 -0.1008 -0.3030 -0.0510
  101OSM   H16F10231   0.991   1.449   8.929  0.3528  0.7409  1.0765
  101OSM   H16G10232   1.083   1.307   8.872 -1.5513 -0.3453  0.0789
  101OSM   C17F10233   1.211   1.477   8.890  0.7557  0.6825 -0.7022
  101OSM   H17F10234   1.186   1.484   8.782 -1.0096  1.7820 -0.2520
  101OSM   H17G10235   1.295   1.404   8.895 -1.0710 -1.4754 -0.0934
  101OSM   C18F10236   1.241   1.604   8.967 -1.1148  0.1976  0.6076
  101OSM   H18F10237   1.143   1.657   8.967 -0.8988  0.6023  1.4174
  101OSM   H18G10238   1.318   1.659   8.909 -3.5062  1.6606 -1.2506
  101OSM   H18H10239   1.286   1.592   9.068  0.8031 -1.5325 -0.4141
  102OSM      N10240   3.317   2.669  10.789 -0.0017 -0.4452 -0.6370
  102OSM    C1510241   3.214   2.735  10.702  0.5866  0.1153  0.3198
  102OSM   H15A10242   3.117   2.724  10.748  0.0683 -1.6683 -1.1709
  102OSM   H15B10243   3.200   2.683  10.609 -2.3875  1.5988 -0.1115
  102OSM   H15C10244   3.237   2.839  10.681  0.7608 -0.2381 -1.2800
  102OSM    C1410245   3.331   2.753  10.915  0.5749 -0.6090 -0.1828
  102OSM   H14A10246   3.235   2.796  10.936 -0.2970 -1.2519 -2.6438
  102OSM   H14B10247   3.394   2.837  10.888 -0.6397 -0.2588 -2.0122
  102OSM   H14C10248   3.365   2.701  11.003 -0.6149  2.1357  1.9592
  102OSM    C1310249   3.259   2.535  10.825  0.6047 -0.7704 -0.6799
  102OSM   H13A10250   3.319   2.496  10.906 -0.4579  0.0624  0.5390
  102OSM   H13B10251   3.250   2.472  10.738 -2.9318  0.4429 -1.2661
  102OSM   H13C10252   3.162   2.554  10.871  0.9506  1.0652 -0.6488
  102OSM    C1210253   3.455   2.651  10.734 -0.3859  0.1918 -0.0203
  102OSM   H12A10254   3.458   2.583  10.651  0.6633  0.0149  0.1601
  102OSM   H12B10255   3.532   2.612  10.800 -0.3556 -0.8634 -0.6781
  102OSM    C1110256   3.517   2.774  10.676 -0.1053  0.5368  0.3749
  102OSM   H11A10257   3.543   2.847  10.755  0.4985 -1.8574  2.4455
  102OSM   H11B10258   3.457   2.825  10.598 -1.0496 -1.7146 -0.4111
  102OSM      P10259   3.759   2.687  10.656 -0.1132 -0.4201  0.5671
  102OSM    O1310260   3.736   2.608  10.775  0.8132  0.1625 -0.0417
  102OSM    O1410261   3.843   2.634  10.549 -0.0633 -0.1267  0.4784
  102OSM    O1110262   3.805   2.830  10.697 -0.0482 -0.4148  0.1790
  102OSM    O1210263   3.621   2.721  10.597  0.1885  1.0899  0.1826
  102OSM    C1S10264   3.914   2.917  10.647 -0.2637  0.0087 -0.2492
  102OSM    H1S10265   4.010   2.862  10.661  0.1475  0.4820 -1.2282
  102OSM    H1T10266   3.927   3.009  10.708 -1.6155 -0.0913  0.2040
  102OSM     NF10267   4.007   3.038  10.447  0.4986 -0.2740 -0.0738
  102OSM    HNF10268   4.026   3.135  10.455  1.7357 -0.5509  0.5472
  102OSM    C2S10269   3.887   2.969  10.503 -0.3111  0.5611  0.1699
  102OSM    H2S10270   3.865   2.882  10.437 -0.4190  0.4571  0.3441
  102OSM    C3S10271   3.759   3.054  10.490  0.5498 -0.4165 -0.3133
  102OSM    H3S10272   3.766   3.139  10.561  0.9640  0.3528 -1.2607
  102OSM     O310273   3.634   2.980  10.514 -0.0985  0.5743 -0.6008
  102OSM    HO310274   3.659   2.891  10.542 -0.4122  0.3939 -0.9055
  102OSM    C4S10275   3.751   3.122  10.354  0.1015 -0.6470  0.3136
  102OSM    H4S10276   3.719   3.053  10.274 -1.7966  0.9872 -0.3839
  102OSM    C5S10277   3.741   3.252  10.322  0.2860 -0.0384 -0.3039
  102OSM    H5S10278   3.719   3.321  10.404 -1.0730 -1.4980  0.5687
  102OSM    C6S10279   3.716   3.322  10.188  0.1171 -0.3368 -0.1189
  102OSM    H6S10280   3.781   3.413  10.181 -1.4618  0.6186 -3.3838
  102OSM    H6T10281   3.615   3.367  10.175  0.7247  0.9737 -0.4570
  102OSM    C7S10282   3.733   3.241  10.056 -0.7502  0.1959 -0.2348
  102OSM    H7S10283   3.657   3.160  10.051 -0.9498  0.2909  0.9227
  102OSM    H7T10284   3.831   3.192  10.070  1.0163  3.5235 -0.4327
  102OSM    C8S10285   3.759   3.320   9.931 -0.2102 -0.0317  0.2696
  102OSM    H8S10286   3.765   3.241   9.853  0.3831  1.7115 -1.4831
  102OSM    H8T10287   3.858   3.369   9.927 -0.3853  0.3225  0.2067
  102OSM    C9S10288   3.649   3.425   9.895  0.0303 -0.3047  0.1444
  102OSM    H9S10289   3.662   3.510   9.966 -2.2206  1.0523 -1.0171
  102OSM    H9T10290   3.546   3.390   9.921 -0.1460 -1.2177 -1.7711
  102OSM   C10S10291   3.656   3.487   9.750 -0.3234 -0.4574  0.0415
  102OSM   H10S10292   3.761   3.487   9.716  0.0233  0.3095  1.0904
  102OSM   H10T10293   3.612   3.589   9.754 -3.5301 -1.7749  0.5423
  102OSM   C11S10294   3.578   3.411   9.641 -0.3476 -0.3396  0.0484
  102OSM   H11S10295   3.485   3.370   9.685  0.2146 -1.8827 -0.1522
  102OSM   H11T10296   3.629   3.314   9.621 -1.5539 -0.3876 -3.0780
  102OSM   C12S10297   3.554   3.489   9.509 -0.5579  0.8285 -0.2195
  102OSM   H12S10298   3.651   3.525   9.470  0.8196 -2.7094 -0.2792
  102OSM   H12T10299   3.497   3.583   9.523  1.1533  1.6455  1.5125
  102OSM   C13S10300   3.485   3.404   9.401  0.6724 -0.2806 -0.4913
  102OSM   H13S10301   3.375   3.397   9.420  0.9796 -0.2577  1.3651
  102OSM   H13T10302   3.526   3.301   9.402 -2.0246 -1.4226 -0.8748
  102OSM   C14S10303   3.511   3.460   9.260  0.1160  0.0726  0.4570
  102OSM   H14S10304   3.609   3.421   9.225  0.8287 -0.4617  2.9768
  102OSM   H14T10305   3.499   3.570   9.260  2.3389  0.3663  4.3066
  102OSM   C15S10306   3.408   3.402   9.158 -0.2981  0.2101 -0.0216
  102OSM   H15S10307   3.308   3.438   9.191 -1.1356 -1.8360 -0.2889
  102OSM   H15T10308   3.413   3.291   9.167  0.0514  0.0014 -2.4479
  102OSM   C16S10309   3.425   3.451   9.016  0.5350  0.2815  0.1682
  102OSM   H16S10310   3.511   3.394   8.973 -0.2395 -0.0664 -0.9303
  102OSM   H16T10311   3.450   3.559   9.008 -0.5884  0.8117  3.1631
  102OSM   C17S10312   3.302   3.425   8.929  0.0074  0.2819  0.6955
  102OSM   H17S10313   3.213   3.471   8.976 -0.4344  1.3895 -1.1823
  102OSM   H17T10314   3.266   3.320   8.934  0.6747  0.0053 -0.0088
  102OSM   C18S10315   3.321   3.456   8.784  0.3855 -0.0881  0.2460
  102OSM   H18S10316   3.409   3.410   8.734  0.3309  0.0544  0.0177
  102OSM   H18T10317   3.328   3.565   8.763  0.7635 -0.0098  0.7739
  102OSM   H18U10318   3.235   3.421   8.723  0.0011  0.1259  0.6619
  102OSM    C1F10319   4.114   2.980  10.402  0.2854  0.0286  0.0864
  102OSM     OF10320   4.112   2.862  10.402 -0.1750  0.2414 -0.0086
  102OSM    C2F10321   4.237   3.055  10.357  0.1142  0.6555 -0.0852
  102OSM    H2F10322   4.324   2.989  10.377 -0.0268  1.4259  3.3477
  102OSM    H2G10323   4.249   3.142  10.425  2.7642 -0.4827  0.9738
  102OSM    C3F10324   4.230   3.082  10.202  0.6835  0.8556  0.5644
  102OSM    H3F10325   4.253   2.989  10.146 -1.1609  1.3379 -1.0057
  102OSM    H3G10326   4.302   3.162  10.174 -1.6450  2.0061 -2.3219
  102OSM    C4F10327   4.090   3.125  10.150  0.4277 -0.5265  1.0421
  102OSM    H4F10328   4.050   3.200  10.221  0.5798  2.2068 -1.6763
  102OSM    H4G10329   4.022   3.038  10.155 -2.9219  1.9659  0.4770
  102OSM    C5F10330   4.104   3.197  10.013  0.5494 -0.2817 -0.0761
  102OSM    H5F10331   4.193   3.264  10.009 -0.8640  1.6122 -0.4096
  102OSM    H5G10332   4.015   3.262   9.999  0.7799 -0.0853 -0.6578
  102OSM    C6F10333   4.103   3.105   9.885  0.4459 -0.1169 -0.5224
  102OSM    H6F10334   4.010   3.046   9.899  0.9051 -0.9810 -1.0693
  102OSM    H6G10335   4.202   3.054   9.888 -0.1628 -1.2788  0.6294
  102OSM    C7F10336   4.099   3.173   9.749 -0.1794  0.8626 -0.0420
  102OSM    H7F10337   4.177   3.251   9.735  2.4391 -1.1333  2.5674
  102OSM    H7G10338   4.003   3.222   9.725 -1.1664 -1.7807 -1.7152
  102OSM    C8F10339   4.137   3.066   9.642 -0.4796  0.4512  0.2129
  102OSM    H8F10340   4.239   3.032   9.670  0.0021  2.1789  0.5863
  102OSM    H8G10341   4.143   3.112   9.541  0.5930 -0.6761 -0.2498
  102OSM    C9F10342   4.050   2.954   9.621 -0.0789 -0.0169 -0.2232
  102OSM    H9F10343   4.061   2.861   9.678  0.3686 -0.7209 -1.4289
  102OSM   C10F10344   3.949   2.949   9.530  0.9005  0.2445 -0.5967
  102OSM   H10F10345   3.884   2.860   9.524 -0.1844  1.0079 -0.3805
  102OSM   C11F10346   3.900   3.062   9.433  0.0579  0.1221  0.2034
  102OSM   H11F10347   3.926   3.158   9.482 -0.1844 -0.5456  1.6696
  102OSM   H11G10348   3.790   3.053   9.419  0.3097 -1.7710 -0.6283
  102OSM   C12F10349   3.968   3.077   9.298 -0.2722 -0.0357  0.9152
  102OSM   H12F10350   4.079   3.079   9.309 -0.2336  1.2778  0.4474
  102OSM   H12G10351   3.926   3.166   9.246 -2.4437 -1.3824  0.3183
  102OSM   C13F10352   3.949   2.951   9.209 -0.6108 -0.1480  0.4739
  102OSM   H13F10353   3.840   2.934   9.221 -0.6981 -2.2759 -2.6046
  102OSM   H13G10354   4.003   2.865   9.255  0.8600  0.6590  0.2661
  102OSM   C14F10355   3.980   2.986   9.063 -0.7701  0.4323  0.5236
  102OSM   H14F10356   4.090   2.997   9.052 -0.7200  0.9272  1.4931
  102OSM   H14G10357   3.935   3.083   9.035  0.9790  1.5783  1.6358
  102OSM   C15F10358   3.940   2.870   8.970  0.2826 -0.0575  0.0246
  102OSM   H15F10359   3.842   2.828   9.000  1.5045 -2.9909  0.0719
  102OSM   H15G10360   4.011   2.785   8.981  1.0487  0.4022 -1.2415
  102OSM   C16F10361   3.941   2.913   8.825  0.3110 -0.9072 -0.0014
  102OSM   H16F10362   4.041   2.955   8.804  0.4940 -1.9169 -1.2435
  102OSM   H16G10363   3.883   3.006   8.813  1.4363 -0.4015 -1.8068
  102OSM   C17F10364   3.897   2.806   8.728  0.1510 -0.4015 -0.6206
  102OSM   H17F10365   3.795   2.763   8.738 -0.0817  0.1887 -0.4306
  102OSM   H17G10366   3.962   2.715   8.734 -1.1632 -1.2307  1.8678
  102OSM   C18F10367   3.911   2.854   8.581  0.0149 -0.3713  0.7512
  102OSM   H18F10368   4.014   2.895   8.572  0.0951 -0.7366 -0.0609
  102OSM   H18G10369   3.849   2.940   8.547  2.2098  0.9215 -0.1127
  102OSM   H18H10370   3.894   2.765   8.517 -1.3470  0.4939 -0.1264
  103OSM      N10371   2.734   5.853  10.632  0.1348  0.0739  0.5499
  103OSM    C1510372   2.804   5.906  10.511 -0.8880 -0.6876  0.9991
  103OSM   H15A10373   2.762   6.002  10.484  1.2759 -0.0258 -0.1271
  103OSM   H15B10374   2.781   5.849  10.422 -1.3029 -1.6743  1.7420
  103OSM   H15C10375   2.909   5.923  10.529 -0.7937 -0.4810  0.2972
  103OSM    C1410376   2.781   5.722  10.672 -0.7773 -0.6049 -0.0052
  103OSM   H14A10377   2.753   5.649  10.597  1.0014 -0.4921 -0.8119
  103OSM   H14B10378   2.737   5.688  10.764 -2.9270 -0.0212 -0.8040
  103OSM   H14C10379   2.888   5.722  10.687 -0.5674  0.3174 -1.3591
  103OSM    C1310380   2.764   5.956  10.737 -0.7978  0.3386  0.3766
  103OSM   H13A10381   2.694   5.940  10.817 -1.5525 -0.8154 -0.4917
  103OSM   H13B10382   2.737   6.052  10.696 -0.4183  0.4284  0.3325
  103OSM   H13C10383   2.868   5.953  10.767 -0.0294 -0.3080 -2.1494
  103OSM    C1210384   2.587   5.853  10.602  0.2052  0.1973  0.1728
  103OSM   H12A10385   2.533   5.846  10.695 -0.7885  0.9218 -0.3394
  103OSM   H12B10386   2.554   5.768  10.545 -0.8246  1.6853 -1.5011
  103OSM    C1110387   2.537   5.992  10.542  0.2921 -0.0701  0.0173
  103OSM   H11A10388   2.435   5.971  10.503  0.8864 -0.2971 -1.4692
  103OSM   H11B10389   2.597   6.039  10.461  1.6681  1.4687  1.8855
  103OSM      P10390   2.417   6.081  10.754 -0.0051  0.0467 -0.1018
  103OSM    O1310391   2.434   5.947  10.812  0.2977  0.4671  0.0804
  103OSM    O1410392   2.445   6.190  10.849  0.0242 -0.6828  0.0796
  103OSM    O1110393   2.279   6.103  10.702 -0.1763 -0.0982 -0.2738
  103OSM    O1210394   2.521   6.096  10.636 -0.3825 -0.1673  0.5508
  103OSM    C1S10395   2.252   6.227  10.632  0.1827  0.3840  0.3990
  103OSM    H1S10396   2.292   6.227  10.529 -2.2067 -2.5197 -0.5914
  103OSM    H1T10397   2.283   6.322  10.682 -1.2107  0.7825  0.5230
  103OSM     NF10398   2.061   6.345  10.530  0.5258  0.0020 -0.0640
  103OSM    HNF10399   2.036   6.429  10.577 -0.2846 -0.2290 -0.0833
  103OSM    C2S10400   2.096   6.240  10.616 -0.0287  0.1901 -0.5371
  103OSM    H2S10401   2.063   6.140  10.579  0.5578  0.1688 -1.0031
  103OSM    C3S10402   2.034   6.255  10.761  0.3982  0.6235  0.2603
  103OSM    H3S10403   2.061   6.354  10.804 -1.6889  0.5400  1.8638
  103OSM     O310404   2.068   6.156  10.859 -0.2312  0.0034  0.1271
  103OSM    HO310405   2.155   6.124  10.834 -0.2070 -2.0301  2.6243
  103OSM    C4S10406   1.882   6.258  10.763  0.0645 -0.0057 -0.2254
  103OSM    H4S10407   1.841   6.356  10.792  0.3601  1.1426 -3.4776
  103OSM    C5S10408   1.804   6.163  10.719 -0.1151 -0.0691  0.2758
  103OSM    H5S10409   1.853   6.072  10.679  0.6077 -0.0005  0.9803
  103OSM    C6S10410   1.656   6.166  10.705 -0.1191  0.4076  0.2077
  103OSM    H6S10411   1.614   6.250  10.765  0.1336  1.1734 -0.6724
  103OSM    H6T10412   1.593   6.079  10.733 -0.4588  1.0614  1.5182
  103OSM    C7S10413   1.609   6.187  10.562 -0.2316 -0.3116 -0.4786
  103OSM    H7S10414   1.653   6.283  10.528 -1.9445  0.5455 -0.3621
  103OSM    H7T10415   1.499   6.200  10.556 -0.3209 -1.1962 -0.8167
  103OSM    C8S10416   1.671   6.087  10.465 -0.1160 -0.5969  0.4123
  103OSM    H8S10417   1.704   5.992  10.512  0.9867 -0.2247  0.3878
  103OSM    H8T10418   1.770   6.130  10.439 -0.5229 -0.6131 -1.2474
  103OSM    C9S10419   1.599   6.054  10.331 -0.4949 -0.3511 -0.5163
  103OSM    H9S10420   1.501   6.006  10.351  0.4965 -0.5347  4.5855
  103OSM    H9T10421   1.673   5.993  10.274  2.9300  0.7138  2.5548
  103OSM   C10S10422   1.562   6.182  10.258 -0.0027 -0.3165  0.6988
  103OSM   H10S10423   1.629   6.267  10.283 -0.0867  0.6248 -2.1535
  103OSM   H10T10424   1.459   6.217  10.280 -0.8238 -0.8381 -2.1107
  103OSM   C11S10425   1.550   6.157  10.107 -0.0009 -1.1964 -0.6286
  103OSM   H11S10426   1.466   6.088  10.083 -1.0945 -0.0365 -0.1606
  103OSM   H11T10427   1.645   6.108  10.076  1.2211  1.1103 -0.5932
  103OSM   C12S10428   1.511   6.288  10.039  0.1754 -0.3556 -0.4595
  103OSM   H12S10429   1.603   6.351  10.049 -1.4752  1.5551  3.9267
  103OSM   H12T10430   1.432   6.337  10.100  0.9937 -0.2343  0.5350
  103OSM   C13S10431   1.488   6.280   9.889  1.0478  0.6968  0.5279
  103OSM   H13S10432   1.477   6.379   9.841  1.1982  0.7979  0.7022
  103OSM   H13T10433   1.391   6.234   9.861  1.6008  1.2247 -2.5141
  103OSM   C14S10434   1.593   6.197   9.806  0.4775 -0.0347 -0.4461
  103OSM   H14S10435   1.581   6.092   9.840 -2.4772  0.7689  1.2812
  103OSM   H14T10436   1.698   6.223   9.833  1.1797 -2.4264 -0.8414
  103OSM   C15S10437   1.556   6.201   9.657 -0.2087 -0.7743 -0.8089
  103OSM   H15S10438   1.450   6.171   9.646 -0.3605 -0.0174 -1.3739
  103OSM   H15T10439   1.618   6.122   9.609  0.1478 -0.9233 -0.1213
  103OSM   C16S10440   1.585   6.343   9.590 -0.6845 -0.5246 -0.0274
  103OSM   H16S10441   1.670   6.400   9.633 -0.9629  0.8540 -1.2582
  103OSM   H16T10442   1.497   6.410   9.594 -0.5435 -0.0371 -3.3101
  103OSM   C17S10443   1.631   6.313   9.440 -0.5854 -0.7880 -0.5556
  103OSM   H17S10444   1.709   6.235   9.444  1.1346  0.9001 -0.5762
  103OSM   H17T10445   1.682   6.409   9.414  0.8815 -0.6038  2.7309
  103OSM   C18S10446   1.510   6.279   9.348 -0.1327  0.0737 -0.7446
  103OSM   H18S10447   1.437   6.361   9.368 -0.3258 -0.4395  0.6829
  103OSM   H18T10448   1.466   6.184   9.384 -0.7438  0.6732  0.1159
  103OSM   H18U10449   1.550   6.282   9.244  1.3115 -0.1196 -0.2109
  103OSM    C1F10450   2.088   6.350  10.400  0.6858  0.1763 -0.6683
  103OSM     OF10451   2.140   6.261  10.335 -0.2660  0.3165  0.4136
  103OSM    C2F10452   2.054   6.475  10.322 -0.4902  1.0843 -0.0439
  103OSM    H2F10453   2.120   6.559  10.354  0.0723  0.9492 -0.8342
  103OSM    H2G10454   1.952   6.502  10.356 -0.1733  1.2175  0.8130
  103OSM    C3F10455   2.061   6.460  10.164 -0.1270 -0.1694  0.5725
  103OSM    H3F10456   2.005   6.366  10.145 -0.5257  0.0854  0.4831
  103OSM    H3G10457   2.167   6.439  10.142 -0.4793 -1.2489 -0.1157
  103OSM    C4F10458   2.014   6.580  10.081  0.3030 -0.0289  0.7434
  103OSM    H4F10459   2.044   6.680  10.119 -1.0633  0.0473  1.6691
  103OSM    H4G10460   1.904   6.564  10.079  0.1574  0.9859 -0.0231
  103OSM    C5F10461   2.064   6.578   9.933  0.4652  0.1552  0.4699
  103OSM    H5F10462   2.169   6.541   9.924 -0.2427 -1.6530 -0.7876
  103OSM    H5G10463   2.067   6.684   9.900  0.4291  0.1757  0.5332
  103OSM    C6F10464   1.981   6.499   9.834  0.1198 -0.1518  0.0877
  103OSM    H6F10465   1.877   6.539   9.836  0.1425 -0.1525  1.1001
  103OSM    H6G10466   1.974   6.390   9.855 -1.7426  0.0310  0.4878
  103OSM    C7F10467   2.021   6.526   9.687 -0.0813 -0.8359  0.3254
  103OSM    H7F10468   1.954   6.462   9.625  0.2014  1.0331 -1.9838
  103OSM    H7G10469   2.127   6.496   9.686  0.7515  1.9185  0.3644
  103OSM    C8F10470   2.003   6.668   9.626  0.3607 -0.7905  0.4967
  103OSM    H8F10471   2.035   6.751   9.693 -0.1289  0.0599 -0.3005
  103OSM    H8G10472   1.896   6.686   9.604  0.4058 -1.2575 -0.1169
  103OSM    C9F10473   2.086   6.687   9.497  0.6215 -0.5070  0.2987
  103OSM    H9F10474   2.182   6.740   9.507  0.6096 -0.1916 -1.2384
  103OSM   C10F10475   2.042   6.636   9.380 -0.5103  0.0935 -0.1088
  103OSM   H10F10476   2.096   6.653   9.286  1.1934  0.0316  0.8305
  103OSM   C11F10477   1.915   6.564   9.356  0.4238 -0.1548 -0.6412
  103OSM   H11F10478   1.830   6.607   9.414 -0.4317 -0.5700 -1.5651
  103OSM   H11G10479   1.917   6.462   9.399 -0.0843 -0.0380 -0.3345
  103OSM   C12F10480   1.878   6.566   9.204  0.6651  0.4450 -0.6098
  103OSM   H12F10481   1.967   6.527   9.149  0.8957  0.5829 -0.3413
  103OSM   H12G10482   1.862   6.670   9.168  2.6068  0.5791 -1.1634
  103OSM   C13F10483   1.762   6.475   9.168 -0.1513 -0.0402 -0.1024
  103OSM   H13F10484   1.669   6.522   9.206  0.3510  1.5615 -0.7854
  103OSM   H13G10485   1.762   6.371   9.207  0.7054  0.2317  0.6563
  103OSM   C14F10486   1.751   6.463   9.014 -0.3412  1.1886  0.6315
  103OSM   H14F10487   1.789   6.364   8.981 -1.9932 -0.0962  2.4257
  103OSM   H14G10488   1.794   6.552   8.964  2.6057  0.6133  1.9981
  103OSM   C15F10489   1.597   6.471   8.974  0.1201 -0.2035 -0.1610
  103OSM   H15F10490   1.553   6.568   9.007 -2.8089 -0.9731 -1.6109
  103OSM   H15G10491   1.538   6.390   9.023 -0.5025  0.9966  1.1236
  103OSM   C16F10492   1.573   6.446   8.821  0.5298  0.5055 -0.7431
  103OSM   H16F10493   1.619   6.349   8.791  0.9792  0.3023  0.5617
  103OSM   H16G10494   1.623   6.533   8.775 -1.1325  1.3715 -0.9598
  103OSM   C17F10495   1.432   6.443   8.775  0.4564 -0.3583  0.2456
  103OSM   H17F10496   1.374   6.369   8.834  0.9674 -0.1262  1.0515
  103OSM   H17G10497   1.435   6.419   8.667 -1.0629  0.2294  0.0679
  103OSM   C18F10498   1.368   6.582   8.772  0.2897 -0.0635 -1.0548
  103OSM   H18F10499   1.404   6.642   8.685 -0.0202  0.1192 -1.0580
  103OSM   H18G10500   1.394   6.642   8.861 -0.6898 -1.1314 -0.0352
  103OSM   H18H10501   1.259   6.570   8.754  0.5205 -0.9176 -1.9158
  104OSM      N10502   3.754   5.460  11.244 -0.2555 -0.3312  0.1368
  104OSM    C1510503   3.735   5.607  11.227 -0.1008  0.2957  0.0232
  104OSM   H15A10504   3.837   5.641  11.230 -0.1197  0.2668  1.2320
  104OSM   H15B10505   3.669   5.641  11.306  1.0096  1.5737  0.4151
  104OSM   H15C10506   3.692   5.628  11.130 -0.8531 -0.8548  0.0938
  104OSM    C1410507   3.797   5.419  11.385  0.4105 -0.0437  0.4500
  104OSM   H14A10508   3.779   5.318  11.419 -1.1727  0.6479  1.7454
  104OSM   H14B10509   3.745   5.479  11.457 -0.2207 -1.5906  1.3188
  104OSM   H14C10510   3.904   5.433  11.394  0.5127 -1.4349  1.6022
  104OSM    C1310511   3.620   5.402  11.216 -0.1326  0.8113 -0.1645
  104OSM   H13A10512   3.616   5.297  11.237 -1.1171  0.7897 -0.4564
  104OSM   H13B10513   3.586   5.426  11.116  1.6297 -0.2749 -1.0585
  104OSM   H13C10514   3.549   5.448  11.283  1.4262  0.9061  1.4723
  104OSM    C1210515   3.863   5.416  11.155 -0.3520 -0.1395 -0.2973
  104OSM   H12A10516   3.891   5.317  11.187  1.3291  0.3639 -0.1504
  104OSM   H12B10517   3.942   5.487  11.176 -1.4537  1.1474 -0.4273
  104OSM    C1110518   3.843   5.409  10.999 -0.3412  0.1545 -0.2672
  104OSM   H11A10519   3.761   5.337  10.978  1.0095 -1.3401 -0.5549
  104OSM   H11B10520   3.937   5.370  10.955  1.5245  3.1654  0.9594
  104OSM      P10521   3.906   5.639  10.900 -0.0179 -0.1070 -0.5391
  104OSM    O1310522   3.847   5.771  10.931 -0.2953 -0.0387  0.1648
  104OSM    O1410523   4.041   5.609  10.952 -0.0859 -0.0276  0.3204
  104OSM    O1110524   3.902   5.626  10.748 -0.0348  0.3513 -0.1782
  104OSM    O1210525   3.809   5.532  10.951  0.2215 -0.6425 -0.0327
  104OSM    C1S10526   3.784   5.642  10.671 -0.2659  1.0627  0.0700
  104OSM    H1S10527   3.713   5.706  10.727 -1.2885 -0.9249  1.0981
  104OSM    H1T10528   3.740   5.541  10.663 -0.3305  1.2829 -3.2658
  104OSM     NF10529   3.696   5.705  10.457 -0.0158  0.4490  0.3122
  104OSM    HNF10530   3.674   5.640  10.385 -0.2359  0.0284  0.7638
  104OSM    C2S10531   3.821   5.691  10.529 -0.2184 -0.3093 -0.5871
  104OSM    H2S10532   3.864   5.791  10.551  0.0142 -0.4931 -0.2126
  104OSM    C3S10533   3.916   5.599  10.458  0.2423  0.1481  0.2687
  104OSM    H3S10534   3.879   5.495  10.442 -1.9517  0.8494  0.6305
  104OSM     O310535   4.038   5.591  10.526  0.2245 -0.2700  0.0760
  104OSM    HO310536   4.013   5.601  10.618 -0.0744  1.1986 -0.1524
  104OSM    C4S10537   3.950   5.644  10.316  0.3019  0.1449  0.3329
  104OSM    H4S10538   4.028   5.723  10.310  1.1856 -0.6171  1.4206
  104OSM    C5S10539   3.903   5.589  10.205 -0.6299 -0.0227  0.3352
  104OSM    H5S10540   3.829   5.508  10.215  1.0682 -1.9669 -2.2504
  104OSM    C6S10541   3.939   5.643  10.069  0.5295  0.2740 -0.5610
  104OSM    H6S10542   3.915   5.567   9.992 -1.2173  0.6143 -0.3613
  104OSM    H6T10543   4.048   5.654  10.049  0.8951 -1.1890  0.5418
  104OSM    C7S10544   3.869   5.769  10.032  0.5267 -0.3464 -0.0340
  104OSM    H7S10545   3.898   5.851  10.101 -0.4434 -0.2901  0.3132
  104OSM    H7T10546   3.758   5.757  10.035  0.4799 -0.1842 -0.9614
  104OSM    C8S10547   3.899   5.819   9.887  0.0534  0.1672 -0.2066
  104OSM    H8S10548   4.010   5.804   9.887 -0.1041 -1.0458  0.8210
  104OSM    H8T10549   3.885   5.929   9.878  1.1814  0.4765  1.5526
  104OSM    C9S10550   3.829   5.751   9.781  1.2120 -0.3733 -0.2501
  104OSM    H9S10551   3.725   5.789   9.794  1.4342 -0.6018  2.5219
  104OSM    H9T10552   3.840   5.640   9.790 -0.7624 -0.7938 -2.4741
  104OSM   C10S10553   3.885   5.778   9.647  0.2889  0.1438 -0.0021
  104OSM   H10S10554   3.994   5.779   9.669 -0.2682  1.5557  2.9883
  104OSM   H10T10555   3.859   5.882   9.618 -1.2549 -0.4699 -0.8409
  104OSM   C11S10556   3.851   5.671   9.547 -0.5684 -0.8199 -0.5744
  104OSM   H11S10557   3.741   5.682   9.531 -0.4280 -1.2803 -1.9086
  104OSM   H11T10558   3.885   5.571   9.581  1.4352 -0.5152 -1.6396
  104OSM   C12S10559   3.928   5.694   9.419  0.5458  0.1097  0.2381
  104OSM   H12S10560   4.037   5.675   9.424  0.5051 -0.3639 -0.5631
  104OSM   H12T10561   3.912   5.802   9.401  0.6111  0.3519  1.5782
  104OSM   C13S10562   3.873   5.600   9.305  0.5667  0.7499  0.2213
  104OSM   H13S10563   3.762   5.613   9.309  0.1497 -2.8101  3.6232
  104OSM   H13T10564   3.895   5.500   9.348  2.0108  0.5212 -1.0005
  104OSM   C14S10565   3.939   5.633   9.170 -0.4671 -0.2158  0.4339
  104OSM   H14S10566   4.047   5.652   9.189 -0.2270 -2.6183  1.6494
  104OSM   H14T10567   3.903   5.735   9.147  0.5801 -0.0963 -0.7060
  104OSM   C15S10568   3.915   5.528   9.065 -0.2805 -0.8434 -0.0583
  104OSM   H15S10569   3.806   5.528   9.044 -0.1121  1.9909 -1.0813
  104OSM   H15T10570   3.939   5.424   9.098 -1.5144 -1.3966 -0.8772
  104OSM   C16S10571   3.996   5.575   8.944  0.0409  0.2251 -0.3738
  104OSM   H16S10572   4.098   5.591   8.985  0.7067 -0.9543 -1.5094
  104OSM   H16T10573   3.941   5.660   8.898 -0.9767 -0.3899 -0.3200
  104OSM   C17S10574   4.004   5.473   8.824 -0.1292 -0.0940  0.4729
  104OSM   H17S10575   4.053   5.384   8.868 -0.8966 -0.8934 -0.2937
  104OSM   H17T10576   4.069   5.507   8.741 -2.5923 -1.6293 -2.1565
  104OSM   C18S10577   3.878   5.430   8.754 -0.2685  0.4736 -0.0705
  104OSM   H18S10578   3.815   5.375   8.827 -0.2765 -2.9804 -2.5830
  104OSM   H18T10579   3.903   5.371   8.664  1.8157  0.0200  0.7684
  104OSM   H18U10580   3.812   5.512   8.717 -1.7889 -0.4786  0.5111
  104OSM    C1F10581   3.612   5.807  10.491 -0.4580 -0.0728 -0.6753
  104OSM     OF10582   3.648   5.898  10.566 -0.2626  1.1078 -0.7734
  104OSM    C2F10583   3.477   5.807  10.432  0.0250 -0.0788  0.1796
  104OSM    H2F10584   3.405   5.846  10.507  1.9219  1.9862  0.9853
  104OSM    H2G10585   3.441   5.705  10.408  0.4004  0.1443 -1.3838
  104OSM    C3F10586   3.468   5.900  10.308  0.0293 -0.7800 -0.5699
  104OSM    H3F10587   3.506   6.003  10.329 -0.1543 -1.0375  1.0568
  104OSM    H3G10588   3.361   5.916  10.283 -0.3912 -3.7484 -0.7690
  104OSM    C4F10589   3.549   5.830  10.189  0.2388  1.1510 -0.0629
  104OSM    H4F10590   3.510   5.726  10.182 -0.5264  1.4225  0.1170
  104OSM    H4G10591   3.656   5.826  10.217  0.1763  0.2920  0.0837
  104OSM    C5F10592   3.530   5.902  10.052 -0.2709  0.9119  0.1606
  104OSM    H5F10593   3.571   5.837   9.972  0.7051  1.3602  0.2882
  104OSM    H5G10594   3.587   5.996  10.040  0.4592  0.3434 -0.9513
  104OSM    C6F10595   3.375   5.925  10.019 -0.1640  0.2443  0.3382
  104OSM    H6F10596   3.345   6.009  10.086 -1.5186  0.7018 -0.8177
  104OSM    H6G10597   3.304   5.841  10.037  0.4712 -0.1372  1.1062
  104OSM    C7F10598   3.368   5.957   9.869  0.1598  0.0530  0.0474
  104OSM    H7F10599   3.419   5.875   9.815 -0.2996 -0.8050  0.9103
  104OSM    H7G10600   3.422   6.049   9.836  0.7401 -0.5787 -0.7696
  104OSM    C8F10601   3.221   5.978   9.824 -0.5457  1.3369  0.3709
  104OSM    H8F10602   3.206   6.087   9.806  0.8724  1.6483  0.9955
  104OSM    H8G10603   3.149   5.966   9.908 -0.1073  0.2518  0.5988
  104OSM    C9F10604   3.180   5.891   9.711  0.0722 -0.2042 -0.1220
  104OSM    H9F10605   3.222   5.790   9.722 -1.2389 -0.7181  0.2625
  104OSM   C10F10606   3.101   5.922   9.609 -0.0504  0.6203 -0.6395
  104OSM   H10F10607   3.068   5.845   9.538 -0.8537  0.4278 -0.0582
  104OSM   C11F10608   3.031   6.053   9.597  0.1476 -0.3248  0.7024
  104OSM   H11F10609   3.050   6.122   9.681 -4.0585  0.0626  1.4603
  104OSM   H11G10610   2.920   6.049   9.588  0.1211  0.3227  0.7133
  104OSM   C12F10611   3.081   6.113   9.466  0.0140  0.2328 -0.2997
  104OSM   H12F10612   3.189   6.135   9.481 -0.2541  1.0892  0.4310
  104OSM   H12G10613   3.040   6.215   9.448 -0.8745 -0.2594 -1.1438
  104OSM   C13F10614   3.055   6.034   9.341  0.1501  0.2462 -0.1137
  104OSM   H13F10615   2.946   6.012   9.336  0.7066 -3.0778  0.5683
  104OSM   H13G10616   3.095   5.930   9.352 -1.3535 -0.3049  0.3075
  104OSM   C14F10617   3.093   6.111   9.214 -0.1764  0.3503 -0.4127
  104OSM   H14F10618   3.193   6.160   9.212 -0.3205  0.6237 -1.1690
  104OSM   H14G10619   3.029   6.200   9.197 -1.8092 -1.0157 -1.5785
  104OSM   C15F10620   3.089   6.017   9.092 -0.0417 -0.4555  0.5914
  104OSM   H15F10621   2.984   5.985   9.080 -1.0382  1.7702  2.9955
  104OSM   H15G10622   3.139   5.920   9.113  1.8937  0.6869  1.4309
  104OSM   C16F10623   3.140   6.072   8.962  0.5098  0.7320 -0.6267
  104OSM   H16F10624   3.230   6.131   8.992  0.2219  0.3817  0.9813
  104OSM   H16G10625   3.068   6.147   8.922 -0.1474  0.9584  0.9581
  104OSM   C17F10626   3.164   5.955   8.862 -0.6191  0.3479  0.2588
  104OSM   H17F10627   3.068   5.899   8.866 -1.8851  2.5177  1.9885
  104OSM   H17G10628   3.256   5.896   8.878  0.6092  2.3062  0.6585
  104OSM   C18F10629   3.182   6.010   8.720  0.1784 -0.5904  0.6497
  104OSM   H18F10630   3.275   6.069   8.707  0.2572 -1.0348 -0.8523
  104OSM   H18G10631   3.094   6.066   8.680  2.0255  0.1073 -2.5916
  104OSM   H18H10632   3.191   5.920   8.656 -0.4675 -0.7272  0.7460
  105OSM      N10633   0.330   1.657  11.197  0.4510 -0.1796  0.1141
  105OSM    C1510634   0.446   1.566  11.231 -0.5026  0.1888  1.1264
  105OSM   H15A10635   0.412   1.490  11.301 -2.7996 -1.2793 -1.4730
  105OSM   H15B10636   0.527   1.616  11.282  2.8510 -3.5765 -0.2998
  105OSM   H15C10637   0.481   1.523  11.139 -2.8984 -0.0921  0.3128
  105OSM    C1410638   0.283   1.729  11.320 -0.1819 -0.0755 -0.4846
  105OSM   H14A10639   0.188   1.781  11.326 -0.0814  0.1081 -0.5061
  105OSM   H14B10640   0.359   1.797  11.353 -0.7324 -0.1043  0.8454
  105OSM   H14C10641   0.287   1.655  11.398  0.6924  0.5405  0.0546
  105OSM    C1310642   0.362   1.745  11.089 -0.3971  0.4619  0.8711
  105OSM   H13A10643   0.376   1.691  10.997 -0.6802  1.7094  0.0839
  105OSM   H13B10644   0.447   1.811  11.100 -1.2295  2.5071 -3.7155
  105OSM   H13C10645   0.280   1.813  11.071 -0.6249 -0.1065 -0.2355
  105OSM    C1210646   0.213   1.562  11.153  0.3933 -0.1153 -0.6296
  105OSM   H12A10647   0.129   1.628  11.137  2.0674  2.3094  0.1168
  105OSM   H12B10648   0.197   1.500  11.241 -1.0867  2.4144  0.9580
  105OSM    C1110649   0.240   1.476  11.027 -0.1600  0.3496 -0.0235
  105OSM   H11A10650   0.164   1.395  11.016  1.3023 -0.9123 -1.0743
  105OSM   H11B10651   0.340   1.429  11.026  0.3101  1.3397 -0.3698
  105OSM      P10652   0.099   1.613  10.851 -0.0833  0.0830 -0.2779
  105OSM    O1310653  -0.002   1.612  10.959  0.3389  0.0694 -0.1503
  105OSM    O1410654   0.129   1.751  10.801 -0.2173  0.2357 -0.0284
  105OSM    O1110655   0.057   1.504  10.735 -0.5113 -0.1634  0.4596
  105OSM    O1210656   0.234   1.553  10.913 -0.1488  0.0935 -0.0378
  105OSM    C1S10657  -0.003   1.558  10.620  0.1566 -0.0326 -0.4612
  105OSM    H1S10658  -0.057   1.655  10.628  0.9165  0.3779 -0.3222
  105OSM    H1T10659  -0.097   1.501  10.602  0.4900 -0.6405 -0.3164
  105OSM     NF10660   0.021   1.602  10.375  0.6188  0.5311  0.3530
  105OSM    HNF10661  -0.025   1.556  10.299 -3.3272  2.6922  1.3143
  105OSM    C2S10662   0.081   1.534  10.491  0.4929 -0.2543  0.1446
  105OSM    H2S10663   0.184   1.573  10.508  0.1489  1.7248 -2.1029
  105OSM    C3S10664   0.108   1.385  10.458  0.3214  0.8042  0.1208
  105OSM    H3S10665   0.005   1.344  10.443 -0.4750  1.7647  2.7901
  105OSM     O310666   0.155   1.302  10.564 -0.2398 -0.4526  0.8464
  105OSM    HO310667   0.140   1.365  10.636  0.6953  1.8443 -0.8873
  105OSM    C4S10668   0.192   1.364  10.335  0.0466 -0.3866 -0.2458
  105OSM    H4S10669   0.287   1.420  10.338 -1.2657  1.9755 -1.0762
  105OSM    C5S10670   0.150   1.287  10.238  0.5096  0.0635 -0.2400
  105OSM    H5S10671   0.053   1.236  10.238  1.0400 -0.9854  1.1298
  105OSM    C6S10672   0.217   1.278  10.109  0.3368  0.2826  0.3340
  105OSM    H6S10673   0.281   1.187  10.101  1.4315  1.3550 -5.3106
  105OSM    H6T10674   0.285   1.364  10.091  1.2823 -0.4961  0.0640
  105OSM    C7S10675   0.118   1.242   9.987  0.1189 -0.7570 -0.6168
  105OSM    H7S10676   0.065   1.334   9.954  0.7645 -0.7242 -1.6021
  105OSM    H7T10677   0.045   1.168  10.024 -0.9744  0.7394  0.2653
  105OSM    C8S10678   0.188   1.189   9.863  0.4713  0.0229 -0.6969
  105OSM    H8S10679   0.211   1.081   9.873 -0.0184 -0.1722 -1.5909
  105OSM    H8T10680   0.283   1.245   9.850  1.3333 -0.4410  3.1942
  105OSM    C9S10681   0.111   1.205   9.730 -0.5317  0.2334  1.1125
  105OSM    H9S10682   0.177   1.221   9.642  0.1596  1.7990  1.8853
  105OSM    H9T10683   0.065   1.307   9.730 -1.4984 -0.1003 -2.5157
  105OSM   C10S10684  -0.003   1.102   9.703 -0.0848 -0.8882  0.3076
  105OSM   H10S10685  -0.077   1.112   9.786 -0.1365  3.2691 -0.1415
  105OSM   H10T10686   0.042   1.000   9.704  1.0827 -0.3804  0.0350
  105OSM   C11S10687  -0.073   1.127   9.566  0.1216 -0.2724 -0.1454
  105OSM   H11S10688  -0.001   1.143   9.482 -1.4219 -0.9803 -1.6277
  105OSM   H11T10689  -0.131   1.220   9.579  0.9470 -0.0711  2.3264
  105OSM   C12S10690  -0.171   1.013   9.535 -0.2532 -0.6680  0.0636
  105OSM   H12S10691  -0.236   0.999   9.624  0.9731 -0.6321  0.9792
  105OSM   H12T10692  -0.112   0.920   9.521  1.8025  0.6949 -0.5802
  105OSM   C13S10693  -0.261   1.049   9.416 -0.3691  0.4726 -0.3024
  105OSM   H13S10694  -0.192   1.058   9.329  0.1964 -1.2338 -0.0489
  105OSM   H13T10695  -0.315   1.144   9.433 -0.5812  0.5346 -1.2840
  105OSM   C14S10696  -0.370   0.945   9.387  0.1013 -0.1924 -0.8089
  105OSM   H14S10697  -0.422   0.935   9.484 -0.5120  0.2030 -1.0956
  105OSM   H14T10698  -0.308   0.854   9.374  0.9044  0.0933  0.9255
  105OSM   C15S10699  -0.465   0.961   9.275 -0.3737  0.4678  0.8455
  105OSM   H15S10700  -0.536   0.875   9.269 -1.7051  1.6214 -0.3332
  105OSM   H15T10701  -0.408   0.962   9.180 -2.0918 -3.0104 -0.3058
  105OSM   C16S10702  -0.545   1.091   9.286 -1.1061  0.5136  0.0285
  105OSM   H16S10703  -0.552   1.103   9.397  0.4535 -1.1848  0.3273
  105OSM   H16T10704  -0.645   1.069   9.241 -0.0351 -1.2058 -1.5554
  105OSM   C17S10705  -0.483   1.208   9.205  0.1050  0.1460 -0.3718
  105OSM   H17S10706  -0.377   1.233   9.229  0.1643 -0.0306 -0.4541
  105OSM   H17T10707  -0.546   1.297   9.227  1.2182  0.0604  3.4944
  105OSM   C18S10708  -0.475   1.176   9.053  0.1220 -0.0571 -0.2191
  105OSM   H18S10709  -0.482   1.271   8.996 -0.6040  0.4701  0.7417
  105OSM   H18T10710  -0.557   1.106   9.023 -0.9462  0.0497  2.3545
  105OSM   H18U10711  -0.384   1.122   9.020  0.4821  1.1297 -1.2114
  105OSM    C1F10712  -0.000   1.732  10.382 -0.5273 -0.0021  0.0632
  105OSM     OF10713   0.058   1.798  10.466  0.1701  0.2346 -0.8140
  105OSM    C2F10714  -0.115   1.782  10.303 -0.2151 -0.6481  0.0394
  105OSM    H2F10715  -0.206   1.741  10.350 -0.6697 -0.1072 -0.3655
  105OSM    H2G10716  -0.099   1.743  10.200 -0.7876  0.9782 -0.6887
  105OSM    C3F10717  -0.110   1.937  10.296  0.3477 -0.1857  0.2437
  105OSM    H3F10718  -0.013   1.967  10.249 -0.2991  1.2040 -0.2162
  105OSM    H3G10719  -0.131   1.996  10.388 -3.3519 -2.7966  1.1503
  105OSM    C4F10720  -0.225   1.986  10.203 -0.1774 -0.2311  0.1355
  105OSM    H4F10721  -0.314   1.955  10.261 -0.7733  1.5169  0.1883
  105OSM    H4G10722  -0.221   1.937  10.103  1.9346 -2.4705  1.2631
  105OSM    C5F10723  -0.222   2.142  10.192 -0.2841 -0.0217 -0.4836
  105OSM    H5F10724  -0.127   2.150  10.136  0.1766  0.8515  0.4092
  105OSM    H5G10725  -0.209   2.190  10.291 -0.3178  1.3306 -1.1096
  105OSM    C6F10726  -0.346   2.202  10.128 -0.1877  0.4017  0.2530
  105OSM    H6F10727  -0.343   2.313  10.130 -0.5370  0.4549 -1.4566
  105OSM    H6G10728  -0.429   2.162  10.189  0.8721 -0.6624  1.0222
  105OSM    C7F10729  -0.371   2.152   9.987  0.0880 -0.1620 -0.3918
  105OSM    H7F10730  -0.449   2.205   9.929 -0.2957 -1.8858 -1.4796
  105OSM    H7G10731  -0.396   2.044   9.992 -0.6338  0.0042 -0.3641
  105OSM    C8F10732  -0.248   2.174   9.892 -0.0363 -0.5896 -0.7649
  105OSM    H8F10733  -0.153   2.138   9.934  1.2183  0.4995 -2.5825
  105OSM    H8G10734  -0.241   2.285   9.883  1.9815 -0.8401 -2.7751
  105OSM    C9F10735  -0.276   2.098   9.765 -0.0365 -0.5005  0.0246
  105OSM    H9F10736  -0.280   1.990   9.787  1.7193 -0.1130  2.4712
  105OSM   C10F10737  -0.276   2.144   9.638  0.2541  0.4684  0.3803
  105OSM   H10F10738  -0.282   2.066   9.560 -1.7395 -0.2545  1.2404
  105OSM   C11F10739  -0.238   2.278   9.594  0.3728  0.1052  0.5342
  105OSM   H11F10740  -0.231   2.349   9.678  0.5048  1.4450 -0.5928
  105OSM   H11G10741  -0.333   2.311   9.546  0.1540  0.5582  1.2710
  105OSM   C12F10742  -0.119   2.304   9.497 -0.2595  0.5567  0.2547
  105OSM   H12F10743  -0.026   2.269   9.547 -1.1276  0.1283  1.5940
  105OSM   H12G10744  -0.119   2.414   9.483  1.7348  0.5969  0.3985
  105OSM   C13F10745  -0.134   2.232   9.361  0.0825  0.2135  0.4377
  105OSM   H13F10746  -0.228   2.249   9.306  0.0782 -0.0485  0.3635
  105OSM   H13G10747  -0.133   2.123   9.381  0.8161  0.4682  1.8825
  105OSM   C14F10748  -0.012   2.246   9.267 -0.0276 -0.4471  0.1034
  105OSM   H14F10749   0.085   2.213   9.311  1.5076  1.1230 -1.9732
  105OSM   H14G10750   0.002   2.356   9.256  3.0861 -0.9080 -1.0403
  105OSM   C15F10751  -0.027   2.180   9.128 -0.0114 -0.0387  1.0702
  105OSM   H15F10752   0.053   2.225   9.065 -2.2132  1.9391 -0.4086
  105OSM   H15G10753  -0.126   2.208   9.086  0.0179 -0.2746  0.8457
  105OSM   C16F10754  -0.019   2.026   9.125 -0.2132 -0.4922  0.0224
  105OSM   H16F10755  -0.073   1.995   9.033 -0.2634 -0.6310  0.0984
  105OSM   H16G10756  -0.067   1.982   9.216  0.2507  0.0003  0.5094
  105OSM   C17F10757   0.127   1.991   9.121 -0.5856  0.4460 -0.3409
  105OSM   H17F10758   0.189   2.054   9.187  0.8695 -0.3277 -0.9322
  105OSM   H17G10759   0.166   2.004   9.017  0.3158 -1.7259 -0.3151
  105OSM   C18F10760   0.147   1.847   9.174 -0.1056 -0.4346  0.7194
  105OSM   H18F10761   0.105   1.846   9.277 -0.3011  3.5949  0.7412
  105OSM   H18G10762   0.255   1.824   9.190  0.4239  0.3130 -1.6555
  105OSM   H18H10763   0.103   1.769   9.108 -0.3916 -1.1671  1.7486
  106OSM      N10764   5.731   0.602  10.714 -0.3128 -0.3822 -0.1769
  106OSM    C1510765   5.828   0.600  10.825 -0.4683 -0.5115 -0.0106
  106OSM   H15A10766   5.899   0.681  10.825  1.5885 -2.2615 -0.8976
  106OSM   H15B10767   5.895   0.515  10.819 -0.5313 -0.4426 -2.2644
  106OSM   H15C10768   5.785   0.594  10.924  0.1968 -0.5082  0.2836
  106OSM    C1410769   5.637   0.487  10.737 -0.1790  0.3294  0.1960
  106OSM   H14A10770   5.691   0.396  10.760  0.0976  0.9548  2.0057
  106OSM   H14B10771   5.564   0.477  10.657  0.7817 -1.5984 -0.4793
  106OSM   H14C10772   5.578   0.512  10.824 -0.4018 -1.0870  0.4623
  106OSM    C1310773   5.645   0.722  10.710 -0.0056 -0.5919 -0.3490
  106OSM   H13A10774   5.714   0.804  10.699 -0.1438 -0.3219  0.7920
  106OSM   H13B10775   5.596   0.722  10.806 -0.3866  0.0099 -0.5421
  106OSM   H13C10776   5.592   0.742  10.617  1.1415 -1.1968 -1.1462
  106OSM    C1210777   5.809   0.591  10.582 -0.3835 -0.6765 -0.2871
  106OSM   H12A10778   5.736   0.568  10.505 -1.4865  1.7738  0.0060
  106OSM   H12B10779   5.878   0.508  10.593 -0.1256 -0.5625 -1.0291
  106OSM    C1110780   5.906   0.704  10.532  0.1895  0.1014  0.4806
  106OSM   H11A10781   5.843   0.794  10.518  0.5666  0.0787 -1.4508
  106OSM   H11B10782   5.948   0.676  10.433  1.7524 -0.5971  1.3211
  106OSM      P10783   6.076   0.872  10.656 -0.1058  0.3750 -0.5548
  106OSM    O1310784   6.020   0.919  10.783  0.0142 -0.2368 -0.0579
  106OSM    O1410785   6.225   0.878  10.652 -0.1099  0.6279  0.8884
  106OSM    O1110786   6.028   0.958  10.546  0.2378 -0.2150  0.1025
  106OSM    O1210787   6.016   0.725  10.624 -0.2759  0.3285  0.5784
  106OSM    C1S10788   6.093   0.968  10.418 -0.2827  0.4361  0.0530
  106OSM    H1S10789   6.108   0.870  10.368 -1.3691  0.1517  0.2626
  106OSM    H1T10790   6.190   1.020  10.432  1.3337 -2.3427 -0.4056
  106OSM     NF10791   6.061   1.094  10.196 -0.6063  0.0416  0.5967
  106OSM    HNF10792   6.059   1.192  10.180  1.0597  0.2498  1.5008
  106OSM    C2S10793   5.999   1.048  10.321  0.3830 -0.0152 -0.7193
  106OSM    H2S10794   5.916   0.980  10.293  0.5351  0.0360 -1.2911
  106OSM    C3S10795   5.932   1.162  10.405 -0.3892  0.1366  0.3153
  106OSM    H3S10796   6.017   1.215  10.453 -0.7976  1.6992 -0.6504
  106OSM     O310797   5.835   1.123  10.506 -0.1562 -0.4052  0.3971
  106OSM    HO310798   5.866   1.037  10.533  0.5590  0.0737  1.1552
  106OSM    C4S10799   5.870   1.259  10.311 -0.1666  0.9389  1.2464
  106OSM    H4S10800   5.805   1.204  10.241  1.6755  0.0314  0.2291
  106OSM    C5S10801   5.909   1.387  10.287 -0.5392  0.2953  0.5271
  106OSM    H5S10802   6.008   1.411  10.330 -0.7105  2.3048 -0.1583
  106OSM    C6S10803   5.858   1.486  10.189  0.4015 -0.3950  0.1803
  106OSM    H6S10804   5.909   1.581  10.213 -0.8500 -0.0206  1.4277
  106OSM    H6T10805   5.751   1.516  10.189  1.1349  2.3821 -1.1537
  106OSM    C7S10806   5.872   1.453  10.037 -0.1310 -0.3280  0.0679
  106OSM    H7S10807   5.824   1.354  10.020  0.9174 -0.7170 -0.6419
  106OSM    H7T10808   5.980   1.439  10.016 -0.7270 -1.2281 -2.5676
  106OSM    C8S10809   5.823   1.565   9.938 -0.4379  0.9848  0.2645
  106OSM    H8S10810   5.870   1.664   9.956  1.3627  0.4543 -1.3653
  106OSM    H8T10811   5.718   1.593   9.960 -0.4580  0.0935  1.3217
  106OSM    C9S10812   5.833   1.531   9.792  0.5147 -0.5427 -0.0327
  106OSM    H9S10813   5.764   1.447   9.770 -2.3726  0.8550  3.2315
  106OSM    H9T10814   5.930   1.500   9.749  1.6540  0.4551  1.7797
  106OSM   C10S10815   5.782   1.644   9.700  0.0174 -0.1343  0.8354
  106OSM   H10S10816   5.831   1.740   9.728 -0.2624  0.1044  0.5244
  106OSM   H10T10817   5.672   1.652   9.715  0.2120  1.2222  1.6346
  106OSM   C11S10818   5.817   1.600   9.557 -0.2013  0.5740 -0.1982
  106OSM   H11S10819   5.780   1.499   9.531  0.1312  0.8883 -1.9769
  106OSM   H11T10820   5.928   1.594   9.553 -0.0932 -0.7414  2.9540
  106OSM   C12S10821   5.774   1.701   9.454  0.1787  0.7620 -0.3412
  106OSM   H12S10822   5.821   1.801   9.467  0.4335  0.4300  1.3638
  106OSM   H12T10823   5.664   1.714   9.460  0.2085  0.0048  2.8422
  106OSM   C13S10824   5.808   1.647   9.317  0.3624 -0.0720  0.2094
  106OSM   H13S10825   5.761   1.548   9.299  0.0922 -0.2412  1.7941
  106OSM   H13T10826   5.918   1.633   9.313  0.1642 -1.4169 -1.0143
  106OSM   C14S10827   5.755   1.740   9.201  0.3776 -0.2693 -1.7163
  106OSM   H14S10828   5.808   1.835   9.180 -0.2254  0.2144 -1.0409
  106OSM   H14T10829   5.653   1.770   9.232  1.5453  0.2526  1.8768
  106OSM   C15S10830   5.740   1.671   9.075 -0.8505  0.3193  0.1096
  106OSM   H15S10831   5.728   1.562   9.089  1.4720 -0.1839 -1.5334
  106OSM   H15T10832   5.831   1.677   9.013 -0.9950  1.4692  0.0001
  106OSM   C16S10833   5.619   1.734   8.999 -0.4648  0.5475  0.4203
  106OSM   H16S10834   5.632   1.844   8.988 -0.4277  0.6014  0.9539
  106OSM   H16T10835   5.528   1.726   9.063 -0.8379 -0.1530 -0.1962
  106OSM   C17S10836   5.577   1.657   8.873 -0.6165 -0.0122 -0.1493
  106OSM   H17S10837   5.475   1.689   8.846  0.0300 -0.3371 -3.1456
  106OSM   H17T10838   5.569   1.550   8.902  0.1149  0.1651  0.7345
  106OSM   C18S10839   5.671   1.669   8.752 -1.0171 -0.4699 -0.3880
  106OSM   H18S10840   5.626   1.625   8.660  0.3317 -0.9293 -0.8456
  106OSM   H18T10841   5.771   1.626   8.776 -0.4562  0.5886 -0.7563
  106OSM   H18U10842   5.693   1.776   8.731  0.3879 -0.3667  1.4492
  106OSM    C1F10843   6.137   1.013  10.121 -0.0170  0.0199  0.0818
  106OSM     OF10844   6.111   0.900  10.127 -0.1074  0.3888 -0.0503
  106OSM    C2F10845   6.251   1.060  10.034  0.3672  0.1715 -0.3302
  106OSM    H2F10846   6.341   1.060  10.099  1.2263  2.4756 -1.4802
  106OSM    H2G10847   6.246   1.167  10.007  1.0999  0.5423  0.9658
  106OSM    C3F10848   6.285   0.963   9.922  0.5132  0.2792  0.0726
  106OSM    H3F10849   6.201   0.929   9.858  2.7120  1.3636 -3.5664
  106OSM    H3G10850   6.344   0.885   9.975  0.0522  0.5055  0.9191
  106OSM    C4F10851   6.383   1.030   9.812  0.0888  0.3205 -0.6899
  106OSM    H4F10852   6.390   0.959   9.727  1.4850 -1.9520  1.2837
  106OSM    H4G10853   6.485   1.038   9.854  0.8777 -2.1252 -2.0700
  106OSM    C5F10854   6.338   1.164   9.756 -0.2047  0.0403  0.1885
  106OSM    H5F10855   6.409   1.184   9.673 -0.7918 -0.2916 -0.3891
  106OSM    H5G10856   6.347   1.244   9.833 -0.5911  1.4735 -1.2412
  106OSM    C6F10857   6.192   1.159   9.700  0.3423 -0.3688  0.6100
  106OSM    H6F10858   6.115   1.141   9.777 -1.7825  3.7628 -0.4004
  106OSM    H6G10859   6.184   1.071   9.632  0.8260  0.3384 -0.3839
  106OSM    C7F10860   6.139   1.286   9.626 -0.2437 -0.4555 -0.7150
  106OSM    H7F10861   6.205   1.306   9.539 -1.5882 -0.5593 -1.7732
  106OSM    H7G10862   6.135   1.372   9.696 -0.0901  0.8748 -2.3152
  106OSM    C8F10863   5.995   1.256   9.572  0.3090  0.2361 -0.5957
  106OSM    H8F10864   5.959   1.346   9.518 -0.8071  0.2401  0.1496
  106OSM    H8G10865   5.933   1.228   9.660  0.0827 -1.1532 -1.1842
  106OSM    C9F10866   5.983   1.137   9.478  0.4601 -0.0935 -0.0822
  106OSM    H9F10867   6.039   1.046   9.507  0.9700  0.2270 -0.0582
  106OSM   C10F10868   5.924   1.137   9.360 -0.4777  0.5983  0.6675
  106OSM   H10F10869   5.938   1.049   9.296  0.1300  0.3861  1.0869
  106OSM   C11F10870   5.874   1.266   9.298  0.4787 -0.3996  0.6862
  106OSM   H11F10871   5.925   1.357   9.336  1.0802 -0.0840 -0.8489
  106OSM   H11G10872   5.765   1.275   9.315  0.3901  1.8129 -0.9302
  106OSM   C12F10873   5.910   1.277   9.152 -0.2531  0.1754  0.4288
  106OSM   H12F10874   6.019   1.289   9.131  0.4641 -2.5080  2.3639
  106OSM   H12G10875   5.866   1.370   9.111  0.0143 -0.1476 -0.6087
  106OSM   C13F10876   5.843   1.177   9.063  0.3815  0.2635  0.7425
  106OSM   H13F10877   5.807   1.225   8.970  0.7448  0.4305  0.6863
  106OSM   H13G10878   5.757   1.134   9.119 -0.0590 -0.3085 -0.3675
  106OSM   C14F10879   5.937   1.066   9.012  0.0626  0.4044 -0.2254
  106OSM   H14F10880   6.013   1.043   9.089 -0.6436  0.3637  0.4640
  106OSM   H14G10881   5.987   1.111   8.923 -1.0570  0.6681 -0.7239
  106OSM   C15F10882   5.867   0.938   8.964 -0.0533 -0.0184 -0.4435
  106OSM   H15F10883   5.801   0.898   9.045 -0.4656  2.4343  0.4619
  106OSM   H15G10884   5.953   0.867   8.963 -1.3759 -1.6950  0.3250
  106OSM   C16F10885   5.799   0.944   8.830 -0.6751 -0.3806  0.7739
  106OSM   H16F10886   5.877   0.959   8.753 -1.1709 -0.2583  0.2896
  106OSM   H16G10887   5.730   1.030   8.816 -1.1968 -1.0078 -0.6730
  106OSM   C17F10888   5.718   0.820   8.809  1.1030  0.5653  0.4425
  106OSM   H17F10889   5.650   0.819   8.897  0.6148 -1.2263  0.0578
  106OSM   H17G10890   5.771   0.723   8.817  0.6722  0.1701 -1.1605
  106OSM   C18F10891   5.629   0.826   8.685 -0.1478  0.7800 -0.1134
  106OSM   H18F10892   5.569   0.733   8.673  0.7947  0.2669 -0.9372
  106OSM   H18G10893   5.691   0.816   8.593 -0.5302 -0.7324 -0.2241
  106OSM   H18H10894   5.572   0.920   8.671 -2.2538 -0.6631 -1.4980
  107OSM      N10895   1.791   5.428  10.768 -0.4626 -0.0852 -0.5380
  107OSM    C1510896   1.771   5.287  10.723  0.2698  0.0380  0.7910
  107OSM   H15A10897   1.693   5.284  10.648  0.3636  1.3590  0.6407
  107OSM   H15B10898   1.751   5.217  10.804 -1.8745  1.4200  1.4922
  107OSM   H15C10899   1.857   5.245  10.673  1.0561  1.5534  0.8416
  107OSM    C1410900   1.814   5.517  10.651 -0.1753  0.5324  0.5603
  107OSM   H14A10901   1.731   5.495  10.587  1.2030 -0.7260 -0.8422
  107OSM   H14B10902   1.901   5.495  10.591  0.3518 -0.6505  1.7202
  107OSM   H14C10903   1.805   5.619  10.686  2.2059  0.5579  1.2288
  107OSM    C1310904   1.667   5.472  10.834  0.4238  0.1479  0.6109
  107OSM   H13A10905   1.637   5.414  10.920 -0.9396  2.2318  1.5944
  107OSM   H13B10906   1.580   5.467  10.770 -0.8887 -1.2002  2.4323
  107OSM   H13C10907   1.686   5.573  10.867 -1.6816  1.1333 -1.0766
  107OSM    C1210908   1.918   5.435  10.853  0.3801 -0.8767 -0.0402
  107OSM   H12A10909   1.905   5.357  10.927 -2.3125 -0.8757 -0.4961
  107OSM   H12B10910   1.928   5.533  10.897  1.0017 -0.5532 -0.8945
  107OSM    C1110911   2.052   5.413  10.768  0.5461 -0.0825 -0.1774
  107OSM   H11A10912   2.034   5.333  10.693 -2.2408 -1.4104  1.8462
  107OSM   H11B10913   2.123   5.391  10.850 -2.4979 -0.9862  2.3287
  107OSM      P10914   2.152   5.650  10.789 -0.4023  0.2187  0.1945
  107OSM    O1310915   2.091   5.653  10.921  0.0988 -0.4969 -0.0193
  107OSM    O1410916   2.301   5.635  10.781 -0.3360  0.2221  0.0251
  107OSM    O1110917   2.105   5.779  10.716  0.0545  0.0335  0.0021
  107OSM    O1210918   2.094   5.537  10.698 -0.1568 -0.4621 -0.3605
  107OSM    C1S10919   2.163   5.830  10.593 -0.3951 -0.1078  0.1096
  107OSM    H1S10920   2.273   5.815  10.597 -0.6189 -1.5502  1.2599
  107OSM    H1T10921   2.147   5.939  10.584  1.1753  0.4671  3.4286
  107OSM     NF10922   2.193   5.812  10.350  0.2836 -0.1689  0.2943
  107OSM    HNF10923   2.151   5.880  10.289 -1.2980  1.4190  3.0673
  107OSM    C2S10924   2.102   5.775  10.459 -0.2902 -0.5452  0.2171
  107OSM    H2S10925   2.114   5.664  10.461  2.1002 -0.3584 -1.4621
  107OSM    C3S10926   1.952   5.831  10.451  0.1271 -0.1365 -0.1390
  107OSM    H3S10927   1.946   5.940  10.429  0.2952  0.0057  0.5154
  107OSM     O310928   1.884   5.819  10.579  0.3258 -0.4285 -0.5478
  107OSM    HO310929   1.958   5.810  10.640  0.2880  1.4063 -0.2135
  107OSM    C4S10930   1.879   5.759  10.353 -0.4099 -0.1176  0.1273
  107OSM    H4S10931   1.854   5.658  10.389 -0.9276 -0.3562 -0.8908
  107OSM    C5S10932   1.847   5.791  10.226  0.6363 -0.6777 -0.0207
  107OSM    H5S10933   1.872   5.890  10.183  0.1129 -1.2185 -1.6128
  107OSM    C6S10934   1.768   5.708  10.135 -0.2846 -0.2224 -0.2511
  107OSM    H6S10935   1.695   5.647  10.193 -1.6797  0.9789 -0.7208
  107OSM    H6T10936   1.835   5.645  10.072  0.2179  0.1201 -0.0557
  107OSM    C7S10937   1.698   5.806  10.044 -0.1378  0.5364 -0.6653
  107OSM    H7S10938   1.760   5.884   9.994  1.7348  1.0063  2.2199
  107OSM    H7T10939   1.613   5.855  10.096 -2.6107 -4.1227 -0.0605
  107OSM    C8S10940   1.620   5.715   9.942  0.2286  0.2541  0.3902
  107OSM    H8S10941   1.540   5.669  10.004  0.6768 -1.4397 -0.2593
  107OSM    H8T10942   1.693   5.639   9.909 -1.3412 -0.7620 -0.8148
  107OSM    C9S10943   1.545   5.785   9.833  0.3380 -0.7012  0.1998
  107OSM    H9S10944   1.614   5.830   9.757 -2.4608  0.5659 -1.6924
  107OSM    H9T10945   1.484   5.869   9.872  2.4584  2.3822 -2.7443
  107OSM   C10S10946   1.449   5.695   9.752  0.0817  0.5644  0.0740
  107OSM   H10S10947   1.356   5.680   9.811 -0.3335 -3.0261 -1.3731
  107OSM   H10T10948   1.477   5.588   9.749  2.0643  1.0942 -0.6373
  107OSM   C11S10949   1.412   5.754   9.611  0.3194 -0.1942 -0.0618
  107OSM   H11S10950   1.503   5.775   9.549  0.3263  2.9525  0.9067
  107OSM   H11T10951   1.359   5.850   9.626 -3.0909 -1.6305 -2.3512
  107OSM   C12S10952   1.325   5.662   9.521  0.3280 -0.3196 -0.1679
  107OSM   H12S10953   1.221   5.670   9.557  0.1953  1.5564 -0.8687
  107OSM   H12T10954   1.352   5.555   9.520 -0.8825 -0.6257 -1.0602
  107OSM   C13S10955   1.320   5.701   9.381 -0.0142 -0.6264  0.4762
  107OSM   H13S10956   1.299   5.810   9.376 -1.8219 -0.9121  1.3880
  107OSM   H13T10957   1.235   5.649   9.330  0.4462  1.7297 -2.7872
  107OSM   C14S10958   1.431   5.666   9.283 -0.3788  0.5397 -0.6248
  107OSM   H14S10959   1.418   5.558   9.263 -1.2034  0.5813 -0.3134
  107OSM   H14T10960   1.533   5.684   9.325 -0.6267 -0.2891  0.3521
  107OSM   C15S10961   1.417   5.747   9.154 -0.1623  0.2488  0.4267
  107OSM   H15S10962   1.321   5.778   9.108 -0.6265 -0.2326  1.0657
  107OSM   H15T10963   1.468   5.683   9.079  0.5674  0.6006  0.6134
  107OSM   C16S10964   1.502   5.877   9.155  0.3242  0.6107 -0.7238
  107OSM   H16S10965   1.601   5.848   9.196 -0.4638 -1.2540 -0.1051
  107OSM   H16T10966   1.447   5.949   9.219 -2.7064 -0.7255 -1.7512
  107OSM   C17S10967   1.532   5.931   9.018  0.0969 -0.1749 -0.0361
  107OSM   H17S10968   1.447   5.901   8.953 -0.5120 -1.0867  1.1597
  107OSM   H17T10969   1.622   5.886   8.969 -0.0382 -0.4363 -0.0410
  107OSM   C18S10970   1.550   6.085   9.014  0.2302 -0.2958 -1.2045
  107OSM   H18S10971   1.455   6.131   9.048  1.9610  1.2749  1.7633
  107OSM   H18T10972   1.579   6.119   8.912  1.0157 -0.2784 -0.9794
  107OSM   H18U10973   1.637   6.111   9.079  2.0306 -1.6501 -3.0052
  107OSM    C1F10974   2.315   5.765  10.332  0.7897  0.9263 -0.2052
  107OSM     OF10975   2.377   5.686  10.407 -0.0214  0.0262 -0.2546
  107OSM    C2F10976   2.386   5.807  10.212  0.2111 -0.2952  0.4155
  107OSM    H2F10977   2.436   5.907  10.218 -0.2288 -0.0257 -0.4097
  107OSM    H2G10978   2.317   5.816  10.126  2.3406  2.0676 -1.1236
  107OSM    C3F10979   2.495   5.703  10.171  0.0711 -0.5089 -1.0044
  107OSM    H3F10980   2.442   5.606  10.178  0.9928 -0.8736  1.6970
  107OSM    H3G10981   2.578   5.694  10.245 -1.1230 -1.1391  0.2736
  107OSM    C4F10982   2.557   5.718  10.035 -0.2422  0.3860  0.1070
  107OSM    H4F10983   2.619   5.811  10.036  0.2335  0.0581  1.9325
  107OSM    H4G10984   2.467   5.722   9.970  0.3586 -0.5080 -0.7875
  107OSM    C5F10985   2.642   5.597   9.994 -0.3773  0.3117 -0.9406
  107OSM    H5F10986   2.573   5.516   9.961 -1.9213  1.0001  0.4986
  107OSM    H5G10987   2.705   5.564  10.078  0.1834 -0.2321 -1.5736
  107OSM    C6F10988   2.734   5.642   9.874  0.3562  0.0321  0.3932
  107OSM    H6F10989   2.801   5.553   9.868 -1.3618 -1.3270  0.8729
  107OSM    H6G10990   2.796   5.728   9.909  1.0625 -0.6181  0.7800
  107OSM    C7F10991   2.654   5.658   9.748 -0.2311 -0.0438 -0.1091
  107OSM    H7F10992   2.574   5.735   9.757  0.2845  0.4644  0.1752
  107OSM    H7G10993   2.605   5.561   9.725 -0.6277 -0.3284  1.8749
  107OSM    C8F10994   2.742   5.701   9.628 -0.4585  0.2411  0.6351
  107OSM    H8F10995   2.710   5.656   9.531  1.8908 -2.3518  0.9886
  107OSM    H8G10996   2.845   5.659   9.635 -1.5268 -2.9031 -1.1598
  107OSM    C9F10997   2.743   5.853   9.613 -0.1148 -0.2210 -0.3311
  107OSM    H9F10998   2.806   5.905   9.687 -1.9976 -0.3118  1.3814
  107OSM   C10F10999   2.669   5.919   9.523  0.4912 -0.8393 -0.6837
  107OSM   H10F11000   2.667   6.029   9.526  1.9178 -0.8248  3.2167
  107OSM   C11F11001   2.562   5.859   9.439 -0.3806  0.2230 -0.6758
  107OSM   H11F11002   2.494   5.946   9.425  0.1312  0.7802  0.2915
  107OSM   H11G11003   2.511   5.778   9.495 -1.8662  2.5998  1.5207
  107OSM   C12F11004   2.605   5.817   9.300 -0.0802  0.6823 -0.2474
  107OSM   H12F11005   2.523   5.751   9.265  3.1641 -2.3296 -2.5316
  107OSM   H12G11006   2.689   5.745   9.308  0.5459  1.4772  0.4786
  107OSM   C13F11007   2.645   5.925   9.206  0.2669 -1.1178  0.1934
  107OSM   H13F11008   2.737   5.977   9.241 -0.1677  0.2006 -0.6073
  107OSM   H13G11009   2.566   6.002   9.203 -0.3298 -1.7246  0.3033
  107OSM   C14F11010   2.677   5.860   9.067  0.0207 -0.2154  0.3969
  107OSM   H14F11011   2.582   5.809   9.040 -0.4968  0.4419  0.9419
  107OSM   H14G11012   2.764   5.791   9.072  1.1465  1.3011  2.2278
  107OSM   C15F11013   2.701   5.977   8.968  0.3199 -0.3960 -0.0909
  107OSM   H15F11014   2.783   6.042   9.006 -2.2438  2.4579  0.7730
  107OSM   H15G11015   2.611   6.043   8.974  2.3240  2.4191  0.0752
  107OSM   C16F11016   2.724   5.937   8.824  0.3235  0.2836  0.1031
  107OSM   H16F11017   2.625   5.922   8.775  0.5655  2.5492 -1.1393
  107OSM   H16G11018   2.777   5.840   8.814  1.1705  0.6854  0.6504
  107OSM   C17F11019   2.799   6.040   8.746 -0.5451  0.4064  0.7037
  107OSM   H17F11020   2.907   6.020   8.761 -0.6657 -0.2728  0.6736
  107OSM   H17G11021   2.766   6.141   8.777 -1.7725  0.1716  0.2003
  107OSM   C18F11022   2.780   6.025   8.599 -0.0343 -0.1367 -0.5012
  107OSM   H18F11023   2.851   6.089   8.543  1.2472 -0.2313  0.9801
  107OSM   H18G11024   2.679   6.054   8.565 -0.1546 -2.5626 -2.3721
  107OSM   H18H11025   2.796   5.918   8.573 -0.0307 -0.4171  0.6507
  108OSM      N11026   6.230   0.064  10.502 -0.0645 -0.0556  0.0330
  108OSM    C1511027   6.314  -0.047  10.566  0.3844  0.1381 -0.2131
  108OSM   H15A11028   6.409  -0.008  10.601 -0.2161 -0.4723  2.1641
  108OSM   H15B11029   6.335  -0.127  10.496  0.6916  0.4865 -0.5255
  108OSM   H15C11030   6.260  -0.089  10.649  0.3598 -2.3468 -1.4420
  108OSM    C1411031   6.313   0.113  10.391 -0.2616  0.4492 -0.2137
  108OSM   H14A11032   6.338   0.023  10.335 -0.5574  1.6084 -2.2714
  108OSM   H14B11033   6.405   0.155  10.428 -1.1868  3.6783 -1.4538
  108OSM   H14C11034   6.262   0.185  10.328  0.6181  1.5497  0.3345
  108OSM    C1311035   6.103   0.007  10.449  0.0215 -0.2853  0.4090
  108OSM   H13A11036   6.065   0.075  10.374  0.9340 -0.5912 -0.3433
  108OSM   H13B11037   6.025   0.016  10.524  1.1722  0.4186  1.5322
  108OSM   H13C11038   6.113  -0.094  10.411 -1.9567 -1.0334  1.7800
  108OSM    C1211039   6.215   0.171  10.599  0.4998  0.1967  0.3876
  108OSM   H12A11040   6.177   0.259  10.547  0.9530 -0.4823 -1.1153
  108OSM   H12B11041   6.307   0.219  10.629  0.8217  0.5412 -1.1009
  108OSM    C1111042   6.133   0.135  10.719  0.0792 -0.2341 -0.0485
  108OSM   H11A11043   6.142   0.214  10.796 -2.6010 -1.0269  1.1454
  108OSM   H11B11044   6.179   0.045  10.765 -1.6527 -1.2539 -0.2554
  108OSM      P11045   5.899   0.225  10.657 -0.1486  0.1922 -0.0113
  108OSM    O1311046   5.833   0.262  10.788 -0.0517  1.1444  0.0161
  108OSM    O1411047   5.962   0.337  10.582  0.0376 -0.0447  0.0742
  108OSM    O1111048   5.790   0.146  10.571 -0.2137  0.3122 -0.1589
  108OSM    O1211049   6.002   0.116  10.688 -0.0902  0.4505  0.1076
  108OSM    C1S11050   5.697   0.217  10.487  0.3444  0.0834 -0.2567
  108OSM    H1S11051   5.726   0.318  10.452  2.3028 -1.0613 -2.0858
  108OSM    H1T11052   5.604   0.217  10.547  0.1069  0.7563 -0.6183
  108OSM     NF11053   5.549   0.190  10.288  1.0386 -0.6786  0.7073
  108OSM    HNF11054   5.464   0.141  10.271 -0.0188  0.8498  1.4659
  108OSM    C2S11055   5.662   0.131  10.358 -0.1771  0.0626  0.2179
  108OSM    H2S11056   5.756   0.130  10.299  0.3047 -0.3265  0.9868
  108OSM    C3S11057   5.640  -0.025  10.391  0.2884 -0.0939 -0.4680
  108OSM    H3S11058   5.544  -0.047  10.443  1.7509 -0.0163  2.3842
  108OSM     O311059   5.750  -0.081  10.465 -0.1078 -0.3182 -0.3293
  108OSM    HO311060   5.791  -0.006  10.509  2.9697 -2.6010  0.9062
  108OSM    C4S11061   5.625  -0.106  10.261  0.5558  0.5936  0.4448
  108OSM    H4S11062   5.527  -0.153  10.244 -0.0550  0.5242  3.8049
  108OSM    C5S11063   5.724  -0.127  10.169 -0.6114  0.3126  0.3435
  108OSM    H5S11064   5.820  -0.075  10.178 -0.7855  0.4236  1.6465
  108OSM    C6S11065   5.710  -0.217  10.048 -0.1534  0.6101 -0.9832
  108OSM    H6S11066   5.770  -0.309  10.064  0.4520  0.7789 -2.2009
  108OSM    H6T11067   5.763  -0.169   9.964  1.5119  2.4707  1.0561
  108OSM    C7S11068   5.570  -0.250  10.012  0.4549  0.1956  1.4577
  108OSM    H7S11069   5.506  -0.162   9.994 -0.7456 -1.3609 -2.4207
  108OSM    H7T11070   5.535  -0.318  10.092 -4.1520  1.9516  1.0747
  108OSM    C8S11071   5.565  -0.344   9.888  0.8802  0.9007  0.9434
  108OSM    H8S11072   5.459  -0.355   9.857  1.0501  1.2582  0.2441
  108OSM    H8T11073   5.612  -0.443   9.899  2.0227  1.2639 -0.6369
  108OSM    C9S11074   5.630  -0.277   9.767 -0.6403 -0.0608  0.4782
  108OSM    H9S11075   5.740  -0.263   9.779 -0.8135 -0.7298  3.0043
  108OSM    H9T11076   5.591  -0.177   9.738 -1.3553 -1.6264 -4.3994
  108OSM   C10S11077   5.619  -0.364   9.644  0.7576 -0.2879 -0.4380
  108OSM   H10S11078   5.510  -0.367   9.622  0.6826 -0.5300 -0.0406
  108OSM   H10T11079   5.650  -0.470   9.654  1.9696  0.0821 -0.1569
  108OSM   C11S11080   5.695  -0.316   9.526 -0.0762  0.1403 -0.1537
  108OSM   H11S11081   5.804  -0.330   9.544 -0.2470 -0.6372  0.2935
  108OSM   H11T11082   5.672  -0.209   9.513 -0.7192  0.0883  0.5820
  108OSM   C12S11083   5.657  -0.385   9.398 -0.0315 -1.0397  0.4691
  108OSM   H12S11084   5.549  -0.375   9.376  0.2101  0.5028 -0.0710
  108OSM   H12T11085   5.666  -0.496   9.408 -0.5303 -1.1075  0.1713
  108OSM   C13S11086   5.735  -0.340   9.269 -0.2281  0.3871  0.2436
  108OSM   H13S11087   5.842  -0.354   9.293 -0.5684 -2.1670  0.5202
  108OSM   H13T11088   5.717  -0.233   9.249 -1.9596  0.1426  0.3349
  108OSM   C14S11089   5.708  -0.438   9.155  0.1337  0.1128  0.1416
  108OSM   H14S11090   5.600  -0.458   9.141 -0.3078  1.6844  1.2750
  108OSM   H14T11091   5.759  -0.530   9.193 -0.4089  0.3246  1.3978
  108OSM   C15S11092   5.751  -0.395   9.017 -0.3264 -0.3554 -0.2203
  108OSM   H15S11093   5.858  -0.367   9.016 -0.2100 -0.7875 -0.2468
  108OSM   H15T11094   5.700  -0.307   8.973 -2.7552 -1.9765 -0.7659
  108OSM   C16S11095   5.719  -0.519   8.925  0.4945 -0.1114 -0.2466
  108OSM   H16S11096   5.614  -0.554   8.938  1.0648 -0.7970  3.1774
  108OSM   H16T11097   5.790  -0.604   8.939 -0.4489 -0.3267  3.7737
  108OSM   C17S11098   5.742  -0.473   8.783 -0.3701  0.0977 -0.2095
  108OSM   H17S11099   5.839  -0.419   8.779  0.6381 -1.6776 -0.2385
  108OSM   H17T11100   5.660  -0.410   8.743  0.1977  1.2094  0.3665
  108OSM   C18S11101   5.746  -0.591   8.684  1.0021  0.6753  0.0205
  108OSM   H18S11102   5.748  -0.569   8.575 -0.5280  2.2726  0.2894
  108OSM   H18T11103   5.661  -0.663   8.693  1.1028  0.1763 -2.4970
  108OSM   H18U11104   5.837  -0.650   8.707 -1.2572 -2.9520  0.0391
  108OSM    C1F11105   5.554   0.310  10.220 -0.1885  0.1625 -0.3058
  108OSM     OF11106   5.662   0.367  10.231 -1.1365 -0.0807  0.4195
  108OSM    C2F11107   5.436   0.345  10.126  0.1810 -0.3409 -0.3672
  108OSM    H2F11108   5.343   0.367  10.183  1.4184  2.0627  0.7968
  108OSM    H2G11109   5.409   0.261  10.059  0.9890 -0.2498 -0.8139
  108OSM    C3F11110   5.470   0.458  10.030  0.2517 -0.7529 -0.0774
  108OSM    H3F11111   5.476   0.558  10.079  0.2706 -1.6195  1.7225
  108OSM    H3G11112   5.387   0.468   9.957  2.1157  2.8643 -1.8743
  108OSM    C4F11113   5.590   0.428   9.943  0.0600  0.4571 -0.7297
  108OSM    H4F11114   5.599   0.318   9.930  0.5150  0.3022  0.8108
  108OSM    H4G11115   5.687   0.457   9.990 -0.1102 -1.8536  1.1329
  108OSM    C5F11116   5.574   0.486   9.801  0.5765 -0.4764  0.1472
  108OSM    H5F11117   5.570   0.597   9.809  2.0689 -0.5812  2.6465
  108OSM    H5G11118   5.481   0.450   9.752  0.4064 -0.9978  0.8486
  108OSM    C6F11119   5.688   0.446   9.705 -0.0155 -0.3600 -0.8061
  108OSM    H6F11120   5.695   0.335   9.700 -2.3962 -0.4987 -1.7053
  108OSM    H6G11121   5.786   0.494   9.725  0.0415 -0.5289 -0.6731
  108OSM    C7F11122   5.661   0.500   9.568  0.4916 -0.5739  0.0333
  108OSM    H7F11123   5.668   0.611   9.574 -3.5749 -0.1261 -1.6652
  108OSM    H7G11124   5.556   0.481   9.535  0.9920 -1.4996 -1.0521
  108OSM    C8F11125   5.774   0.456   9.465  0.3644  0.0830 -0.4853
  108OSM    H8F11126   5.721   0.445   9.367  1.5157 -0.4436 -1.0597
  108OSM    H8G11127   5.803   0.353   9.497 -1.1191 -0.1633  0.1070
  108OSM    C9F11128   5.906   0.536   9.446 -0.4346  0.1710  0.2951
  108OSM    H9F11129   5.961   0.563   9.537 -0.4402 -1.1598  0.6988
  108OSM   C10F11130   5.944   0.594   9.333 -0.8385  0.2747  0.4168
  108OSM   H10F11131   6.045   0.635   9.322  0.1364 -2.4406 -1.4096
  108OSM   C11F11132   5.871   0.572   9.204 -0.0828  0.0198 -0.4864
  108OSM   H11F11133   5.914   0.641   9.128  2.6792 -0.4413  0.6336
  108OSM   H11G11134   5.762   0.588   9.219  0.1225  1.7897 -0.8297
  108OSM   C12F11135   5.906   0.437   9.145 -0.2425  0.2631  0.3523
  108OSM   H12F11136   5.850   0.355   9.196 -1.0385  1.0719  0.7809
  108OSM   H12G11137   6.014   0.412   9.155 -0.0272  0.4681 -1.4141
  108OSM   C13F11138   5.883   0.425   8.993 -0.1755  0.3412 -0.2798
  108OSM   H13F11139   5.864   0.322   8.957  2.2991 -0.5472  0.8491
  108OSM   H13G11140   5.964   0.468   8.929  0.4838 -1.4468 -0.6811
  108OSM   C14F11141   5.756   0.497   8.948 -0.4883  0.0091  0.0293
  108OSM   H14F11142   5.757   0.491   8.837 -0.0628 -2.0769  0.1248
  108OSM   H14G11143   5.757   0.604   8.978 -2.6188 -0.4063  1.7753
  108OSM   C15F11144   5.621   0.427   8.979  0.1394 -0.0160 -0.0831
  108OSM   H15F11145   5.605   0.407   9.088 -0.3458 -1.8597 -0.4807
  108OSM   H15G11146   5.610   0.333   8.922 -1.3064 -0.4558  0.8782
  108OSM   C16F11147   5.499   0.511   8.926  0.4904  0.1901 -0.6066
  108OSM   H16F11148   5.515   0.528   8.817 -0.1165  0.7764 -0.6076
  108OSM   H16G11149   5.515   0.606   8.982 -1.1309  0.6048 -0.8365
  108OSM   C17F11150   5.361   0.457   8.948 -0.6224  0.2636  0.0832
  108OSM   H17F11151   5.340   0.378   8.872  3.7508  0.6199 -1.6321
  108OSM   H17G11152   5.285   0.536   8.929 -1.4630 -0.6057 -0.2275
  108OSM   C18F11153   5.331   0.404   9.084  0.2285 -0.2352 -0.6010
  108OSM   H18F11154   5.224   0.378   9.096  0.5341 -1.2309  0.1073
  108OSM   H18G11155   5.356   0.488   9.153  0.7105 -0.2787 -0.7204
  108OSM   H18H11156   5.387   0.313   9.114 -1.4614 -1.3699 -0.8575
  109OSM      N11157   4.569   4.915  10.775  1.0095 -0.0450  0.0038
  109OSM    C1511158   4.543   4.765  10.785  0.3800  0.6621 -0.0081
  109OSM   H15A11159   4.558   4.720  10.688  2.7037 -0.5345  0.8685
  109OSM   H15B11160   4.443   4.744  10.819  0.4382 -0.9780 -0.8250
  109OSM   H15C11161   4.609   4.717  10.857 -3.0059 -3.9195  0.2854
  109OSM    C1411162   4.705   4.942  10.709  0.2810  0.1855  0.3882
  109OSM   H14A11163   4.722   5.048  10.696 -2.3168  0.4739 -1.0196
  109OSM   H14B11164   4.717   4.898  10.611 -1.4164 -1.3906  0.8458
  109OSM   H14C11165   4.787   4.906  10.767  0.5286  0.8159  0.4377
  109OSM    C1311166   4.455   4.961  10.711  0.9995 -0.5843  0.0064
  109OSM   H13A11167   4.359   4.957  10.760 -0.0104 -0.7642 -1.9207
  109OSM   H13B11168   4.433   4.918  10.615 -0.2879 -0.9428  0.4512
  109OSM   H13C11169   4.460   5.068  10.696  0.3262 -0.4142  0.9501
  109OSM    C1211170   4.573   4.989  10.912  0.1626 -0.7629 -0.2728
  109OSM   H12A11171   4.584   5.094  10.891  0.6578 -0.4583  1.4521
  109OSM   H12B11172   4.672   4.965  10.948  0.0676 -1.3551 -0.3970
  109OSM    C1111173   4.469   4.965  11.016  0.2647  0.3876 -0.0927
  109OSM   H11A11174   4.497   5.005  11.116 -2.7668  2.8874 -0.1710
  109OSM   H11B11175   4.455   4.854  11.020 -1.5389  0.4876 -2.4913
  109OSM      P11176   4.210   4.964  10.963  0.1607 -0.0196  0.1552
  109OSM    O1311177   4.229   4.823  10.923  0.0317  0.4221 -0.1076
  109OSM    O1411178   4.142   4.986  11.093  0.4292  0.3664  0.0616
  109OSM    O1111179   4.143   5.053  10.856  0.7886 -0.4224 -0.3940
  109OSM    O1211180   4.348   5.036  10.979  0.4787  0.0984  0.3781
  109OSM    C1S11181   4.166   5.187  10.830  0.1528  0.1655  0.7834
  109OSM    H1S11182   4.270   5.216  10.857  0.1623  1.4964 -0.5718
  109OSM    H1T11183   4.095   5.254  10.883  1.0523  1.2332  0.6569
  109OSM     NF11184   4.205   5.354  10.646 -0.3811  0.3232  0.0064
  109OSM    HNF11185   4.150   5.412  10.587 -0.1009  1.8462  1.1877
  109OSM    C2S11186   4.149   5.224  10.680  0.4616 -0.3330 -0.6857
  109OSM    H2S11187   4.218   5.151  10.633  1.5916 -1.2977  2.3623
  109OSM    C3S11188   4.002   5.195  10.626  0.1634 -0.0174 -0.2541
  109OSM    H3S11189   3.930   5.264  10.674  0.1935  0.9150 -1.5249
  109OSM     O311190   3.959   5.064  10.667  0.0830 -0.3472 -0.0067
  109OSM    HO311191   4.031   5.036  10.724 -0.3972  0.2884  0.9153
  109OSM    C4S11192   4.015   5.214  10.469  0.9708  0.1746 -0.3481
  109OSM    H4S11193   4.004   5.316  10.430 -0.2326 -0.7506 -2.5159
  109OSM    C5S11194   4.014   5.116  10.376 -0.9941  0.0413 -0.4693
  109OSM    H5S11195   3.989   5.016  10.416  2.6511 -1.2417 -1.1677
  109OSM    C6S11196   4.018   5.143  10.233 -0.4792  0.0944  0.0592
  109OSM    H6S11197   3.916   5.165  10.196 -0.2256 -1.4282 -1.6334
  109OSM    H6T11198   4.038   5.052  10.173  1.8650  0.8894 -0.4456
  109OSM    C7S11199   4.120   5.244  10.191 -0.4331  0.7816 -0.4585
  109OSM    H7S11200   4.226   5.213  10.210 -0.8560 -0.8886 -0.7125
  109OSM    H7T11201   4.098   5.349  10.220 -2.0043 -0.0401  1.4297
  109OSM    C8S11202   4.115   5.246  10.034  0.8321  0.2322 -0.3301
  109OSM    H8S11203   4.015   5.282  10.003 -0.0201  0.4523  2.5095
  109OSM    H8T11204   4.134   5.141  10.004 -0.4533  0.6382 -2.6931
  109OSM    C9S11205   4.205   5.347   9.967 -0.1294 -0.0491  0.3457
  109OSM    H9S11206   4.308   5.307   9.980  0.4777  1.5222  0.5613
  109OSM    H9T11207   4.194   5.448  10.013  0.1071  0.9076 -1.6546
  109OSM   C10S11208   4.185   5.373   9.819 -0.5628 -0.5073  0.1316
  109OSM   H10S11209   4.248   5.462   9.795 -1.8042  0.8322  1.7585
  109OSM   H10T11210   4.079   5.401   9.800 -0.7661 -0.9172  0.6573
  109OSM   C11S11211   4.224   5.256   9.733 -0.8161 -0.5229  0.3117
  109OSM   H11S11212   4.168   5.164   9.760 -1.0873 -0.3611  0.2974
  109OSM   H11T11213   4.333   5.233   9.734 -0.1658  2.2204 -0.6104
  109OSM   C12S11214   4.201   5.292   9.585  0.7536  0.0585 -0.3743
  109OSM   H12S11215   4.234   5.396   9.566  0.5704  0.0443 -0.7546
  109OSM   H12T11216   4.093   5.297   9.560  1.2055 -2.2717 -2.9605
  109OSM   C13S11217   4.251   5.187   9.497  0.9334  0.4879  0.6925
  109OSM   H13S11218   4.215   5.093   9.543  1.1387 -0.4450 -1.0097
  109OSM   H13T11219   4.360   5.179   9.511  0.8138 -1.4964  0.5952
  109OSM   C14S11220   4.209   5.197   9.346  0.4374 -0.2192 -0.6032
  109OSM   H14S11221   4.099   5.193   9.331  0.2876  1.3692 -0.0139
  109OSM   H14T11222   4.256   5.107   9.301 -0.9412 -0.4200 -1.6371
  109OSM   C15S11223   4.265   5.320   9.272 -0.3341 -0.5034 -0.5411
  109OSM   H15S11224   4.245   5.405   9.341  2.4422  0.0776 -0.3784
  109OSM   H15T11225   4.196   5.327   9.185 -0.1728 -0.1455 -0.6407
  109OSM   C16S11226   4.412   5.302   9.228  0.2237  0.2296 -0.3709
  109OSM   H16S11227   4.456   5.212   9.275 -1.4106 -0.5167 -0.2317
  109OSM   H16T11228   4.475   5.387   9.262  0.5680 -0.3212  0.3726
  109OSM   C17S11229   4.430   5.299   9.075 -0.1918  0.0440 -0.3525
  109OSM   H17S11230   4.537   5.307   9.045 -0.2208 -2.3150 -1.1823
  109OSM   H17T11231   4.380   5.391   9.037 -1.2508 -0.2747  0.2457
  109OSM   C18S11232   4.377   5.176   9.006  0.0295  0.2229 -0.1922
  109OSM   H18S11233   4.266   5.169   9.016  0.2453  0.8937  2.8517
  109OSM   H18T11234   4.421   5.088   9.057  1.4083  0.6451 -0.6407
  109OSM   H18U11235   4.413   5.163   8.902 -0.4629 -1.3384 -0.1895
  109OSM    C1F11236   4.337   5.378  10.660  0.4175  0.6557  0.0364
  109OSM     OF11237   4.414   5.283  10.677 -0.1145 -0.0953  0.5683
  109OSM    C2F11238   4.380   5.521  10.633 -0.3287  0.3852 -0.4437
  109OSM    H2F11239   4.473   5.529  10.693  1.3732 -0.5977 -2.8579
  109OSM    H2G11240   4.297   5.586  10.669 -0.9181 -0.1241 -0.8690
  109OSM    C3F11241   4.423   5.536  10.487  0.6054 -0.0203 -0.3226
  109OSM    H3F11242   4.355   5.480  10.418 -0.8411  1.8337 -0.4492
  109OSM    H3G11243   4.526   5.496  10.478  1.1347  1.7103 -2.3298
  109OSM    C4F11244   4.439   5.685  10.439 -0.5829  0.7225 -0.0655
  109OSM    H4F11245   4.491   5.736  10.522 -0.0356  0.7627 -0.4353
  109OSM    H4G11246   4.338   5.728  10.419 -0.2233  0.9539 -1.4214
  109OSM    C5F11247   4.522   5.707  10.304 -0.1687 -0.2514  0.4632
  109OSM    H5F11248   4.625   5.666  10.313  0.2372  0.3145 -1.3551
  109OSM    H5G11249   4.546   5.815  10.290  0.6498 -0.3473  1.1123
  109OSM    C6F11250   4.443   5.667  10.180 -0.0953 -0.2361 -0.2655
  109OSM    H6F11251   4.346   5.720  10.194  0.7054  2.1484 -3.1218
  109OSM    H6G11252   4.407   5.562  10.176 -0.8739  0.0253 -0.3359
  109OSM    C7F11253   4.499   5.716  10.039 -0.2455  0.1602  0.6517
  109OSM    H7F11254   4.602   5.677  10.025  0.3877  1.8334  0.6304
  109OSM    H7G11255   4.522   5.824  10.050  0.2644  0.4116 -2.4353
  109OSM    C8F11256   4.415   5.680   9.920  0.4596 -0.4878 -0.0203
  109OSM    H8F11257   4.376   5.576   9.920 -0.1334 -0.2751  0.4907
  109OSM    H8G11258   4.481   5.691   9.832 -1.9634 -0.4167 -1.8769
  109OSM    C9F11259   4.306   5.786   9.919  0.0628  0.4549  0.0307
  109OSM    H9F11260   4.232   5.798  10.000 -0.7099 -2.0507 -0.2664
  109OSM   C10F11261   4.292   5.877   9.826  0.8368  0.4014 -0.4411
  109OSM   H10F11262   4.208   5.948   9.827  1.8583  1.6362  2.1799
  109OSM   C11F11263   4.378   5.887   9.704 -0.8963  0.0115 -0.3352
  109OSM   H11F11264   4.481   5.847   9.716 -0.0931  1.9275 -0.6766
  109OSM   H11G11265   4.390   5.991   9.667 -0.9303 -0.7015 -2.3797
  109OSM   C12F11266   4.331   5.807   9.585 -0.1123  0.1932 -0.0952
  109OSM   H12F11267   4.227   5.835   9.554 -1.2230  0.5093  3.6934
  109OSM   H12G11268   4.339   5.699   9.608 -3.0279  0.1206  0.8829
  109OSM   C13F11269   4.420   5.825   9.462  0.2488  0.5751  0.6828
  109OSM   H13F11270   4.514   5.766   9.467 -1.8845 -2.8687  1.9618
  109OSM   H13G11271   4.451   5.932   9.453  2.2888  0.0253  0.8215
  109OSM   C14F11272   4.349   5.771   9.334 -0.2539 -0.3413  0.1600
  109OSM   H14F11273   4.247   5.813   9.332  0.5043  1.5330 -0.6139
  109OSM   H14G11274   4.332   5.661   9.336 -0.2823 -0.4050 -1.8038
  109OSM   C15F11275   4.417   5.827   9.211  0.0425 -0.0408 -0.1648
  109OSM   H15F11276   4.525   5.800   9.213  0.4153  1.2774 -1.4732
  109OSM   H15G11277   4.395   5.935   9.196 -0.9828 -0.1558  0.5515
  109OSM   C16F11278   4.371   5.756   9.082 -0.1840  0.3666 -0.2332
  109OSM   H16F11279   4.273   5.802   9.061  0.4365  0.1931 -3.7847
  109OSM   H16G11280   4.351   5.647   9.088 -0.1376  0.3851  0.2889
  109OSM   C17F11281   4.467   5.781   8.970 -0.3716  0.4338  0.4271
  109OSM   H17F11282   4.495   5.887   8.958 -3.5813  1.3886  0.7922
  109OSM   H17G11283   4.419   5.745   8.877 -2.0734  0.6199  1.2045
  109OSM   C18F11284   4.590   5.693   8.977 -0.2097 -0.1688 -0.0999
  109OSM   H18F11285   4.543   5.593   8.964  2.1728 -1.4678  1.0507
  109OSM   H18G11286   4.641   5.709   9.075  0.7768 -0.0043 -0.6437
  109OSM   H18H11287   4.659   5.698   8.891 -0.5226  0.0236 -0.3415
  110OSM      N11288   5.496   4.505  10.642 -0.5894  0.8131 -0.2955
  110OSM    C1511289   5.432   4.612  10.561  0.0328  0.1611  0.2462
  110OSM   H15A11290   5.506   4.687  10.538 -2.2816  1.8890 -1.7669
  110OSM   H15B11291   5.349   4.664  10.606  1.8236  2.3808  1.0850
  110OSM   H15C11292   5.394   4.582  10.465  1.0498 -1.9559  0.4667
  110OSM    C1411293   5.386   4.404  10.671  0.4693 -0.0620  0.2242
  110OSM   H14A11294   5.418   4.340  10.751 -0.1626 -0.0097  0.5227
  110OSM   H14B11295   5.362   4.358  10.576  0.3012  2.3973 -0.9762
  110OSM   H14C11296   5.295   4.454  10.704  1.5352  3.4760 -1.8726
  110OSM    C1311297   5.598   4.442  10.554 -0.3935  0.0722  0.1647
  110OSM   H13A11298   5.696   4.487  10.549  0.3172 -1.6039 -1.6472
  110OSM   H13B11299   5.561   4.409  10.458 -0.0905 -2.7812  0.9853
  110OSM   H13C11300   5.621   4.340  10.582  2.4530  1.0014  1.3774
  110OSM    C1211301   5.561   4.550  10.774 -0.4169 -0.5214  0.3230
  110OSM   H12A11302   5.482   4.588  10.837  0.0343 -0.3949  0.8173
  110OSM   H12B11303   5.629   4.633  10.760 -0.3365 -0.4474  1.0969
  110OSM    C1111304   5.644   4.452  10.865  0.0891  0.2895  0.7991
  110OSM   H11A11305   5.661   4.487  10.969 -1.9232  1.6108  0.7205
  110OSM   H11B11306   5.741   4.433  10.815  0.3278 -0.8426  1.6525
  110OSM      P11307   5.593   4.219  10.978  0.1212  0.0564 -0.3349
  110OSM    O1311308   5.629   4.280  11.106  0.2079 -0.8899 -0.2599
  110OSM    O1411309   5.472   4.130  10.994 -0.5947  0.4839 -0.0860
  110OSM    O1111310   5.714   4.130  10.929  0.2093 -0.3392  0.8205
  110OSM    O1211311   5.570   4.325  10.867  0.1081 -0.0907  0.0508
  110OSM    C1S11312   5.696   4.059  10.809  0.2872  0.2262 -0.6434
  110OSM    H1S11313   5.613   4.090  10.742 -0.9222 -0.1325  0.6633
  110OSM    H1T11314   5.669   3.953  10.831  1.6971  0.1222  0.6790
  110OSM     NF11315   5.807   4.011  10.582  0.4848 -0.2809 -0.2153
  110OSM    HNF11316   5.854   3.928  10.556 -0.1859  0.0662 -2.7282
  110OSM    C2S11317   5.825   4.069  10.715 -0.4152  0.1094 -1.5013
  110OSM    H2S11318   5.847   4.175  10.690 -0.8757  0.5777  0.0387
  110OSM    C3S11319   5.942   4.007  10.791 -0.6987 -0.7434 -0.2641
  110OSM    H3S11320   5.920   3.910  10.840  0.9805 -1.3847 -0.7414
  110OSM     O311321   5.994   4.084  10.902 -0.2687 -0.2007  0.0627
  110OSM    HO311322   5.928   4.153  10.912  0.4848  0.7822 -1.4745
  110OSM    C4S11323   6.057   4.000  10.697 -0.2215  0.5713 -0.2467
  110OSM    H4S11324   6.082   4.092  10.641  2.1677  0.1848  0.1292
  110OSM    C5S11325   6.132   3.888  10.685  0.1578  0.0929  0.1910
  110OSM    H5S11326   6.115   3.803  10.753 -0.9573  0.0194 -0.1717
  110OSM    C6S11327   6.249   3.867  10.594 -0.6182  0.0784 -0.7828
  110OSM    H6S11328   6.246   3.761  10.561  4.1942 -0.0938 -1.1342
  110OSM    H6T11329   6.346   3.878  10.647 -1.6757 -2.5148  1.7906
  110OSM    C7S11330   6.251   3.963  10.474 -0.3622 -0.3882 -0.1073
  110OSM    H7S11331   6.347   3.966  10.419 -0.7478 -0.7002 -0.7880
  110OSM    H7T11332   6.232   4.066  10.513  1.8036  0.4617 -1.2111
  110OSM    C8S11333   6.147   3.919  10.371  0.0533 -0.1250 -0.4192
  110OSM    H8S11334   6.046   3.921  10.416  0.7088 -0.1038  1.0961
  110OSM    H8T11335   6.164   3.810  10.355  0.8973 -0.0814  0.1712
  110OSM    C9S11336   6.155   3.986  10.230 -0.4898 -0.3207 -0.0668
  110OSM    H9S11337   6.253   3.980  10.178  0.0505 -2.1640  1.0875
  110OSM    H9T11338   6.136   4.092  10.257 -1.0344 -1.1497  3.0081
  110OSM   C10S11339   6.046   3.926  10.144 -0.1765 -0.3038 -0.1484
  110OSM   H10S11340   5.957   3.925  10.211  0.5019  0.5810  0.8071
  110OSM   H10T11341   6.064   3.817  10.132 -1.8771 -0.5104 -0.8687
  110OSM   C11S11342   6.011   3.986  10.011 -0.0773  0.5198 -0.0070
  110OSM   H11S11343   5.995   4.096  10.012  1.3137  0.7361  0.6724
  110OSM   H11T11344   5.913   3.949   9.976 -0.6418  2.1227 -0.1321
  110OSM   C12S11345   6.125   3.961   9.909 -0.2158  0.1725  0.1179
  110OSM   H12S11346   6.127   3.850   9.905  0.8412  0.2348 -1.3946
  110OSM   H12T11347   6.225   3.997   9.939  0.4213 -1.4142 -0.0269
  110OSM   C13S11348   6.071   4.002   9.771  0.6288  0.3077 -0.3400
  110OSM   H13S11349   6.043   4.109   9.766 -1.3696 -0.2270 -1.0350
  110OSM   H13T11350   5.983   3.938   9.749  0.1584  0.4087  1.2496
  110OSM   C14S11351   6.178   3.965   9.670  0.0635 -0.6578 -0.6008
  110OSM   H14S11352   6.193   3.855   9.662  1.7735 -0.4665 -0.3084
  110OSM   H14T11353   6.269   4.019   9.704  0.6864 -1.4160 -1.0499
  110OSM   C15S11354   6.140   4.015   9.532 -0.3549  0.4228  0.0607
  110OSM   H15S11355   6.236   4.012   9.476  1.1829  2.0963  2.5125
  110OSM   H15T11356   6.108   4.122   9.534 -2.4090 -0.1712  0.2243
  110OSM   C16S11357   6.030   3.935   9.467 -0.1347  0.5003  0.0591
  110OSM   H16S11358   5.932   3.976   9.501 -1.2414 -1.7409 -0.3410
  110OSM   H16T11359   6.022   3.827   9.491  0.3707  0.3458 -0.4485
  110OSM   C17S11360   6.036   3.952   9.311  0.0510 -0.1132 -0.4509
  110OSM   H17S11361   5.948   3.901   9.267  0.9737 -2.7138  0.6049
  110OSM   H17T11362   6.124   3.897   9.271  1.0940  1.6208 -0.5654
  110OSM   C18S11363   6.052   4.098   9.267  0.1314 -0.2480  0.2234
  110OSM   H18S11364   5.980   4.167   9.316  1.0238  0.5859  0.3737
  110OSM   H18T11365   6.031   4.112   9.158 -2.5916 -0.9624  0.6214
  110OSM   H18U11366   6.160   4.124   9.281  0.6945 -1.7730 -1.1636
  110OSM    C1F11367   5.712   4.052  10.496  0.2263  0.3138  0.2264
  110OSM     OF11368   5.645   4.155  10.506 -0.5384 -0.4095 -0.2477
  110OSM    C2F11369   5.700   3.978  10.364  0.4736 -0.1667 -0.4027
  110OSM    H2F11370   5.755   3.882  10.371 -0.4807 -0.6803  0.2417
  110OSM    H2G11371   5.747   4.034  10.281  0.0707  2.1297  0.8639
  110OSM    C3F11372   5.547   3.957  10.335 -0.5027  0.2207  0.3055
  110OSM    H3F11373   5.489   4.052  10.339  0.4737  0.8395 -0.0355
  110OSM    H3G11374   5.509   3.894  10.419 -0.7433  0.2883  0.2460
  110OSM    C4F11375   5.517   3.881  10.206 -0.5092  0.2476 -0.2463
  110OSM    H4F11376   5.581   3.791  10.215 -1.3976 -0.4441 -0.6809
  110OSM    H4G11377   5.551   3.935  10.116  0.5256 -1.0843 -0.6682
  110OSM    C5F11378   5.373   3.832  10.202 -0.0054 -0.1663  0.6419
  110OSM    H5F11379   5.312   3.924  10.216 -1.5824 -1.3270  1.6457
  110OSM    H5G11380   5.327   3.772  10.284 -1.0427  1.6191  1.3899
  110OSM    C6F11381   5.319   3.779  10.071 -0.4208  0.2074 -0.6272
  110OSM    H6F11382   5.364   3.851  10.000  0.3581 -0.6584 -1.0188
  110OSM    H6G11383   5.208   3.768  10.063 -0.6584 -0.3419  2.7990
  110OSM    C7F11384   5.387   3.646  10.031 -0.1232 -0.1397 -0.2749
  110OSM    H7F11385   5.358   3.573  10.110 -0.2266  0.5924  0.3655
  110OSM    H7G11386   5.496   3.668  10.026 -0.5149  1.9581 -0.0824
  110OSM    C8F11387   5.333   3.587   9.900 -0.2072 -0.3757 -0.2209
  110OSM    H8F11388   5.370   3.655   9.820 -1.0808  1.0688  0.5864
  110OSM    H8G11389   5.223   3.599   9.900 -0.2410 -0.4451 -2.2139
  110OSM    C9F11390   5.377   3.443   9.871  0.1706 -0.1679 -0.1266
  110OSM    H9F11391   5.381   3.380   9.960  1.9144 -1.5764 -1.1642
  110OSM   C10F11392   5.424   3.393   9.752 -0.3512 -0.4153 -0.8796
  110OSM   H10F11393   5.438   3.285   9.738  0.6002 -0.3345 -0.5943
  110OSM   C11F11394   5.436   3.466   9.623  0.4829  0.3491  0.1113
  110OSM   H11F11395   5.530   3.434   9.574  1.5376  0.7188  1.8593
  110OSM   H11G11396   5.444   3.576   9.637  0.8983  0.3203  0.0841
  110OSM   C12F11397   5.314   3.432   9.529  0.5023 -0.3610  0.0699
  110OSM   H12F11398   5.223   3.459   9.585 -0.2286 -0.6012 -0.9859
  110OSM   H12G11399   5.308   3.321   9.518  0.2085 -0.3436  0.0646
  110OSM   C13F11400   5.320   3.487   9.389 -0.2289 -0.2823 -0.6063
  110OSM   H13F11401   5.423   3.524   9.370  0.5545  0.1691  4.0554
  110OSM   H13G11402   5.245   3.569   9.385 -1.0300 -0.9654  0.2269
  110OSM   C14F11403   5.272   3.399   9.273  0.5868 -0.1175 -0.7616
  110OSM   H14F11404   5.160   3.402   9.274  0.6243  1.8741  0.1121
  110OSM   H14G11405   5.294   3.293   9.299 -0.6892 -0.5845 -1.5197
  110OSM   C15F11406   5.339   3.439   9.145 -0.0289 -0.1971 -0.1537
  110OSM   H15F11407   5.448   3.444   9.167  0.0650 -1.3038 -0.3043
  110OSM   H15G11408   5.305   3.541   9.116  2.7408  1.4125  2.0213
  110OSM   C16F11409   5.312   3.344   9.025 -0.1172  0.3056  0.8516
  110OSM   H16F11410   5.207   3.359   8.994 -0.4179  0.1094  1.7584
  110OSM   H16G11411   5.344   3.239   9.044  2.3647  0.7143 -0.8541
  110OSM   C17F11412   5.392   3.374   8.903  0.9372  0.1167  0.3664
  110OSM   H17F11413   5.497   3.342   8.919  0.4777 -1.6113  0.0014
  110OSM   H17G11414   5.373   3.482   8.884 -1.1697 -0.2372  0.3400
  110OSM   C18F11415   5.346   3.296   8.782  0.2530  0.4441 -0.0237
  110OSM   H18F11416   5.422   3.291   8.701 -2.5532 -0.4870 -2.6998
  110OSM   H18G11417   5.260   3.346   8.734 -0.7951 -2.0356 -0.8121
  110OSM   H18H11418   5.313   3.193   8.806 -3.1192  1.5763  0.3733
  111OSM      N11419   6.286   1.196  10.809  0.0642  0.0911 -0.4720
  111OSM    C1511420   6.343   1.074  10.881 -0.7962 -0.0492 -0.0609
  111OSM   H15A11421   6.302   0.985  10.835 -0.6538 -0.4294  0.5483
  111OSM   H15B11422   6.325   1.077  10.988 -0.8975 -0.5771 -0.0602
  111OSM   H15C11423   6.450   1.074  10.872 -0.8028  2.7952 -0.6425
  111OSM    C1411424   6.144   1.195  10.816  0.1968  0.3825  0.1105
  111OSM   H14A11425   6.096   1.279  10.767  1.2624  0.9341  0.0080
  111OSM   H14B11426   6.116   1.189  10.920  1.7623 -0.2003  0.5005
  111OSM   H14C11427   6.099   1.107  10.774 -1.6239  0.5366  1.6582
  111OSM    C1311428   6.342   1.309  10.884 -0.1415 -0.3919 -0.8451
  111OSM   H13A11429   6.317   1.302  10.989  1.6016  0.2818 -0.3724
  111OSM   H13B11430   6.302   1.404  10.853  2.7485  0.5902 -1.6800
  111OSM   H13C11431   6.443   1.341  10.864 -1.0399  1.8223 -2.0182
  111OSM    C1211432   6.322   1.197  10.659 -0.2793  1.5426 -0.4083
  111OSM   H12A11433   6.284   1.105  10.617  0.5691  0.5867  0.8453
  111OSM   H12B11434   6.430   1.195  10.661 -0.2549  3.4363  1.1834
  111OSM    C1111435   6.281   1.314  10.570  0.1276 -0.0404 -0.3993
  111OSM   H11A11436   6.171   1.320  10.571  0.0119 -1.7406  2.2174
  111OSM   H11B11437   6.321   1.296  10.467  0.3396 -1.5442 -0.0687
  111OSM      P11438   6.455   1.512  10.578  0.4444 -0.2978 -0.2122
  111OSM    O1311439   6.519   1.567  10.697  0.1719  0.6644  0.5863
  111OSM    O1411440   6.537   1.414  10.502 -0.3872 -0.1616 -0.0659
  111OSM    O1111441   6.404   1.626  10.490  0.0225 -0.0597  0.2758
  111OSM    O1211442   6.326   1.438  10.625  0.3945  0.1035 -0.1128
  111OSM    C1S11443   6.298   1.707  10.528 -0.5053 -0.1928 -0.5666
  111OSM    H1S11444   6.328   1.779  10.607  0.5668  2.6117 -3.4304
  111OSM    H1T11445   6.207   1.653  10.563 -1.9238  2.5379  0.1266
  111OSM     NF11446   6.171   1.910  10.459 -0.5130 -0.3769  0.0000
  111OSM    HNF11447   6.086   1.919  10.408 -0.2444  0.3813 -0.3216
  111OSM    C2S11448   6.264   1.806  10.411  0.0940  0.0776  0.3980
  111OSM    H2S11449   6.356   1.861  10.380 -0.1917  1.4409  1.9233
  111OSM    C3S11450   6.215   1.715  10.295 -0.7115 -0.3411 -0.1399
  111OSM    H3S11451   6.131   1.659  10.343  0.7078 -3.7303 -1.4707
  111OSM     O311452   6.308   1.625  10.242 -0.0426  0.4998  0.4585
  111OSM    HO311453   6.383   1.626  10.301 -1.9537  0.1939  2.9957
  111OSM    C4S11454   6.175   1.808  10.190 -0.3377 -0.4194  0.2767
  111OSM    H4S11455   6.071   1.840  10.201  0.1349  1.4132 -0.3722
  111OSM    C5S11456   6.243   1.843  10.078 -0.1088  0.8886 -1.1705
  111OSM    H5S11457   6.349   1.815  10.071 -0.1467 -0.5299  2.7247
  111OSM    C6S11458   6.188   1.945   9.975 -0.3360 -0.8887  0.8881
  111OSM    H6S11459   6.237   1.938   9.875 -2.4579 -4.0655 -0.0057
  111OSM    H6T11460   6.192   2.047  10.019 -2.9727 -1.3124  2.1684
  111OSM    C7S11461   6.041   1.926   9.939  0.5862 -0.5104 -0.3325
  111OSM    H7S11462   5.974   1.943  10.025 -0.0978  0.6617 -1.0850
  111OSM    H7T11463   6.028   1.820   9.910  0.9798 -0.5464 -0.3885
  111OSM    C8S11464   5.996   2.025   9.826  0.3058  0.2000 -0.0661
  111OSM    H8S11465   6.001   2.123   9.878  0.5996  0.3642 -0.4014
  111OSM    H8T11466   5.892   2.008   9.792  0.3756  1.3392 -0.8898
  111OSM    C9S11467   6.080   2.033   9.699  0.3673  0.7359  0.2742
  111OSM    H9S11468   6.070   1.930   9.657 -0.1754  0.6423  0.6177
  111OSM    H9T11469   6.184   2.061   9.724  0.4796 -0.1913  0.8796
  111OSM   C10S11470   6.024   2.141   9.606  0.4454  0.2313 -0.2948
  111OSM   H10S11471   6.022   2.231   9.671 -1.4099 -1.1547  1.6370
  111OSM   H10T11472   5.919   2.118   9.578  0.3501  1.3846 -0.9164
  111OSM   C11S11473   6.112   2.178   9.487  0.3092 -0.6609 -0.0010
  111OSM   H11S11474   6.113   2.096   9.412  0.2534 -2.4243  1.8656
  111OSM   H11T11475   6.213   2.201   9.529 -0.3599 -1.5039  2.1561
  111OSM   C12S11476   6.054   2.309   9.422  0.0929  0.4129 -1.1777
  111OSM   H12S11477   6.075   2.390   9.495 -1.3678 -0.5921  0.4196
  111OSM   H12T11478   5.943   2.307   9.417  0.1561  0.3876 -2.6097
  111OSM   C13S11479   6.116   2.334   9.284  0.2933 -0.5351  0.0269
  111OSM   H13S11480   6.080   2.425   9.233  0.1996 -1.3755 -1.4545
  111OSM   H13T11481   6.076   2.250   9.223 -0.8018 -0.5265  0.7311
  111OSM   C14S11482   6.272   2.329   9.281 -0.7786 -0.5130  0.3391
  111OSM   H14S11483   6.309   2.246   9.345 -1.5814  0.1516  1.6880
  111OSM   H14T11484   6.312   2.413   9.341 -0.2144  0.1611 -0.9531
  111OSM   C15S11485   6.345   2.333   9.139  0.1828 -0.5204 -0.9893
  111OSM   H15S11486   6.344   2.233   9.091  3.4631 -0.6994 -0.8097
  111OSM   H15T11487   6.453   2.358   9.141  0.4527 -1.7030 -0.8623
  111OSM   C16S11488   6.280   2.432   9.047 -0.1119  0.4672  0.1606
  111OSM   H16S11489   6.278   2.531   9.098  0.5176 -0.1855  1.4792
  111OSM   H16T11490   6.175   2.401   9.034  0.3338 -1.3298  0.6801
  111OSM   C17S11491   6.351   2.456   8.912  0.3561  0.4540 -1.0244
  111OSM   H17S11492   6.293   2.513   8.836 -0.4948 -0.2205 -0.8910
  111OSM   H17T11493   6.359   2.355   8.867 -1.5404 -0.5419  0.7721
  111OSM   C18S11494   6.493   2.523   8.918  0.4428 -0.6165  0.6764
  111OSM   H18S11495   6.534   2.530   8.815  3.1099 -1.3347  1.6644
  111OSM   H18T11496   6.559   2.456   8.976  0.6279 -0.1321  1.0327
  111OSM   H18U11497   6.493   2.627   8.957 -0.5796 -0.4426  0.2414
  111OSM    C1F11498   6.204   2.007  10.549  0.3240  0.9902 -0.3100
  111OSM     OF11499   6.309   2.000  10.614 -0.0192 -0.1736  0.5480
  111OSM    C2F11500   6.103   2.120  10.575 -0.3057  0.1163 -0.6288
  111OSM    H2F11501   6.089   2.139  10.684 -0.8885 -0.1288 -0.6576
  111OSM    H2G11502   6.001   2.086  10.547 -1.0981  0.5908  1.5637
  111OSM    C3F11503   6.136   2.266  10.517 -0.5757  0.8704 -0.5916
  111OSM    H3F11504   6.238   2.295  10.548  1.1534 -2.8267 -2.5554
  111OSM    H3G11505   6.059   2.334  10.561 -1.4564 -0.9731  0.8048
  111OSM    C4F11506   6.127   2.284  10.366  0.0856 -0.1336  0.0247
  111OSM    H4F11507   6.017   2.282  10.346 -0.2957 -1.9459  2.0922
  111OSM    H4G11508   6.191   2.215  10.308  3.2406  2.5283  0.2198
  111OSM    C5F11509   6.190   2.424  10.331 -0.7612  0.1918  0.5092
  111OSM    H5F11510   6.300   2.419  10.344 -0.4319 -1.0442 -2.4218
  111OSM    H5G11511   6.152   2.497  10.405 -1.1023 -0.5539  1.0745
  111OSM    C6F11512   6.146   2.483  10.193 -0.4546 -0.3565  0.4792
  111OSM    H6F11513   6.153   2.594  10.200  1.6428 -0.3593 -1.0821
  111OSM    H6G11514   6.037   2.465  10.187 -0.3536 -1.2083  1.1374
  111OSM    C7F11515   6.217   2.434  10.065  0.1745 -0.1996  1.0032
  111OSM    H7F11516   6.226   2.324  10.082 -2.2619 -0.4659  0.8196
  111OSM    H7G11517   6.318   2.481  10.068  0.0316  0.2183 -0.5560
  111OSM    C8F11518   6.157   2.478   9.937 -0.3484 -0.4505  0.2889
  111OSM    H8F11519   6.161   2.589   9.936 -0.5423 -0.4300  1.1071
  111OSM    H8G11520   6.049   2.453   9.949 -0.7212  2.0584  2.6189
  111OSM    C9F11521   6.214   2.406   9.820 -0.0908  0.4355  0.7735
  111OSM    H9F11522   6.167   2.307   9.808  0.8992  0.0573 -0.0080
  111OSM   C10F11523   6.308   2.450   9.732  0.1493  0.8953  0.0641
  111OSM   H10F11524   6.321   2.391   9.640 -0.3853  0.1638  0.4573
  111OSM   C11F11525   6.376   2.584   9.741 -0.3238  0.2065 -0.8360
  111OSM   H11F11526   6.486   2.570   9.737 -0.0726  1.2883  1.7416
  111OSM   H11G11527   6.365   2.631   9.841  4.8414  0.6404 -0.3726
  111OSM   C12F11528   6.313   2.676   9.630  0.0707  0.5839  0.2773
  111OSM   H12F11529   6.230   2.744   9.659  0.1053  0.6350  0.2574
  111OSM   H12G11530   6.262   2.617   9.550 -0.4907  1.0532  0.2856
  111OSM   C13F11531   6.424   2.735   9.542 -0.1012  0.6426 -0.0032
  111OSM   H13F11532   6.484   2.645   9.514  0.7841  1.2782 -0.1804
  111OSM   H13G11533   6.480   2.812   9.599 -0.6323  0.5937  0.5767
  111OSM   C14F11534   6.363   2.790   9.408  0.0597 -0.0677  0.0098
  111OSM   H14F11535   6.284   2.862   9.438  1.9720  1.2790  1.9593
  111OSM   H14G11536   6.312   2.700   9.367 -0.3759 -0.7434  1.9724
  111OSM   C15F11537   6.470   2.847   9.317 -0.0652 -0.2060 -0.7608
  111OSM   H15F11538   6.558   2.780   9.321 -0.9956 -1.4432 -0.8488
  111OSM   H15G11539   6.498   2.949   9.352 -0.8323  0.2201 -1.3802
  111OSM   C16F11540   6.426   2.859   9.170  0.2211 -0.1468  0.1474
  111OSM   H16F11541   6.333   2.919   9.164 -0.0509 -0.6447 -0.7631
  111OSM   H16G11542   6.409   2.755   9.134 -2.8666  0.6498 -0.8684
  111OSM   C17F11543   6.532   2.929   9.080  0.3413 -0.0761  0.5768
  111OSM   H17F11544   6.623   2.870   9.105  0.3947 -1.6143 -2.9997
  111OSM   H17G11545   6.547   3.036   9.105 -1.0062  0.1459  0.5007
  111OSM   C18F11546   6.511   2.913   8.930 -0.5918  0.4162  0.3239
  111OSM   H18F11547   6.580   2.982   8.878  1.2234 -0.5784  1.3739
  111OSM   H18G11548   6.408   2.950   8.909 -0.7133 -0.3377 -0.4426
  111OSM   H18H11549   6.524   2.809   8.893  0.5868  0.8913 -0.6195
  112OSM      N11550   5.068   0.034  11.102 -0.8456 -0.1471  0.1643
  112OSM    C1511551   5.191   0.124  11.108 -1.0464 -0.2377  0.4269
  112OSM   H15A11552   5.230   0.132  11.007  0.9214  1.5477  1.2922
  112OSM   H15B11553   5.272   0.086  11.168 -1.0316 -3.6669 -1.6333
  112OSM   H15C11554   5.169   0.219  11.154  0.6695  0.3141  0.1492
  112OSM    C1411555   5.104  -0.100  11.056 -0.4412  0.0282 -0.5067
  112OSM   H14A11556   5.146  -0.104  10.957 -1.4753 -2.0195 -0.8742
  112OSM   H14B11557   5.020  -0.167  11.064  0.0094 -0.6124 -1.1477
  112OSM   H14C11558   5.180  -0.148  11.116  0.7257 -2.0296 -3.5368
  112OSM    C1311559   5.012   0.027  11.249  0.1744 -0.3138 -0.2074
  112OSM   H13A11560   4.925  -0.037  11.253  0.4248 -0.6246  0.3590
  112OSM   H13B11561   4.993   0.127  11.284  1.9653 -0.0265  0.0168
  112OSM   H13C11562   5.097  -0.018  11.298 -0.4753 -1.5683 -0.2154
  112OSM    C1211563   4.971   0.097  11.003 -0.1089  0.5997 -0.8261
  112OSM   H12A11564   4.928   0.188  11.043 -1.0404 -0.1913  0.0333
  112OSM   H12B11565   4.885   0.031  10.990 -0.6029  1.5279 -2.3085
  112OSM    C1111566   5.026   0.116  10.858  0.1085 -0.1158 -0.3990
  112OSM   H11A11567   4.941   0.119  10.786 -0.9545 -0.4796  0.8270
  112OSM   H11B11568   5.098   0.039  10.822  0.2934  0.8892 -2.2288
  112OSM      P11569   5.206   0.284  10.743  0.0369  0.0141  0.0918
  112OSM    O1311570   5.155   0.392  10.657 -0.1341 -0.3278  0.3692
  112OSM    O1411571   5.330   0.315  10.824  0.3368 -0.7663  0.6936
  112OSM    O1111572   5.229   0.152  10.660  0.4752 -0.2016  0.3088
  112OSM    O1211573   5.090   0.249  10.846 -0.4840 -0.8813 -0.5272
  112OSM    C1S11574   5.167   0.120  10.532 -0.2596  0.6473 -0.6242
  112OSM    H1S11575   5.184   0.204  10.461  1.2353  1.2962  0.4721
  112OSM    H1T11576   5.056   0.117  10.541 -0.1979  3.5082  1.9609
  112OSM     NF11577   5.174  -0.051  10.344 -0.1456 -0.2178  0.3849
  112OSM    HNF11578   5.079  -0.081  10.349 -1.0462  1.9407 -2.7371
  112OSM    C2S11579   5.237  -0.010  10.473  0.2159  0.3924 -0.0236
  112OSM    H2S11580   5.345   0.013  10.459  0.4335  0.3775  1.5141
  112OSM    C3S11581   5.236  -0.119  10.585 -1.0167  0.1587 -0.2483
  112OSM    H3S11582   5.131  -0.137  10.613  0.2333 -3.0251  2.6925
  112OSM     O311583   5.298  -0.091  10.708  0.4367 -0.0901  0.1404
  112OSM    HO311584   5.319   0.002  10.721 -0.0400 -0.2383  2.0705
  112OSM    C4S11585   5.307  -0.240  10.537 -0.2815  0.1727  0.6981
  112OSM    H4S11586   5.416  -0.224  10.530 -0.0070 -1.6473  0.3641
  112OSM    C5S11587   5.260  -0.360  10.499 -0.5537 -0.4260  1.0559
  112OSM    H5S11588   5.153  -0.387  10.492 -0.5224  0.2749 -3.1496
  112OSM    C6S11589   5.350  -0.467  10.440  0.0737 -0.4267  0.2218
  112OSM    H6S11590   5.315  -0.566  10.477 -0.5603  0.1356  1.1650
  112OSM    H6T11591   5.453  -0.460  10.481  1.0858 -2.5045 -1.8405
  112OSM    C7S11592   5.364  -0.448  10.285 -0.1927  0.1143  0.7081
  112OSM    H7S11593   5.444  -0.519  10.258 -0.9740 -1.1223  1.5831
  112OSM    H7T11594   5.391  -0.343  10.262 -0.5959 -0.2471 -1.5461
  112OSM    C8S11595   5.230  -0.470  10.218 -0.5203 -0.2615  0.6985
  112OSM    H8S11596   5.147  -0.397  10.236 -0.3153  0.1842 -0.1117
  112OSM    H8T11597   5.194  -0.567  10.258 -2.2291 -0.3283 -0.8817
  112OSM    C9S11598   5.253  -0.486  10.068  1.0588  0.3657 -0.0977
  112OSM    H9S11599   5.312  -0.399  10.032  2.3622 -0.1196  0.8641
  112OSM    H9T11600   5.154  -0.488  10.017  0.8731 -2.1785  0.3184
  112OSM   C10S11601   5.332  -0.604  10.014  0.8974  0.5896 -0.5178
  112OSM   H10S11602   5.308  -0.685  10.086  0.0433 -1.3106 -2.8728
  112OSM   H10T11603   5.441  -0.587  10.027  1.1381  0.2610 -1.9752
  112OSM   C11S11604   5.299  -0.658   9.875 -0.4501 -0.1885  0.3499
  112OSM   H11S11605   5.195  -0.697   9.869 -0.0308 -1.1909 -0.4654
  112OSM   H11T11606   5.374  -0.737   9.851 -2.9097 -1.8537 -2.2260
  112OSM   C12S11607   5.301  -0.560   9.755 -0.4877  0.3032 -0.1383
  112OSM   H12S11608   5.406  -0.524   9.746 -0.4753  0.0590 -1.0891
  112OSM   H12T11609   5.229  -0.482   9.786  0.2452 -0.0049  2.4550
  112OSM   C13S11610   5.259  -0.634   9.625  0.3444  0.1273 -0.8621
  112OSM   H13S11611   5.190  -0.564   9.573 -1.2534 -1.6576 -1.2191
  112OSM   H13T11612   5.197  -0.724   9.644 -1.2170  1.5219  0.8545
  112OSM   C14S11613   5.369  -0.675   9.529  1.1473  0.3222 -0.1098
  112OSM   H14S11614   5.426  -0.759   9.573  0.2726 -0.8579 -1.2065
  112OSM   H14T11615   5.437  -0.588   9.516  1.2985  0.4989  1.7335
  112OSM   C15S11616   5.321  -0.714   9.389  0.0941  0.8487 -0.9272
  112OSM   H15S11617   5.249  -0.640   9.349 -0.0277  2.3246  1.8898
  112OSM   H15T11618   5.264  -0.810   9.396  1.8761 -0.0852  1.3314
  112OSM   C16S11619   5.430  -0.748   9.284 -0.0127 -0.5241  0.3049
  112OSM   H16S11620   5.495  -0.825   9.332  0.7495  0.1204  0.3098
  112OSM   H16T11621   5.490  -0.656   9.268  0.5515 -0.7622  0.9766
  112OSM   C17S11622   5.372  -0.811   9.158 -0.4341  0.3514  0.7313
  112OSM   H17S11623   5.303  -0.741   9.106  0.2779  0.5122  0.0026
  112OSM   H17T11624   5.320  -0.908   9.177  0.7274 -0.7693 -1.6148
  112OSM   C18S11625   5.488  -0.839   9.053 -0.5460  0.0715 -0.4082
  112OSM   H18S11626   5.537  -0.935   9.082 -1.9844 -1.1332 -1.8647
  112OSM   H18T11627   5.562  -0.757   9.038  1.0368 -0.9650  1.4921
  112OSM   H18U11628   5.436  -0.853   8.956  1.2945  1.3862 -1.6096
  112OSM    C1F11629   5.202   0.017  10.233  0.2806 -0.3713  0.3363
  112OSM     OF11630   5.289   0.104  10.232  0.6020  0.5076 -0.2530
  112OSM    C2F11631   5.110  -0.018  10.121  0.1194 -0.5500 -0.2792
  112OSM    H2F11632   5.005   0.004  10.149  0.5019 -0.3452  1.0391
  112OSM    H2G11633   5.123  -0.128  10.117 -0.0833 -0.5196 -1.9366
  112OSM    C3F11634   5.146   0.061   9.986  0.1869  0.7723 -0.3035
  112OSM    H3F11635   5.164   0.168  10.011 -0.8399 -0.0269  4.2766
  112OSM    H3G11636   5.070   0.049   9.906  0.6155  1.0121 -0.7522
  112OSM    C4F11637   5.277   0.011   9.917 -0.0446 -0.0010 -1.0620
  112OSM    H4F11638   5.258  -0.094   9.886  2.2245 -1.0249  0.8412
  112OSM    H4G11639   5.358   0.022   9.992 -1.9263 -1.1326  1.2037
  112OSM    C5F11640   5.310   0.096   9.794  0.0448  0.4899 -0.6914
  112OSM    H5F11641   5.341   0.199   9.821  0.4389 -0.0367  0.9327
  112OSM    H5G11642   5.217   0.091   9.734 -0.6592 -0.9761  0.4714
  112OSM    C6F11643   5.417   0.034   9.711 -0.0524  0.3561  1.0362
  112OSM    H6F11644   5.381  -0.066   9.678  0.1217  0.3526  0.8610
  112OSM    H6G11645   5.516   0.021   9.760  0.9897  2.7153 -0.3907
  112OSM    C7F11646   5.439   0.117   9.591  0.3659 -0.5067 -0.1938
  112OSM    H7F11647   5.499   0.204   9.624 -1.4456 -0.1547  2.3193
  112OSM    H7G11648   5.348   0.146   9.534  0.3721 -0.0555  0.0295
  112OSM    C8F11649   5.518   0.037   9.482  0.2768 -0.0666  0.0321
  112OSM    H8F11650   5.441  -0.035   9.447 -1.0536  0.6900  1.3118
  112OSM    H8G11651   5.592  -0.033   9.525  0.5225 -0.4209 -0.9524
  112OSM    C9F11652   5.592   0.112   9.374 -0.1817 -0.5166 -0.2360
  112OSM    H9F11653   5.670   0.181   9.410 -1.2186  0.9826 -0.8089
  112OSM   C10F11654   5.575   0.093   9.241  0.0679 -0.3248  0.4398
  112OSM   H10F11655   5.616   0.167   9.171 -0.5496  1.5235  2.0143
  112OSM   C11F11656   5.474  -0.002   9.181  0.4293 -0.2192  0.6016
  112OSM   H11F11657   5.374   0.016   9.225  1.7676  1.4314  3.1090
  112OSM   H11G11658   5.505  -0.107   9.195  0.6610  0.1236  2.8138
  112OSM   C12F11659   5.479   0.019   9.021  0.3231 -0.0557 -1.0399
  112OSM   H12F11660   5.583   0.000   8.988 -0.4885 -1.9853 -2.6534
  112OSM   H12G11661   5.457   0.122   8.986  1.2962  0.6061  0.2679
  112OSM   C13F11662   5.382  -0.079   8.942 -0.0778 -0.1025  0.0740
  112OSM   H13F11663   5.279  -0.047   8.967 -0.0741 -0.2188  0.2389
  112OSM   H13G11664   5.401  -0.180   8.987  0.1009  1.3445  3.4155
  112OSM   C14F11665   5.381  -0.067   8.794  0.2689 -0.5173  0.3689
  112OSM   H14F11666   5.301  -0.137   8.761 -0.9043  1.2740 -0.6297
  112OSM   H14G11667   5.476  -0.116   8.762 -0.2428 -0.1874 -1.6916
  112OSM   C15F11668   5.355   0.073   8.731  0.2025 -1.2067 -0.3940
  112OSM   H15F11669   5.434   0.146   8.759 -2.3338  0.9555  1.3686
  112OSM   H15G11670   5.251   0.105   8.753 -0.1746 -1.8294 -1.2506
  112OSM   C16F11671   5.352   0.063   8.574  0.1579 -0.1737 -0.6793
  112OSM   H16F11672   5.444   0.011   8.541  0.0276 -0.2022 -0.9960
  112OSM   H16G11673   5.344   0.164   8.528 -0.0912  0.5490  0.9078
  112OSM   C17F11674   5.235  -0.014   8.515  0.1813 -0.0742  0.4370
  112OSM   H17F11675   5.137   0.031   8.540 -0.5790 -1.8332  0.6648
  112OSM   H17G11676   5.231  -0.116   8.559 -1.0008  0.2093  0.9899
  112OSM   C18F11677   5.258  -0.021   8.362  0.3838  0.3028 -0.3215
  112OSM   H18F11678   5.281   0.080   8.321 -0.4988  1.4146  1.8532
  112OSM   H18G11679   5.164  -0.044   8.306 -0.8385 -1.1364  2.2430
  112OSM   H18H11680   5.349  -0.082   8.347  0.0745  0.0018 -0.9940
  113OSM      N11681   6.349   5.663  10.983 -0.5960  0.3240 -0.0024
  113OSM    C1511682   6.450   5.563  11.033  0.0673 -0.5379  0.0116
  113OSM   H15A11683   6.403   5.467  11.046 -0.8218  0.3454  4.0510
  113OSM   H15B11684   6.490   5.598  11.127 -3.2340 -0.8408  1.6016
  113OSM   H15C11685   6.527   5.549  10.958  0.9892 -4.2829  1.5433
  113OSM    C1411686   6.427   5.783  10.933  0.2091 -0.8434 -0.1463
  113OSM   H14A11687   6.351   5.860  10.925  1.0021 -0.1181 -0.7885
  113OSM   H14B11688   6.481   5.764  10.841  2.6964  0.9820  0.8946
  113OSM   H14C11689   6.510   5.811  10.995  1.1422 -0.7434 -1.4257
  113OSM    C1311690   6.291   5.592  10.864  0.0957 -0.3501 -0.3449
  113OSM   H13A11691   6.230   5.666  10.815 -0.1596  2.0176  3.3464
  113OSM   H13B11692   6.233   5.506  10.894 -1.6481  1.4075  1.4877
  113OSM   H13C11693   6.366   5.557  10.795 -0.0683  0.0839 -0.7376
  113OSM    C1211694   6.252   5.696  11.095  0.3558  0.0996 -0.0853
  113OSM   H12A11695   6.283   5.782  11.153  1.9652  0.5684 -1.5854
  113OSM   H12B11696   6.246   5.610  11.161 -2.0908 -0.3589 -0.8463
  113OSM    C1111697   6.112   5.731  11.048 -0.0909 -0.4320 -0.1871
  113OSM   H11A11698   6.029   5.746  11.121 -0.5054  0.1430 -0.7672
  113OSM   H11B11699   6.065   5.652  10.984 -1.0179  0.1141 -0.1925
  113OSM      P11700   6.113   5.998  11.034 -0.0262 -0.0877  0.0554
  113OSM    O1311701   5.987   6.022  11.112  0.4570  0.1916 -0.0586
  113OSM    O1411702   6.242   6.021  11.095 -0.0344 -0.1299 -0.2311
  113OSM    O1111703   6.090   6.083  10.905  0.0472 -0.5357  0.0888
  113OSM    O1211704   6.108   5.850  10.969 -0.5475 -0.4768 -0.0172
  113OSM    C1S11705   6.164   6.086  10.783 -0.0932 -0.0194  0.3729
  113OSM    H1S11706   6.205   5.986  10.757 -1.0189 -0.7651  1.6587
  113OSM    H1T11707   6.244   6.162  10.786 -1.8038  1.8514 -0.4533
  113OSM     NF11708   6.147   6.125  10.542  0.2608 -0.0798 -0.0872
  113OSM    HNF11709   6.189   6.212  10.515  0.7739 -0.2697  0.1030
  113OSM    C2S11710   6.069   6.119  10.666 -0.9701  0.4919 -0.0479
  113OSM    H2S11711   6.009   6.027  10.655  0.6545 -0.5992  0.0830
  113OSM    C3S11712   5.985   6.241  10.698  1.5397  0.0046 -0.3834
  113OSM    H3S11713   6.033   6.341  10.708  2.3193 -0.4473  0.4150
  113OSM     O311714   5.896   6.225  10.811 -0.2839  0.2323  0.2152
  113OSM    HO311715   5.947   6.153  10.849  0.5933  0.5983 -0.2519
  113OSM    C4S11716   5.885   6.262  10.582  0.4310 -0.5124  0.2496
  113OSM    H4S11717   5.798   6.195  10.569 -0.2356  0.6552 -1.5264
  113OSM    C5S11718   5.882   6.372  10.501 -0.0376  0.6460 -0.1036
  113OSM    H5S11719   5.950   6.458  10.509  1.0489 -0.0256 -1.8934
  113OSM    C6S11720   5.781   6.391  10.391 -0.5920  0.3970  0.8358
  113OSM    H6S11721   5.789   6.489  10.341  1.6874 -0.0873  0.2001
  113OSM    H6T11722   5.681   6.403  10.438 -0.4668 -1.4253  1.6341
  113OSM    C7S11723   5.796   6.275  10.290  0.5123 -0.8361 -0.0471
  113OSM    H7S11724   5.711   6.283  10.219 -0.6929  0.9626  1.5278
  113OSM    H7T11725   5.780   6.177  10.342 -2.1174 -1.4411 -1.8626
  113OSM    C8S11726   5.922   6.246  10.209 -0.0286  0.1722 -0.1608
  113OSM    H8S11727   6.009   6.242  10.278 -0.9382 -2.3927  0.8608
  113OSM    H8T11728   5.932   6.335  10.142 -3.6773  0.5308 -0.3028
  113OSM    C9S11729   5.923   6.127  10.111  0.3836 -0.2232  0.2324
  113OSM    H9S11730   5.882   6.037  10.162 -3.3154  1.7535  0.9747
  113OSM    H9T11731   6.029   6.104  10.087  0.3271  0.9679 -1.2839
  113OSM   C10S11732   5.846   6.149   9.974 -0.0080 -0.5043 -0.8179
  113OSM   H10S11733   5.878   6.241   9.920 -1.7785 -0.4963 -1.9134
  113OSM   H10T11734   5.739   6.163  10.001 -0.0966 -2.4423 -0.1387
  113OSM   C11S11735   5.840   6.039   9.874 -0.0781  0.3706 -0.7609
  113OSM   H11S11736   5.812   5.945   9.926  0.2433  1.3061  1.1342
  113OSM   H11T11737   5.938   6.014   9.828  0.9647  1.6347  0.7502
  113OSM   C12S11738   5.731   6.047   9.761 -0.2387 -0.7936 -0.9057
  113OSM   H12S11739   5.646   6.111   9.793  0.9556  0.7512 -0.7267
  113OSM   H12T11740   5.687   5.947   9.746 -1.0731 -0.8866  1.9049
  113OSM   C13S11741   5.776   6.098   9.619  0.4050  0.1719 -0.7993
  113OSM   H13S11742   5.860   6.168   9.639  1.8840 -1.7951 -0.0315
  113OSM   H13T11743   5.689   6.146   9.569  0.8605  1.8433 -0.0409
  113OSM   C14S11744   5.813   5.983   9.523 -0.2647  0.0911  0.5160
  113OSM   H14S11745   5.722   5.923   9.503  0.6204 -1.0336 -0.2091
  113OSM   H14T11746   5.881   5.905   9.564 -0.5338 -1.4778 -1.9170
  113OSM   C15S11747   5.861   6.039   9.390 -0.8267 -0.5460  0.3203
  113OSM   H15S11748   5.965   6.077   9.391 -0.6167 -1.0229 -1.3679
  113OSM   H15T11749   5.807   6.133   9.365 -0.4978 -0.4683 -0.1008
  113OSM   C16S11750   5.866   5.936   9.281  0.0940 -0.1591  0.0687
  113OSM   H16S11751   5.765   5.890   9.286 -0.6568  1.2813 -1.3260
  113OSM   H16T11752   5.946   5.863   9.307 -0.3765 -0.7047  0.0032
  113OSM   C17S11753   5.896   5.988   9.139 -0.0668  0.3342  0.7743
  113OSM   H17S11754   5.996   6.036   9.143  1.0612 -1.9977  1.6406
  113OSM   H17T11755   5.811   6.055   9.114  0.2942  0.4888 -0.0362
  113OSM   C18S11756   5.906   5.875   9.035 -0.1795  0.5895 -0.2940
  113OSM   H18S11757   5.808   5.826   9.052  1.1827 -2.1258  0.0429
  113OSM   H18T11758   5.989   5.803   9.055 -0.7706 -0.8454 -2.7705
  113OSM   H18U11759   5.912   5.909   8.929 -1.9255 -0.2872 -0.6880
  113OSM    C1F11760   6.173   6.015  10.475 -0.4145 -0.5276 -0.2441
  113OSM     OF11761   6.148   5.906  10.523 -0.0379  0.2396  0.1264
  113OSM    C2F11762   6.210   6.028  10.326 -0.2425  0.1745  0.5613
  113OSM    H2F11763   6.254   6.128  10.307 -0.0499  0.2536  1.4091
  113OSM    H2G11764   6.110   6.019  10.277  0.2395  0.4169 -0.4771
  113OSM    C3F11765   6.296   5.921  10.276 -0.1700 -0.1387  0.7827
  113OSM    H3F11766   6.261   5.823  10.317  1.6541 -0.3238  1.9773
  113OSM    H3G11767   6.396   5.928  10.324 -0.0230  0.9937  0.3223
  113OSM    C4F11768   6.287   5.921  10.121  0.3097  0.9482  0.0479
  113OSM    H4F11769   6.332   6.017  10.089 -0.6602  0.5820 -2.5914
  113OSM    H4G11770   6.184   5.925  10.080  1.2371 -2.6299 -2.9367
  113OSM    C5F11771   6.357   5.802  10.053 -0.1977  0.3170  0.5328
  113OSM    H5F11772   6.305   5.711  10.091 -2.1054  1.3621  0.4814
  113OSM    H5G11773   6.462   5.799  10.088  0.0326  1.1455 -0.0833
  113OSM    C6F11774   6.338   5.797   9.901  0.9372 -0.8048  0.4020
  113OSM    H6F11775   6.408   5.873   9.860 -0.0704  0.3812  0.8637
  113OSM    H6G11776   6.234   5.825   9.877  0.7343 -1.4247  0.5418
  113OSM    C7F11777   6.365   5.655   9.835 -0.7906  0.0089  0.1019
  113OSM    H7F11778   6.302   5.589   9.898  0.6174 -2.1099 -0.6591
  113OSM    H7G11779   6.471   5.625   9.849 -1.4540 -0.8106  4.1297
  113OSM    C8F11780   6.344   5.653   9.686 -0.5454  0.0264 -0.3758
  113OSM    H8F11781   6.383   5.553   9.658 -0.1438 -0.4099  1.6709
  113OSM    H8G11782   6.408   5.724   9.629  1.4986 -2.5771 -1.4382
  113OSM    C9F11783   6.204   5.665   9.642  0.4721 -0.4079  0.3987
  113OSM    H9F11784   6.135   5.652   9.728 -1.3925  0.2909 -0.9557
  113OSM   C10F11785   6.170   5.681   9.513  0.3885  0.1051 -0.8211
  113OSM   H10F11786   6.065   5.696   9.482 -1.0178 -0.4596  3.4136
  113OSM   C11F11787   6.258   5.681   9.398  0.4198  0.4616 -0.1480
  113OSM   H11F11788   6.350   5.620   9.414  0.2255  0.1727 -0.1333
  113OSM   H11G11789   6.294   5.783   9.373 -0.1097  1.2084  2.0626
  113OSM   C12F11790   6.185   5.633   9.267 -1.0953  0.6406  0.2506
  113OSM   H12F11791   6.111   5.710   9.237 -1.5200 -0.7615 -2.5175
  113OSM   H12G11792   6.131   5.540   9.295  0.1952 -0.2026  0.0071
  113OSM   C13F11793   6.284   5.597   9.150  0.1930  0.3764 -0.0146
  113OSM   H13F11794   6.227   5.535   9.077  1.0875 -0.0764 -0.3468
  113OSM   H13G11795   6.365   5.528   9.185  1.6833  2.5778  1.0353
  113OSM   C14F11796   6.361   5.718   9.091 -0.4157  0.2417 -0.2098
  113OSM   H14F11797   6.406   5.767   9.180 -2.0938  3.6201 -1.1356
  113OSM   H14G11798   6.290   5.797   9.059  0.6754  0.5987 -1.7870
  113OSM   C15F11799   6.463   5.690   8.988 -0.0402  0.8007  0.0520
  113OSM   H15F11800   6.424   5.666   8.887  1.9316  0.2455 -0.5921
  113OSM   H15G11801   6.517   5.599   9.021 -2.8470 -1.2734 -0.8050
  113OSM   C16F11802   6.572   5.792   8.957 -0.3644 -0.6450 -0.7019
  113OSM   H16F11803   6.644   5.789   9.041 -0.6439 -0.4743 -0.4565
  113OSM   H16G11804   6.533   5.896   8.949 -0.1330 -0.5950 -1.2075
  113OSM   C17F11805   6.649   5.756   8.822 -0.2290  0.1101  0.1326
  113OSM   H17F11806   6.576   5.764   8.738 -0.4242 -1.4650  0.1365
  113OSM   H17G11807   6.692   5.654   8.831 -0.1828  0.1389  0.2393
  113OSM   C18F11808   6.764   5.858   8.798 -0.2707 -0.3534  0.1804
  113OSM   H18F11809   6.754   5.958   8.844  0.8821  0.5951 -1.5480
  113OSM   H18G11810   6.796   5.876   8.693 -1.0566 -1.1393 -0.2032
  113OSM   H18H11811   6.853   5.819   8.853 -0.5001 -3.4833 -1.5123
  114OSM      N11812   0.236   4.422  11.579 -0.2307 -0.4283  0.3616
  114OSM    C1511813   0.349   4.352  11.640 -0.1754  0.3129 -0.0716
  114OSM   H15A11814   0.329   4.286  11.724  2.8806 -0.8036 -0.1357
  114OSM   H15B11815   0.415   4.422  11.689  1.0525 -1.4541  0.8660
  114OSM   H15C11816   0.401   4.296  11.563  0.6618  2.6960 -1.2752
  114OSM    C1411817   0.164   4.332  11.478 -0.9399  0.8408  0.1004
  114OSM   H14A11818   0.227   4.311  11.393 -1.0075  0.0836  0.2345
  114OSM   H14B11819   0.084   4.391  11.435 -1.3984 -0.3648 -0.7462
  114OSM   H14C11820   0.137   4.238  11.525  0.4141  0.7767  0.7733
  114OSM    C1311821   0.137   4.466  11.680 -0.2941 -0.2108  0.5574
  114OSM   H13A11822   0.104   4.569  11.670  0.1314 -0.2755 -1.9245
  114OSM   H13B11823   0.186   4.467  11.776  0.7045 -1.9082  0.0945
  114OSM   H13C11824   0.050   4.404  11.690 -1.5945  1.6556  1.0433
  114OSM    C1211825   0.291   4.539  11.502  0.0170 -0.2179 -0.2984
  114OSM   H12A11826   0.215   4.585  11.440 -0.2854 -1.4929 -0.8913
  114OSM   H12B11827   0.364   4.516  11.426  0.4536  1.2534 -0.3436
  114OSM    C1111828   0.351   4.660  11.574 -0.4304  0.2608 -0.0580
  114OSM   H11A11829   0.267   4.708  11.629 -0.9192 -0.5624 -0.0752
  114OSM   H11B11830   0.374   4.746  11.507 -1.7351  0.8061  0.1695
  114OSM      P11831   0.603   4.618  11.587 -0.2669 -0.1169  0.3769
  114OSM    O1311832   0.704   4.713  11.648 -0.1181 -0.1409  0.6255
  114OSM    O1411833   0.644   4.476  11.598  0.5933  0.2078  0.3430
  114OSM    O1111834   0.577   4.644  11.439  0.1020 -0.9451 -0.2713
  114OSM    O1211835   0.458   4.633  11.659 -0.3533 -0.7607 -0.7451
  114OSM    C1S11836   0.609   4.759  11.370  0.6418 -0.4584 -0.2920
  114OSM    H1S11837   0.715   4.787  11.390  0.2144  0.0342  1.4279
  114OSM    H1T11838   0.548   4.841  11.416 -0.0864 -0.6412 -0.9223
  114OSM     NF11839   0.628   4.868  11.146  0.8518  0.3800 -0.5910
  114OSM    HNF11840   0.553   4.926  11.116  1.7514 -0.6529 -5.2545
  114OSM    C2S11841   0.588   4.748  11.218  0.3262 -0.4795  0.9989
  114OSM    H2S11842   0.651   4.661  11.188 -0.1607 -0.4100 -0.2355
  114OSM    C3S11843   0.444   4.712  11.188  0.0974  0.2159 -0.0853
  114OSM    H3S11844   0.377   4.791  11.229  0.2198 -0.4355  1.3732
  114OSM     O311845   0.400   4.589  11.250 -0.0116  0.5865  0.1989
  114OSM    HO311846   0.469   4.576  11.315  1.2894  1.3042 -0.9907
  114OSM    C4S11847   0.431   4.701  11.035  0.5293  0.3401 -0.1807
  114OSM    H4S11848   0.419   4.797  10.983 -3.1104 -0.4668 -0.9899
  114OSM    C5S11849   0.426   4.582  10.966  0.2731 -0.0004  0.1566
  114OSM    H5S11850   0.443   4.486  11.017 -1.0637  0.2640  1.1233
  114OSM    C6S11851   0.404   4.564  10.817 -0.3695 -0.6273  0.0629
  114OSM    H6S11852   0.311   4.509  10.793  0.6597 -1.4668 -2.1111
  114OSM    H6T11853   0.489   4.505  10.776 -0.9492 -0.4389 -1.4288
  114OSM    C7S11854   0.408   4.688  10.732 -0.1535 -0.0997  0.3640
  114OSM    H7S11855   0.506   4.737  10.749  0.9532 -1.0631 -2.7880
  114OSM    H7T11856   0.342   4.770  10.768  1.3671  1.2916  0.0589
  114OSM    C8S11857   0.395   4.668  10.580  0.0861  0.2001  0.0462
  114OSM    H8S11858   0.483   4.610  10.545  1.8907  1.9303  1.6778
  114OSM    H8T11859   0.396   4.763  10.524 -0.5946 -0.5665 -1.3048
  114OSM    C9S11860   0.263   4.598  10.542  0.3617 -0.8579  0.5651
  114OSM    H9S11861   0.170   4.628  10.595 -0.7579 -1.8821 -0.7886
  114OSM    H9T11862   0.272   4.488  10.556  2.1136 -0.6469  1.2227
  114OSM   C10S11863   0.235   4.617  10.395 -0.0979  0.3577  0.4934
  114OSM   H10S11864   0.316   4.566  10.339 -1.9641 -1.2440 -0.8217
  114OSM   H10T11865   0.237   4.723  10.362  1.2772  0.2289  0.1393
  114OSM   C11S11866   0.102   4.562  10.335  0.3992 -0.2563  0.1276
  114OSM   H11S11867   0.027   4.642  10.353  0.3433 -0.0063 -1.1825
  114OSM   H11T11868   0.076   4.470  10.393 -1.0956  0.7044  1.0049
  114OSM   C12S11869   0.110   4.528  10.189  0.2703  0.4775 -0.7209
  114OSM   H12S11870   0.038   4.445  10.171 -1.4115  1.5300  0.9763
  114OSM   H12T11871   0.212   4.503  10.155  0.5659 -0.9682  1.1073
  114OSM   C13S11872   0.082   4.657  10.114 -0.7834  0.0304 -0.6257
  114OSM   H13S11873   0.151   4.737  10.150  0.0217 -0.0567 -1.9401
  114OSM   H13T11874  -0.011   4.703  10.154 -0.9891 -0.5086 -0.4818
  114OSM   C14S11875   0.078   4.642   9.958  0.2314 -0.3869  0.2634
  114OSM   H14S11876   0.018   4.550   9.945 -1.2379  0.7785 -1.6329
  114OSM   H14T11877   0.179   4.628   9.915 -0.0904  2.2663 -1.4910
  114OSM   C15S11878   0.001   4.761   9.895  0.2639  0.3198 -0.5066
  114OSM   H15S11879   0.078   4.841   9.902  1.5528 -0.8737 -0.7740
  114OSM   H15T11880  -0.083   4.791   9.962  1.3643 -2.3201  2.1190
  114OSM   C16S11881  -0.055   4.728   9.753 -0.1193  0.2005  0.0895
  114OSM   H16S11882  -0.130   4.804   9.722 -0.1336  0.4508  0.7432
  114OSM   H16T11883  -0.112   4.633   9.761  1.7435 -0.8289  1.5319
  114OSM   C17S11884   0.054   4.719   9.652 -0.0696 -0.2109 -0.0200
  114OSM   H17S11885   0.120   4.633   9.677 -3.6519 -2.8232  0.8682
  114OSM   H17T11886   0.111   4.814   9.654 -0.0515 -0.2367  2.7547
  114OSM   C18S11887  -0.005   4.684   9.516  0.0463  0.0463 -0.0731
  114OSM   H18S11888  -0.069   4.769   9.485  0.6617  1.5305  2.6404
  114OSM   H18T11889  -0.073   4.596   9.516 -0.0935  0.1395 -1.5075
  114OSM   H18U11890   0.076   4.656   9.445  0.0849 -1.0621  0.3967
  114OSM    C1F11891   0.750   4.901  11.128  0.1175 -0.1266 -0.5942
  114OSM     OF11892   0.835   4.824  11.174 -0.7030 -0.1704  0.5562
  114OSM    C2F11893   0.785   5.033  11.056 -0.5501 -0.2536 -0.0616
  114OSM    H2F11894   0.854   5.090  11.122 -0.9676  0.8685 -0.5762
  114OSM    H2G11895   0.693   5.096  11.059 -3.0667 -3.7034 -0.6448
  114OSM    C3F11896   0.840   5.010  10.915  0.4186 -0.4295 -0.1534
  114OSM    H3F11897   0.921   4.933  10.913  2.0448  1.2456 -0.7416
  114OSM    H3G11898   0.897   5.099  10.880 -0.3310 -0.0895 -0.5137
  114OSM    C4F11899   0.732   4.985  10.805 -0.5963  0.4101 -0.2062
  114OSM    H4F11900   0.673   5.076  10.782 -0.2894  0.1334 -2.1264
  114OSM    H4G11901   0.664   4.909  10.849  1.0621 -0.7896  0.3423
  114OSM    C5F11902   0.800   4.944  10.683  0.1117  0.0045 -0.3235
  114OSM    H5F11903   0.884   4.880  10.718 -1.2322  0.0519  3.2036
  114OSM    H5G11904   0.848   5.034  10.639 -0.2444  0.4706  0.2391
  114OSM    C6F11905   0.695   4.873  10.590 -0.5727 -0.3082 -0.9223
  114OSM    H6F11906   0.602   4.931  10.572 -0.4154  1.5613  3.6755
  114OSM    H6G11907   0.666   4.776  10.637  0.7401 -1.3130 -2.1490
  114OSM    C7F11908   0.755   4.834  10.453 -0.2551  0.3194 -0.1397
  114OSM    H7F11909   0.829   4.754  10.474 -0.1907  0.9775  2.2380
  114OSM    H7G11910   0.804   4.919  10.399  1.7232 -1.2234 -0.8526
  114OSM    C8F11911   0.660   4.751  10.365 -0.4495  0.2593  0.5745
  114OSM    H8F11912   0.559   4.797  10.368 -0.5108  0.1017  1.0278
  114OSM    H8G11913   0.660   4.647  10.402  1.5866  0.3906  1.0313
  114OSM    C9F11914   0.706   4.741  10.217  0.1699  0.0372 -0.0770
  114OSM    H9F11915   0.813   4.713  10.212  0.1743  0.0024  0.2182
  114OSM   C10F11916   0.636   4.759  10.105  0.3680  0.1516 -0.2666
  114OSM   H10F11917   0.695   4.759  10.013 -0.3458  0.3281 -0.7299
  114OSM   C11F11918   0.489   4.788  10.084  0.3806  0.3195 -0.0827
  114OSM   H11F11919   0.471   4.897  10.075 -1.2696 -0.1161 -2.2394
  114OSM   H11G11920   0.436   4.760  10.178  0.6896 -1.9896 -0.5579
  114OSM   C12F11921   0.424   4.723   9.959  0.0973  0.5576  0.7900
  114OSM   H12F11922   0.324   4.769   9.944 -1.8711 -3.7413  0.2507
  114OSM   H12G11923   0.402   4.616   9.973  0.9884  0.5972  2.7434
  114OSM   C13F11924   0.502   4.753   9.829 -0.0450 -0.4940 -0.7207
  114OSM   H13F11925   0.588   4.685   9.814  0.3931  0.2499 -1.6630
  114OSM   H13G11926   0.532   4.860   9.829 -0.4918 -0.3645  0.4427
  114OSM   C14F11927   0.410   4.736   9.714 -0.0027  0.0360 -1.0815
  114OSM   H14F11928   0.323   4.806   9.720  0.0608 -0.1097  2.0777
  114OSM   H14G11929   0.369   4.633   9.706 -1.6519  0.3889  2.0126
  114OSM   C15F11930   0.477   4.763   9.585  0.8056 -0.2177 -0.7814
  114OSM   H15F11931   0.559   4.691   9.565  0.5147 -0.5975 -0.6154
  114OSM   H15G11932   0.519   4.866   9.587  0.8428 -0.2293 -0.9346
  114OSM   C16F11933   0.372   4.767   9.469  0.3713 -0.3253  0.1837
  114OSM   H16F11934   0.300   4.851   9.479  0.6490  0.1033 -1.3882
  114OSM   H16G11935   0.311   4.676   9.490  1.4383 -0.8491  1.0501
  114OSM   C17F11936   0.426   4.749   9.326 -0.3327 -0.0324  0.9644
  114OSM   H17F11937   0.350   4.771   9.248  2.2445 -0.5821 -1.7508
  114OSM   H17G11938   0.458   4.644   9.312 -1.9789 -0.5454  0.9229
  114OSM   C18F11939   0.538   4.846   9.287  0.8051  0.5509  0.2235
  114OSM   H18F11940   0.636   4.816   9.329  0.9036  0.2195 -0.2420
  114OSM   H18G11941   0.517   4.949   9.323 -1.3638 -0.0480  0.8131
  114OSM   H18H11942   0.535   4.850   9.177 -0.4851 -0.2088  0.2143
  115OSM      N11943   1.740   1.055   6.295 -0.7076 -0.6161 -0.2064
  115OSM    C1511944   1.629   1.082   6.386 -0.2841 -0.2573  0.3893
  115OSM   H15A11945   1.545   1.015   6.375 -0.8416  0.2348  1.4963
  115OSM   H15B11946   1.586   1.178   6.362 -0.5150 -0.0782  1.5027
  115OSM   H15C11947   1.658   1.077   6.490  0.6782 -1.0602  0.0915
  115OSM    C1411948   1.837   0.951   6.362 -0.2813  0.0332  0.2819
  115OSM   H14A11949   1.880   0.985   6.455  0.4572 -0.7081  0.2325
  115OSM   H14B11950   1.925   0.939   6.300  1.1010  2.5885  1.6719
  115OSM   H14C11951   1.781   0.859   6.368 -1.5264  0.5882 -2.2829
  115OSM    C1311952   1.694   0.998   6.163  0.0052  0.0830 -1.0606
  115OSM   H13A11953   1.777   1.001   6.094  1.4669 -0.1174  0.6278
  115OSM   H13B11954   1.621   1.068   6.126  0.0641  2.0025  2.2750
  115OSM   H13C11955   1.664   0.894   6.170  0.0827  0.1403  0.2600
  115OSM    C1211956   1.816   1.176   6.260 -0.1606 -0.7724  0.2004
  115OSM   H12A11957   1.897   1.153   6.192  0.7324  2.1942  0.2139
  115OSM   H12B11958   1.874   1.189   6.350  1.2636  1.3357 -1.0025
  115OSM    C1111959   1.743   1.302   6.204  0.4082  0.2855 -0.2318
  115OSM   H11A11960   1.695   1.285   6.105  1.4794 -0.3599 -0.6550
  115OSM   H11B11961   1.822   1.377   6.185  1.7097 -0.5370  1.7736
  115OSM      P11962   1.550   1.468   6.268 -0.2844  0.0701  0.2354
  115OSM    O1311963   1.613   1.604   6.245  0.0197 -0.5152  0.0176
  115OSM    O1411964   1.466   1.421   6.155 -0.2646 -0.4819 -0.0188
  115OSM    O1111965   1.450   1.472   6.388  0.0108 -0.5415  0.2087
  115OSM    O1211966   1.652   1.357   6.302  0.0594  0.5942 -0.1275
  115OSM    C1S11967   1.472   1.413   6.516  0.3070  0.3176 -0.2037
  115OSM    H1S11968   1.536   1.476   6.581 -1.5830  0.2463  1.7940
  115OSM    H1T11969   1.515   1.311   6.504  0.7002  0.5546 -0.8516
  115OSM     NF11970   1.375   1.359   6.732 -0.4575 -0.1794 -0.0153
  115OSM    HNF11971   1.353   1.263   6.749 -3.6492  0.3313 -0.9604
  115OSM    C2S11972   1.338   1.400   6.599 -0.0836  0.1443  0.1690
  115OSM    H2S11973   1.292   1.501   6.605 -0.2599  0.2334 -2.2489
  115OSM    C3S11974   1.224   1.316   6.522  0.1139 -0.0601  0.6987
  115OSM    H3S11975   1.259   1.211   6.527  1.8781  0.3514 -1.8708
  115OSM     O311976   1.214   1.336   6.379  0.0055  0.4035 -0.5626
  115OSM    HO311977   1.295   1.382   6.353 -0.6996  0.3702 -2.9626
  115OSM    C4S11978   1.093   1.328   6.593 -0.1786  0.2968 -0.3095
  115OSM    H4S11979   1.077   1.431   6.629 -0.2233  0.4939 -0.8906
  115OSM    C5S11980   1.011   1.232   6.629  0.1048  0.0790  0.2063
  115OSM    H5S11981   1.045   1.127   6.627  2.2858  0.7907 -0.5236
  115OSM    C6S11982   0.883   1.251   6.703  0.0020  0.1605 -0.2131
  115OSM    H6S11983   0.790   1.219   6.652  0.8343 -1.3414 -0.8047
  115OSM    H6T11984   0.875   1.359   6.730  0.4485 -0.2619  1.7040
  115OSM    C7S11985   0.890   1.157   6.828 -0.0534  0.1427 -0.3124
  115OSM    H7S11986   0.888   1.047   6.812 -1.6726  0.3617 -1.7894
  115OSM    H7T11987   0.793   1.182   6.877 -0.5257 -0.0363 -1.1452
  115OSM    C8S11988   1.009   1.189   6.928  0.0466  0.6678 -0.2130
  115OSM    H8S11989   1.001   1.296   6.957 -2.1270  0.5729 -0.3484
  115OSM    H8T11990   1.103   1.173   6.871  1.6503 -1.4297  2.8279
  115OSM    C9S11991   0.996   1.096   7.049  0.0294 -0.5748 -0.1223
  115OSM    H9S11992   1.092   1.106   7.104  0.0625  1.3167 -0.4813
  115OSM    H9T11993   0.981   0.992   7.011 -1.9489 -0.1135 -0.6686
  115OSM   C10S11994   0.883   1.127   7.147  0.4110 -0.1371 -0.2935
  115OSM   H10S11995   0.791   1.102   7.090  1.5228 -3.3977 -0.7857
  115OSM   H10T11996   0.901   1.234   7.171  1.3373  0.5417 -3.6540
  115OSM   C11S11997   0.886   1.026   7.260  0.8120 -0.2450 -0.3553
  115OSM   H11S11998   0.984   1.030   7.311  0.5141  0.6895  0.1533
  115OSM   H11T11999   0.868   0.929   7.209 -1.7079  0.9700 -1.8834
  115OSM   C12S12000   0.779   1.062   7.364  0.1181 -0.0751 -0.5282
  115OSM   H12S12001   0.679   1.045   7.320 -0.5309  0.3094  0.7699
  115OSM   H12T12002   0.790   1.169   7.394  0.1942  0.9115 -3.8145
  115OSM   C13S12003   0.784   0.973   7.493 -0.4285 -0.3267  0.2316
  115OSM   H13S12004   0.886   0.970   7.535  0.1205 -0.1823 -1.0509
  115OSM   H13T12005   0.762   0.872   7.453  1.5958 -0.8002  0.2706
  115OSM   C14S12006   0.692   1.014   7.603 -0.0373 -0.4130 -0.4025
  115OSM   H14S12007   0.587   1.009   7.568 -0.7172  1.5394  1.2447
  115OSM   H14T12008   0.720   1.115   7.640  0.8441 -0.2769 -1.4226
  115OSM   C15S12009   0.713   0.919   7.730 -0.3222  0.1773  0.8147
  115OSM   H15S12010   0.757   0.824   7.695  2.2193  0.8865  1.9779
  115OSM   H15T12011   0.614   0.893   7.773 -1.3486  0.1629 -1.4838
  115OSM   C16S12012   0.803   0.968   7.839  0.5580  0.0513  0.4206
  115OSM   H16S12013   0.759   1.068   7.856 -1.5623 -0.5995 -1.0712
  115OSM   H16T12014   0.908   0.979   7.803  0.0143  0.4228 -1.0899
  115OSM   C17S12015   0.803   0.887   7.966 -0.4474  0.0262  0.8083
  115OSM   H17S12016   0.848   0.786   7.952 -0.3193  0.2777 -0.7502
  115OSM   H17T12017   0.694   0.866   7.975 -0.5179 -1.3960 -2.4999
  115OSM   C18S12018   0.860   0.962   8.084  0.4183  0.5193 -0.1288
  115OSM   H18S12019   0.842   0.906   8.178 -0.5586  1.3525  0.1935
  115OSM   H18T12020   0.821   1.065   8.098 -0.0460  0.3809 -0.4278
  115OSM   H18U12021   0.971   0.963   8.076  0.3854 -3.2178 -2.6120
  115OSM    C1F12022   1.436   1.447   6.822  0.1200  0.5080  0.5702
  115OSM     OF12023   1.444   1.566   6.799  0.1971 -0.2152 -0.0415
  115OSM    C2F12024   1.494   1.379   6.937 -0.1447  0.3825 -0.6184
  115OSM    H2F12025   1.560   1.450   6.991 -0.1489 -1.5540  1.9961
  115OSM    H2G12026   1.568   1.302   6.908  0.6402  1.1929 -0.8136
  115OSM    C3F12027   1.402   1.313   7.044  0.2974 -0.1037  0.2522
  115OSM    H3F12028   1.338   1.234   7.000  0.8807 -0.4107 -0.0574
  115OSM    H3G12029   1.331   1.390   7.080  0.0014  0.6989 -1.9631
  115OSM    C4F12030   1.487   1.272   7.167 -0.3904  0.2898 -0.4180
  115OSM    H4F12031   1.523   1.364   7.217 -2.3674  0.6574  0.3807
  115OSM    H4G12032   1.576   1.213   7.136 -0.7163  0.2380 -1.2625
  115OSM    C5F12033   1.408   1.185   7.268 -0.0388  0.3977 -0.2276
  115OSM    H5F12034   1.476   1.159   7.352  0.6856 -0.8110 -1.1704
  115OSM    H5G12035   1.372   1.097   7.211 -0.4877  0.6824 -0.3870
  115OSM    C6F12036   1.289   1.266   7.333 -0.2584  0.6639 -0.5276
  115OSM    H6F12037   1.217   1.275   7.250 -1.4611  3.3499  0.7606
  115OSM    H6G12038   1.325   1.365   7.367 -1.1626  0.3164  1.5248
  115OSM    C7F12039   1.218   1.193   7.450  0.1245 -0.7332 -0.0403
  115OSM    H7F12040   1.290   1.135   7.512  0.1944  0.6011  1.1617
  115OSM    H7G12041   1.155   1.115   7.404  2.0282 -1.5929 -1.2457
  115OSM    C8F12042   1.143   1.293   7.536 -0.4367  0.1526  0.0149
  115OSM    H8F12043   1.070   1.352   7.476 -0.2597  2.3344  1.8639
  115OSM    H8G12044   1.219   1.367   7.570 -1.5537  1.2910  0.0814
  115OSM    C9F12045   1.075   1.219   7.643 -0.5972  0.0500 -0.2182
  115OSM    H9F12046   0.990   1.158   7.610 -1.2038  1.2686 -0.9311
  115OSM   C10F12047   1.108   1.230   7.769 -0.7142  0.3131  0.1114
  115OSM   H10F12048   1.048   1.183   7.848 -0.9382  1.6541  0.7596
  115OSM   C11F12049   1.234   1.308   7.818  0.1796 -0.9552  0.8784
  115OSM   H11F12050   1.207   1.416   7.818 -0.1560 -1.0310 -0.1325
  115OSM   H11G12051   1.325   1.297   7.755 -1.4964 -2.1632 -1.4279
  115OSM   C12F12052   1.263   1.270   7.967 -0.0750  0.1221  0.0189
  115OSM   H12F12053   1.314   1.172   7.982  0.6057  0.3699 -0.6254
  115OSM   H12G12054   1.165   1.267   8.018  0.8629 -0.8935  1.8387
  115OSM   C13F12055   1.351   1.379   8.038  0.8060  0.2426  0.5042
  115OSM   H13F12056   1.319   1.480   8.003  0.2682 -0.2730 -0.5262
  115OSM   H13G12057   1.461   1.363   8.028  0.6502 -1.4779  1.4441
  115OSM   C14F12058   1.317   1.386   8.189 -0.1506 -0.5318  0.4785
  115OSM   H14F12059   1.215   1.428   8.187 -0.6141 -1.6422  0.4909
  115OSM   H14G12060   1.385   1.462   8.232 -2.7930  2.5958 -0.6897
  115OSM   C15F12061   1.316   1.254   8.266 -0.3784 -0.6283 -0.5208
  115OSM   H15F12062   1.421   1.221   8.276 -0.6559 -1.2191  0.5759
  115OSM   H15G12063   1.251   1.176   8.220  0.8036 -1.0624 -1.4826
  115OSM   C16F12064   1.268   1.281   8.411  0.2847 -0.6308  0.4456
  115OSM   H16F12065   1.162   1.312   8.409  0.5302  0.2573  0.7828
  115OSM   H16G12066   1.328   1.360   8.461  0.2651 -0.2776 -0.0771
  115OSM   C17F12067   1.280   1.153   8.501 -0.2224 -0.0906 -0.1115
  115OSM   H17F12068   1.387   1.122   8.496 -0.0981  0.5467 -1.9243
  115OSM   H17G12069   1.212   1.070   8.473 -0.6267 -0.6342  2.3492
  115OSM   C18F12070   1.249   1.186   8.646 -0.0076  0.5467 -0.5746
  115OSM   H18F12071   1.142   1.206   8.670 -0.1868  0.4395 -1.2521
  115OSM   H18G12072   1.305   1.265   8.699  0.2317 -1.0500  1.6072
  115OSM   H18H12073   1.261   1.100   8.715 -0.1582  3.1669  2.8449
  116OSM      N12074   0.240   5.907   6.043  0.2424  0.6053 -0.2288
  116OSM    C1512075   0.123   5.998   6.020 -0.2722 -0.4178 -0.6006
  116OSM   H15A12076   0.095   5.992   5.916  1.9749 -4.1142 -1.0966
  116OSM   H15B12077   0.160   6.097   6.045  1.8704 -0.8898 -1.7149
  116OSM   H15C12078   0.041   5.971   6.085 -0.9256 -0.6209 -1.4999
  116OSM    C1412079   0.204   5.760   6.009  0.3947 -0.3226  0.4911
  116OSM   H14A12080   0.120   5.726   6.068  0.7388 -0.7570  0.7261
  116OSM   H14B12081   0.288   5.693   6.016  1.2693  0.7537  0.4974
  116OSM   H14C12082   0.160   5.754   5.910 -0.4701  0.1548  0.8361
  116OSM    C1312083   0.354   5.936   5.953 -0.6614  0.0433 -0.3146
  116OSM   H13A12084   0.379   6.040   5.968 -0.2296  0.1074 -1.4189
  116OSM   H13B12085   0.330   5.923   5.848  0.4985 -0.9909 -0.4686
  116OSM   H13C12086   0.441   5.873   5.967 -0.9458 -0.1222  0.6868
  116OSM    C1212087   0.278   5.907   6.192  0.3884  0.0723  0.3204
  116OSM   H12A12088   0.222   5.825   6.237  3.2038 -3.2415 -1.9253
  116OSM   H12B12089   0.228   5.992   6.236 -0.8282 -0.2048 -0.5081
  116OSM    C1112090   0.422   5.917   6.243  0.1854  0.2496 -0.0524
  116OSM   H11A12091   0.438   5.907   6.352  1.1066  1.4539 -0.0586
  116OSM   H11B12092   0.453   6.022   6.221 -1.5213  1.1461  1.6956
  116OSM      P12093   0.517   5.674   6.214  0.1157  0.3118  0.0566
  116OSM    O1312094   0.425   5.594   6.124 -0.1604 -0.4658  0.4136
  116OSM    O1412095   0.662   5.634   6.211 -0.2970  0.2595  0.6361
  116OSM    O1112096   0.465   5.675   6.363 -0.0428  0.8769 -0.3206
  116OSM    O1212097   0.507   5.830   6.174  0.2818  0.2506  0.3801
  116OSM    C1S12098   0.460   5.555   6.441  0.0069  0.0110 -0.7965
  116OSM    H1S12099   0.542   5.483   6.423 -0.9547 -1.4045  0.4306
  116OSM    H1T12100   0.371   5.492   6.424  0.1199 -0.7114  1.1211
  116OSM     NF12101   0.504   5.468   6.670 -0.2986 -0.7465 -0.2895
  116OSM    HNF12102   0.443   5.400   6.709 -2.5960  1.2609 -0.3236
  116OSM    C2S12103   0.451   5.587   6.590 -0.4734 -0.1973 -0.0995
  116OSM    H2S12104   0.512   5.678   6.609 -0.0328 -0.4484 -0.2913
  116OSM    C3S12105   0.301   5.619   6.619  0.9495 -0.7589  0.1275
  116OSM    H3S12106   0.246   5.523   6.612 -0.5021 -0.0973  2.1367
  116OSM     O312107   0.253   5.724   6.537  0.0565 -0.3583 -0.4896
  116OSM    HO312108   0.319   5.732   6.467 -0.7552  4.8283 -0.8396
  116OSM    C4S12109   0.273   5.664   6.759  0.8872  0.1692  0.2840
  116OSM    H4S12110   0.355   5.729   6.792  1.2407 -0.6058  0.9558
  116OSM    C5S12111   0.164   5.625   6.838  0.3050 -0.7873 -0.4004
  116OSM    H5S12112   0.084   5.563   6.795  1.3220 -2.6741  0.3739
  116OSM    C6S12113   0.154   5.687   6.975 -0.2437 -0.2149 -0.3273
  116OSM    H6S12114   0.046   5.711   6.988 -0.0808  0.9957 -1.0926
  116OSM    H6T12115   0.197   5.790   6.972 -1.8952  0.4794 -0.8564
  116OSM    C7S12116   0.207   5.603   7.087 -0.4633 -0.3167 -0.5190
  116OSM    H7S12117   0.168   5.650   7.180 -1.0534  1.3829 -1.6053
  116OSM    H7T12118   0.317   5.608   7.074  0.2073 -0.4170  4.1743
  116OSM    C8S12119   0.173   5.447   7.094 -1.0744  0.1405 -0.1140
  116OSM    H8S12120   0.198   5.393   7.000  0.3856 -2.4526  1.6996
  116OSM    H8T12121   0.064   5.451   7.115 -0.6268  0.2322  2.3244
  116OSM    C9S12122   0.247   5.368   7.215  0.1314  0.3295  0.8371
  116OSM    H9S12123   0.345   5.333   7.176 -0.4500 -0.2281 -0.1246
  116OSM    H9T12124   0.188   5.279   7.243  3.2173 -2.3792 -0.8837
  116OSM   C10S12125   0.278   5.450   7.341 -0.8953  0.2718  0.1405
  116OSM   H10S12126   0.192   5.515   7.368 -2.0164 -0.6116 -1.2163
  116OSM   H10T12127   0.370   5.509   7.320 -0.8417  0.7635  1.6991
  116OSM   C11S12128   0.318   5.357   7.455 -0.1667  0.4315  0.3277
  116OSM   H11S12129   0.389   5.280   7.416  0.2411  0.7875  0.3631
  116OSM   H11T12130   0.233   5.290   7.479 -1.5873  2.6475  1.5892
  116OSM   C12S12131   0.366   5.425   7.580 -0.1760  0.5115  0.3902
  116OSM   H12S12132   0.292   5.498   7.619 -1.8185 -0.5390 -0.7314
  116OSM   H12T12133   0.452   5.494   7.563 -0.6691  2.0473  3.5845
  116OSM   C13S12134   0.419   5.338   7.688 -0.3759 -0.6513 -0.3731
  116OSM   H13S12135   0.498   5.268   7.654  1.3679  0.8064  0.5682
  116OSM   H13T12136   0.342   5.271   7.733  1.0074 -2.0131 -0.0013
  116OSM   C14S12137   0.471   5.412   7.807 -0.3179 -0.8142  0.8335
  116OSM   H14S12138   0.391   5.472   7.855 -0.6064 -0.5697  0.0510
  116OSM   H14T12139   0.553   5.479   7.772 -1.3761  0.2219  0.3059
  116OSM   C15S12140   0.508   5.313   7.922 -0.0456  0.7705 -0.7663
  116OSM   H15S12141   0.551   5.220   7.880 -2.3998 -0.4165 -0.6306
  116OSM   H15T12142   0.412   5.277   7.965  0.7620  1.1299  1.3926
  116OSM   C16S12143   0.590   5.389   8.025 -0.1569 -0.3124 -0.1571
  116OSM   H16S12144   0.521   5.454   8.084 -1.0275  0.1277 -1.6473
  116OSM   H16T12145   0.662   5.456   7.974 -1.0728 -0.0210 -1.0841
  116OSM   C17S12146   0.660   5.288   8.112  0.3561 -0.1850  0.5186
  116OSM   H17S12147   0.735   5.238   8.047 -0.4334  0.5986 -1.0349
  116OSM   H17T12148   0.590   5.215   8.156 -0.5208 -0.8081 -1.8193
  116OSM   C18S12149   0.727   5.347   8.237  0.3491  0.1069  0.0270
  116OSM   H18S12150   0.798   5.429   8.214  1.2167 -0.3073  1.1810
  116OSM   H18T12151   0.786   5.265   8.283 -0.3491  0.3066  1.3100
  116OSM   H18U12152   0.647   5.389   8.302 -1.0315 -1.3147 -0.7505
  116OSM    C1F12153   0.640   5.460   6.693  0.1224  0.1950 -0.2723
  116OSM     OF12154   0.718   5.543   6.649  0.1706  0.0141  0.9801
  116OSM    C2F12155   0.677   5.327   6.750  0.1215  0.0258  0.4294
  116OSM    H2F12156   0.644   5.252   6.675 -2.7978 -0.0992  1.7612
  116OSM    H2G12157   0.611   5.303   6.836  0.0358  1.6126  0.8144
  116OSM    C3F12158   0.820   5.309   6.801 -0.2154 -0.4393  0.4480
  116OSM    H3F12159   0.898   5.324   6.723 -1.1515  2.2172 -0.0262
  116OSM    H3G12160   0.831   5.205   6.837  3.6474 -0.0631  0.5294
  116OSM    C4F12161   0.861   5.396   6.928 -0.5551  0.4419  0.6297
  116OSM    H4F12162   0.791   5.365   7.009  0.3854 -0.2606  1.1906
  116OSM    H4G12163   0.866   5.505   6.909 -0.3813  0.1433 -1.1076
  116OSM    C5F12164   1.002   5.359   6.977  0.0534  0.2284 -0.1743
  116OSM    H5F12165   1.020   5.427   7.064  0.9575  0.5842 -0.6429
  116OSM    H5G12166   1.068   5.388   6.893  1.5552 -0.3289  0.8075
  116OSM    C6F12167   1.019   5.213   7.018 -0.7399 -0.0904  0.2167
  116OSM    H6F12168   1.013   5.148   6.928 -4.7126  0.8409 -0.2562
  116OSM    H6G12169   0.944   5.170   7.087 -1.7771  0.6583 -0.4370
  116OSM    C7F12170   1.151   5.187   7.093  0.1945  0.2156 -0.2378
  116OSM    H7F12171   1.166   5.253   7.181 -3.1100  1.9836 -0.9053
  116OSM    H7G12172   1.246   5.177   7.036  0.8288 -3.0962  1.3008
  116OSM    C8F12173   1.142   5.051   7.168 -0.1783 -0.3517  0.3669
  116OSM    H8F12174   1.139   4.973   7.089 -1.8396 -0.3940  0.4523
  116OSM    H8G12175   1.049   5.052   7.228  0.6977  1.1022  1.7227
  116OSM    C9F12176   1.267   5.023   7.244 -0.2965  0.5012 -0.1503
  116OSM    H9F12177   1.355   5.026   7.179  0.1068  2.1269  0.4434
  116OSM   C10F12178   1.273   5.007   7.378  0.7482  0.4628 -0.1166
  116OSM   H10F12179   1.371   4.989   7.424 -1.0281 -1.1941  3.1346
  116OSM   C11F12180   1.161   5.008   7.481 -0.1688 -0.5132  0.0410
  116OSM   H11F12181   1.138   4.901   7.500  0.1497 -1.1333 -2.8255
  116OSM   H11G12182   1.063   5.047   7.448 -0.3549  0.0294  1.2090
  116OSM   C12F12183   1.216   5.052   7.620 -0.2740 -0.1236  0.6919
  116OSM   H12F12184   1.213   5.163   7.612  0.5145 -0.1513 -0.1075
  116OSM   H12G12185   1.323   5.027   7.643  0.1451  0.3076 -0.7606
  116OSM   C13F12186   1.126   5.004   7.743 -0.0767 -0.4691 -0.1879
  116OSM   H13F12187   1.099   4.900   7.716  2.7187 -1.0894 -0.7968
  116OSM   H13G12188   1.033   5.059   7.770  1.1985  1.9101 -0.4685
  116OSM   C14F12189   1.212   5.010   7.866 -1.2391  0.7002  0.0689
  116OSM   H14F12190   1.252   5.113   7.865  0.3539  0.0923  0.1112
  116OSM   H14G12191   1.298   4.940   7.870 -1.8089  0.0462  1.4562
  116OSM   C15F12192   1.139   4.976   8.003 -0.1088  0.0705 -0.3195
  116OSM   H15F12193   1.103   4.874   7.980  1.3488 -0.8115  1.2257
  116OSM   H15G12194   1.056   5.047   8.023 -0.6385 -0.6482  0.0655
  116OSM   C16F12195   1.235   4.983   8.123 -0.1487 -0.0718 -0.2809
  116OSM   H16F12196   1.274   5.086   8.135 -2.7720  0.8002  1.0425
  116OSM   H16G12197   1.316   4.908   8.108 -0.3905 -0.2862 -0.5258
  116OSM   C17F12198   1.151   4.946   8.248 -0.0703 -0.0082 -0.4724
  116OSM   H17F12199   1.101   4.851   8.220 -2.0930  1.3293 -1.4494
  116OSM   H17G12200   1.077   5.027   8.263  1.6533  1.2956  1.1427
  116OSM   C18F12201   1.225   4.948   8.387 -0.2317 -0.3513 -0.2607
  116OSM   H18F12202   1.166   4.890   8.462 -0.3226 -1.1325 -0.9253
  116OSM   H18G12203   1.256   5.050   8.418 -0.5477  0.2068 -1.7516
  116OSM   H18H12204   1.320   4.890   8.391  1.3098  2.1841  2.4998
  117OSM      N12205   5.193   0.358   6.025 -0.7655  0.0143  0.0848
  117OSM    C1512206   5.272   0.445   5.923  0.2702  0.0716 -0.7459
  117OSM   H15A12207   5.340   0.386   5.863 -0.9898 -2.0894 -0.0913
  117OSM   H15B12208   5.340   0.506   5.980 -2.9001  1.6805  1.4687
  117OSM   H15C12209   5.203   0.508   5.867  1.3058  0.1035 -2.0069
  117OSM    C1412210   5.105   0.451   6.093  0.3977  0.7905  0.4085
  117OSM   H14A12211   5.048   0.414   6.176  1.2854 -1.0301  0.2305
  117OSM   H14B12212   5.025   0.489   6.032 -0.4976  0.4934  1.3967
  117OSM   H14C12213   5.167   0.532   6.130  2.9800 -0.9926  0.1890
  117OSM    C1312214   5.113   0.259   5.945 -0.4375 -0.3730  0.0110
  117OSM   H13A12215   5.054   0.319   5.878  1.4637  0.4552 -0.9655
  117OSM   H13B12216   5.044   0.202   6.006 -2.2911  2.4620  0.6656
  117OSM   H13C12217   5.170   0.204   5.871  0.3445  0.1318  0.2344
  117OSM    C1212218   5.285   0.288   6.124 -0.4956 -0.9725 -0.6697
  117OSM   H12A12219   5.369   0.255   6.064  0.0205 -0.0286 -0.4887
  117OSM   H12B12220   5.237   0.195   6.148 -2.3534 -0.2906 -1.6685
  117OSM    C1112221   5.324   0.360   6.256  0.6465 -0.6617  0.2575
  117OSM   H11A12222   5.360   0.297   6.340  1.9803 -1.4527 -0.8790
  117OSM   H11B12223   5.236   0.412   6.297 -0.8894 -1.0599 -2.4142
  117OSM      P12224   5.460   0.593   6.256  0.2827  0.1593 -0.0693
  117OSM    O1312225   5.584   0.637   6.194 -1.1475  0.5220 -0.4792
  117OSM    O1412226   5.336   0.667   6.226  0.4861 -0.4607 -0.0189
  117OSM    O1112227   5.476   0.599   6.415  0.3416 -0.4374 -0.0259
  117OSM    O1212228   5.429   0.445   6.216 -0.1894 -0.3131 -0.3631
  117OSM    C1S12229   5.567   0.511   6.473 -0.0066  0.1160  0.2309
  117OSM    H1S12230   5.667   0.554   6.446 -0.1924  2.0694  2.4766
  117OSM    H1T12231   5.566   0.408   6.433  1.0034  0.3980 -0.5538
  117OSM     NF12232   5.684   0.476   6.696  0.3622  0.1569 -0.3019
  117OSM    HNF12233   5.657   0.403   6.758  0.5045  1.4915  1.3555
  117OSM    C2S12234   5.561   0.513   6.627 -0.3296  0.1353  0.0579
  117OSM    H2S12235   5.539   0.619   6.652  0.4787  0.1629  0.6722
  117OSM    C3S12236   5.437   0.430   6.667 -0.7555 -0.5221 -0.5519
  117OSM    H3S12237   5.454   0.324   6.635  0.1141 -0.2652 -0.9665
  117OSM     O312238   5.320   0.459   6.588 -0.0580  0.6121  0.9014
  117OSM    HO312239   5.355   0.524   6.526  0.7153 -0.8196 -0.1841
  117OSM    C4S12240   5.409   0.437   6.813 -0.1719  0.2264 -0.3246
  117OSM    H4S12241   5.432   0.342   6.864  0.0649 -0.0572 -0.9409
  117OSM    C5S12242   5.337   0.532   6.875 -0.1659 -0.2063  0.3028
  117OSM    H5S12243   5.278   0.602   6.813  1.2931  0.4429 -0.3765
  117OSM    C6S12244   5.302   0.537   7.020 -0.0118 -0.2581 -0.6026
  117OSM    H6S12245   5.193   0.535   7.042 -0.0429  0.0665 -0.7286
  117OSM    H6T12246   5.328   0.642   7.046 -0.2155 -0.3297 -0.1049
  117OSM    C7S12247   5.377   0.441   7.112 -0.3957  0.7206 -0.6445
  117OSM    H7S12248   5.485   0.452   7.093 -0.3121  0.1556 -0.5149
  117OSM    H7T12249   5.333   0.340   7.098 -1.9358  1.1977  0.5554
  117OSM    C8S12250   5.347   0.470   7.264  0.4572  0.0656  0.0909
  117OSM    H8S12251   5.248   0.420   7.272  0.6952 -0.9819 -2.7009
  117OSM    H8T12252   5.344   0.577   7.292 -0.3732 -0.7530  3.3773
  117OSM    C9S12253   5.447   0.391   7.354  0.3679 -0.2763 -0.5884
  117OSM    H9S12254   5.550   0.417   7.323 -0.1691 -0.4271 -2.5424
  117OSM    H9T12255   5.440   0.284   7.323  1.5854 -1.5071  3.0266
  117OSM   C10S12256   5.427   0.405   7.500  0.3013 -0.2009 -0.9381
  117OSM   H10S12257   5.319   0.387   7.519  0.7440 -1.7045  0.1875
  117OSM   H10T12258   5.452   0.510   7.527  0.8273  0.0376 -2.2952
  117OSM   C11S12259   5.514   0.306   7.588 -0.1699  0.4254  0.3635
  117OSM   H11S12260   5.620   0.309   7.555 -0.2464  0.2126  0.0935
  117OSM   H11T12261   5.484   0.201   7.567  1.2062  0.4188 -1.7105
  117OSM   C12S12262   5.489   0.343   7.734  0.3122 -0.7548  0.5319
  117OSM   H12S12263   5.382   0.331   7.760  0.2380 -0.0426  0.5691
  117OSM   H12T12264   5.514   0.450   7.754 -1.6776  0.3817 -2.6291
  117OSM   C13S12265   5.584   0.258   7.826 -0.6514 -0.1069 -0.1139
  117OSM   H13S12266   5.680   0.228   7.778 -1.3411 -0.9955 -0.9482
  117OSM   H13T12267   5.537   0.159   7.836  1.7615 -1.2566  0.1995
  117OSM   C14S12268   5.604   0.321   7.967 -0.0513  0.0484  0.2689
  117OSM   H14S12269   5.673   0.407   7.965  0.3392 -0.2904 -2.3386
  117OSM   H14T12270   5.644   0.237   8.028  0.2128 -0.8024 -1.0435
  117OSM   C15S12271   5.484   0.371   8.045 -0.4846 -0.1446  0.0786
  117OSM   H15S12272   5.401   0.296   8.047 -0.7049  0.1064  0.4759
  117OSM   H15T12273   5.441   0.459   7.993 -0.5850 -0.5883 -0.5937
  117OSM   C16S12274   5.522   0.414   8.189  0.4394  0.1601  0.1519
  117OSM   H16S12275   5.618   0.468   8.176  0.8305 -0.0859  1.8802
  117OSM   H16T12276   5.543   0.323   8.250  2.6899 -1.0930 -2.3772
  117OSM   C17S12277   5.430   0.510   8.262 -0.1467  0.4613 -0.0408
  117OSM   H17S12278   5.327   0.470   8.275  0.0116  0.5785  1.6750
  117OSM   H17T12279   5.427   0.606   8.206  1.1042  1.0926  0.9533
  117OSM   C18S12280   5.488   0.542   8.400 -0.7182 -0.2585  0.3249
  117OSM   H18S12281   5.574   0.612   8.386  1.8425 -3.7447 -2.3561
  117OSM   H18T12282   5.534   0.451   8.444  0.9108  0.1542 -0.4892
  117OSM   H18U12283   5.410   0.585   8.467  1.0892  0.9009  1.7463
  117OSM    C1F12284   5.803   0.527   6.676 -0.2666  0.5555 -0.0281
  117OSM     OF12285   5.818   0.628   6.608 -0.1241 -0.1547 -0.0533
  117OSM    C2F12286   5.914   0.437   6.723 -0.3060  0.2452  0.0578
  117OSM    H2F12287   5.948   0.379   6.634 -0.6146  0.3915 -0.1569
  117OSM    H2G12288   5.880   0.363   6.799  0.0895  0.5301  0.5163
  117OSM    C3F12289   6.032   0.522   6.775 -0.2063  0.1193 -0.2626
  117OSM    H3F12290   6.054   0.591   6.691 -1.4064 -1.5153 -1.9774
  117OSM    H3G12291   6.122   0.458   6.782  0.6590  1.4357  0.7560
  117OSM    C4F12292   6.012   0.590   6.915 -0.0801  0.5932  0.5048
  117OSM    H4F12293   5.930   0.664   6.907 -0.5160  0.1328  0.6799
  117OSM    H4G12294   6.100   0.653   6.938 -0.1016  0.6190  0.5188
  117OSM    C5F12295   5.984   0.503   7.036 -0.2240  0.2707  0.0696
  117OSM    H5F12296   6.070   0.444   7.073 -2.1407 -2.9307 -0.2973
  117OSM    H5G12297   5.913   0.422   7.006  0.8010  0.3055 -2.6088
  117OSM    C6F12298   5.921   0.583   7.149 -1.2211  0.4884  0.0518
  117OSM    H6F12299   5.829   0.640   7.122 -1.4457  0.3463  0.5119
  117OSM    H6G12300   6.000   0.657   7.175  0.1245 -0.4233 -1.3522
  117OSM    C7F12301   5.889   0.504   7.277 -0.1749  0.6925  0.4051
  117OSM    H7F12302   5.971   0.430   7.284 -1.9950 -1.2604  1.4902
  117OSM    H7G12303   5.799   0.442   7.258  0.8368 -0.7939  0.4578
  117OSM    C8F12304   5.859   0.602   7.393 -0.3489  0.4189  0.2845
  117OSM    H8F12305   5.788   0.675   7.350 -1.6931  1.7756  4.4769
  117OSM    H8G12306   5.949   0.661   7.423 -1.7143  1.2820  2.8198
  117OSM    C9F12307   5.797   0.529   7.511  0.5326  0.3337  0.0091
  117OSM    H9F12308   5.706   0.471   7.489 -0.5488  1.1179  2.2683
  117OSM   C10F12309   5.829   0.539   7.638 -0.8365  0.5947 -0.5113
  117OSM   H10F12310   5.774   0.472   7.706 -2.1493  1.0199 -1.1283
  117OSM   C11F12311   5.937   0.621   7.707 -0.1361  0.0234  0.1363
  117OSM   H11F12312   5.917   0.716   7.655 -0.5142  0.6191  1.3617
  117OSM   H11G12313   6.043   0.598   7.682  0.7283  1.5804  2.2311
  117OSM   C12F12314   5.933   0.628   7.859  0.0830 -0.0842  0.2517
  117OSM   H12F12315   5.934   0.526   7.902  1.1148 -0.2994 -0.2634
  117OSM   H12G12316   5.844   0.689   7.886  0.0066 -0.5030  0.9751
  117OSM   C13F12317   6.061   0.695   7.912  0.1557  0.2875 -0.4225
  117OSM   H13F12318   6.072   0.792   7.858 -0.4916  0.3576 -0.4309
  117OSM   H13G12319   6.143   0.622   7.894  0.3706  0.0101  1.5361
  117OSM   C14F12320   6.064   0.729   8.064  0.0845 -0.0420 -0.0308
  117OSM   H14F12321   5.962   0.759   8.094 -0.1988  0.0398 -1.0585
  117OSM   H14G12322   6.133   0.813   8.084  0.1990  0.2891 -1.7699
  117OSM   C15F12323   6.099   0.614   8.156 -0.1749 -0.4062  0.0261
  117OSM   H15F12324   6.208   0.610   8.177 -0.0292  3.6970  0.4962
  117OSM   H15G12325   6.066   0.515   8.117  0.3053 -1.4592  2.2019
  117OSM   C16F12326   6.022   0.627   8.288 -0.6403 -0.1254  0.7389
  117OSM   H16F12327   6.068   0.550   8.353 -0.3550 -0.7451 -0.1894
  117OSM   H16G12328   5.917   0.592   8.276 -0.5080  0.6247 -3.7489
  117OSM   C17F12329   6.031   0.768   8.359  0.4979 -0.6818 -0.3047
  117OSM   H17F12330   6.129   0.816   8.375 -0.0055  0.2455  0.0549
  117OSM   H17G12331   5.972   0.842   8.301 -0.7212 -0.7997  0.7600
  117OSM   C18F12332   5.951   0.748   8.490  0.2484  0.5951  0.2623
  117OSM   H18F12333   5.996   0.660   8.541 -0.9646  0.5933  1.3510
  117OSM   H18G12334   5.848   0.720   8.459  1.0694  0.7513 -2.7754
  117OSM   H18H12335   5.943   0.836   8.558 -2.3392  1.2587 -0.8408
  118OSM      N12336   1.380   2.412   5.811  0.6072  0.6090 -0.5504
  118OSM    C1512337   1.376   2.515   5.697 -0.2351  0.0050  0.3312
  118OSM   H15A12338   1.298   2.589   5.709 -0.7976 -0.0670 -2.5558
  118OSM   H15B12339   1.374   2.463   5.603 -0.0444 -0.7918  0.7588
  118OSM   H15C12340   1.475   2.559   5.697 -0.9381  1.6360  0.2639
  118OSM    C1412341   1.268   2.319   5.787  0.2253 -0.3749  0.4911
  118OSM   H14A12342   1.287   2.274   5.690  1.5564  4.0108 -1.4134
  118OSM   H14B12343   1.172   2.366   5.797  0.9461  1.2047  0.2170
  118OSM   H14C12344   1.263   2.242   5.863  0.3755  0.0669  0.9514
  118OSM    C1312345   1.514   2.343   5.808 -0.1975 -0.4259 -0.0088
  118OSM   H13A12346   1.594   2.412   5.830 -1.2869  1.1825 -1.0549
  118OSM   H13B12347   1.550   2.312   5.711  1.4530 -2.1771  1.1130
  118OSM   H13C12348   1.513   2.249   5.861  2.2841  0.4835  1.7339
  118OSM    C1212349   1.354   2.486   5.940 -0.2192 -0.2680  0.4502
  118OSM   H12A12350   1.271   2.553   5.929  1.6760  2.0105 -0.2372
  118OSM   H12B12351   1.429   2.562   5.951 -0.4788 -0.2214  2.0953
  118OSM    C1112352   1.358   2.392   6.064  0.0269  0.2794 -0.4990
  118OSM   H11A12353   1.446   2.325   6.074 -0.8559 -0.7565  0.3687
  118OSM   H11B12354   1.271   2.324   6.057  0.0280  0.3192 -0.9589
  118OSM      P12355   1.223   2.552   6.212 -0.1815  0.1235  0.1345
  118OSM    O1312356   1.232   2.686   6.155 -0.8933  0.3834 -0.6638
  118OSM    O1412357   1.108   2.477   6.162  0.3103 -0.0512  0.1671
  118OSM    O1112358   1.223   2.554   6.375 -0.1017 -0.7131 -0.6247
  118OSM    O1212359   1.360   2.478   6.178  0.4247  0.2239  0.0996
  118OSM    C1S12360   1.267   2.444   6.444  0.1758 -0.0259  0.1070
  118OSM    H1S12361   1.343   2.383   6.390 -1.4583 -2.3431  0.3102
  118OSM    H1T12362   1.187   2.377   6.482 -1.7104  1.7059 -0.7683
  118OSM     NF12363   1.374   2.381   6.658 -0.0243  0.7645  0.9115
  118OSM    HNF12364   1.346   2.372   6.753 -0.2255  2.6117  1.0526
  118OSM    C2S12365   1.339   2.498   6.578 -0.1048 -0.0713  0.5348
  118OSM    H2S12366   1.434   2.552   6.559  1.0355 -1.8096  1.1370
  118OSM    C3S12367   1.248   2.587   6.665 -0.1146  0.8092 -0.3979
  118OSM    H3S12368   1.168   2.518   6.701  0.2811 -0.1727 -1.3961
  118OSM     O312369   1.188   2.694   6.586  0.1674 -0.3559  0.4492
  118OSM    HO312370   1.187   2.662   6.496  0.1794 -0.6853  0.5641
  118OSM    C4S12371   1.331   2.630   6.785  0.9007 -0.1202  0.3025
  118OSM    H4S12372   1.364   2.553   6.856 -1.0960  0.7382  2.1998
  118OSM    C5S12373   1.362   2.756   6.813 -0.3768 -0.3546  0.1517
  118OSM    H5S12374   1.315   2.838   6.756  0.2612 -0.9007 -1.1704
  118OSM    C6S12375   1.439   2.800   6.938 -0.2793 -0.5925 -0.0600
  118OSM    H6S12376   1.449   2.910   6.925  0.5546 -0.6442  0.1127
  118OSM    H6T12377   1.543   2.763   6.930  0.5144  1.5139  0.3450
  118OSM    C7S12378   1.366   2.760   7.062 -1.3044 -0.5236 -0.5918
  118OSM    H7S12379   1.366   2.650   7.078 -2.3336 -0.5756 -0.8819
  118OSM    H7T12380   1.260   2.794   7.063 -1.0818  0.2617 -2.0694
  118OSM    C8S12381   1.440   2.815   7.192  0.3457  0.0075 -0.0481
  118OSM    H8S12382   1.448   2.926   7.188  0.0880  0.0189 -0.2481
  118OSM    H8T12383   1.538   2.764   7.210 -0.8496 -2.6693 -0.8936
  118OSM    C9S12384   1.354   2.758   7.304  0.3942 -0.0276  0.0572
  118OSM    H9S12385   1.343   2.648   7.311 -0.9506  0.0501 -0.6195
  118OSM    H9T12386   1.248   2.790   7.293 -0.4281 -3.2559 -2.2461
  118OSM   C10S12387   1.405   2.821   7.439 -0.7757  0.2940 -0.7440
  118OSM   H10S12388   1.386   2.931   7.442 -3.6904 -0.2198  0.6727
  118OSM   H10T12389   1.513   2.799   7.454 -1.0118 -0.2834  0.1088
  118OSM   C11S12390   1.332   2.766   7.559 -0.3258  0.9282 -0.1146
  118OSM   H11S12391   1.345   2.656   7.567 -0.1063  0.9683  0.0944
  118OSM   H11T12392   1.225   2.790   7.540 -0.0198  1.0554 -1.7374
  118OSM   C12S12393   1.388   2.810   7.694  0.5217 -0.2977 -0.3960
  118OSM   H12S12394   1.400   2.921   7.695 -0.3152 -0.2117  1.2450
  118OSM   H12T12395   1.485   2.759   7.709 -0.4498 -2.1934 -0.4559
  118OSM   C13S12396   1.289   2.772   7.803  0.5290  1.1933 -0.1900
  118OSM   H13S12397   1.296   2.661   7.805  0.0804  1.1679  0.1824
  118OSM   H13T12398   1.186   2.802   7.774 -0.1662 -1.1078 -0.2170
  118OSM   C14S12399   1.322   2.833   7.944 -0.5750  0.2921 -1.0850
  118OSM   H14S12400   1.255   2.790   8.022 -1.2086 -0.4907 -2.0382
  118OSM   H14T12401   1.332   2.943   7.947  0.8605  0.1432  0.3594
  118OSM   C15S12402   1.465   2.777   7.988  0.2228 -0.1711 -0.4876
  118OSM   H15S12403   1.544   2.827   7.928  0.1723 -0.4117 -0.7561
  118OSM   H15T12404   1.458   2.668   7.968  0.0445 -0.1243 -0.6867
  118OSM   C16S12405   1.491   2.794   8.138 -0.1848 -0.5549 -0.1853
  118OSM   H16S12406   1.403   2.754   8.194  0.7668 -3.8274 -0.9144
  118OSM   H16T12407   1.492   2.904   8.157  1.3380 -0.5841 -0.0816
  118OSM   C17S12408   1.625   2.728   8.189  0.4826  0.3118 -0.2529
  118OSM   H17S12409   1.706   2.788   8.143  0.9661 -0.0023  0.1920
  118OSM   H17T12410   1.627   2.622   8.156  3.8403  0.0501  0.6293
  118OSM   C18S12411   1.640   2.757   8.337  0.9521  0.2428  0.3282
  118OSM   H18S12412   1.745   2.733   8.362  1.8140  1.6983 -1.8422
  118OSM   H18T12413   1.566   2.696   8.393 -1.6735  2.7139 -0.2976
  118OSM   H18U12414   1.633   2.863   8.369 -0.0665 -0.0960  1.2735
  118OSM    C1F12415   1.478   2.306   6.618 -0.2971  1.0903 -0.5908
  118OSM     OF12416   1.550   2.345   6.532 -0.2347  0.5471  0.1157
  118OSM    C2F12417   1.503   2.179   6.678  0.1236  0.3974  0.0712
  118OSM    H2F12418   1.581   2.121   6.624 -1.8311 -0.4987 -1.8672
  118OSM    H2G12419   1.415   2.112   6.667 -1.0196  2.1804 -1.9478
  118OSM    C3F12420   1.532   2.182   6.834  0.3103 -0.5408 -0.3239
  118OSM    H3F12421   1.458   2.250   6.881 -2.2098 -1.8955 -2.2003
  118OSM    H3G12422   1.638   2.216   6.844  0.4217 -1.1800  0.7501
  118OSM    C4F12423   1.521   2.034   6.883 -0.4160 -0.1610 -0.3135
  118OSM    H4F12424   1.576   1.970   6.811 -1.5565 -2.5870  0.8920
  118OSM    H4G12425   1.413   2.009   6.881 -1.0671  2.5896 -1.4619
  118OSM    C5F12426   1.567   2.005   7.027  0.0674  0.0451  1.2437
  118OSM    H5F12427   1.499   2.064   7.092 -1.6264 -0.5374  0.0247
  118OSM    H5G12428   1.671   2.042   7.045  0.4205 -0.5229  0.4250
  118OSM    C6F12429   1.552   1.854   7.060  0.4110  0.3883 -0.4162
  118OSM    H6F12430   1.633   1.799   7.006 -0.7700 -0.5075 -1.3068
  118OSM    H6G12431   1.453   1.814   7.029  1.1544 -1.6481 -0.2007
  118OSM    C7F12432   1.570   1.822   7.209  0.2420 -0.1707 -0.2703
  118OSM    H7F12433   1.643   1.895   7.251  0.0097 -1.5210  2.5446
  118OSM    H7G12434   1.618   1.722   7.215 -0.2411 -0.4766 -1.3393
  118OSM    C8F12435   1.443   1.844   7.299  0.1682  0.3153  0.0744
  118OSM    H8F12436   1.391   1.934   7.262 -0.0789 -0.1030 -0.6021
  118OSM    H8G12437   1.484   1.865   7.400 -0.0136  0.2635  0.1604
  118OSM    C9F12438   1.359   1.716   7.291 -0.0341 -0.0562 -0.0386
  118OSM    H9F12439   1.378   1.662   7.197 -2.3686 -1.8110  0.4437
  118OSM   C10F12440   1.290   1.647   7.384  0.0523 -0.6301  0.3466
  118OSM   H10F12441   1.233   1.556   7.360 -2.2083 -0.6782  5.1596
  118OSM   C11F12442   1.270   1.702   7.530 -0.1567  0.3180 -0.6508
  118OSM   H11F12443   1.173   1.672   7.577  1.0317  0.8579  2.2221
  118OSM   H11G12444   1.275   1.813   7.537 -1.8753  0.3536  0.2936
  118OSM   C12F12445   1.372   1.655   7.626  0.2370 -0.5740 -0.2049
  118OSM   H12F12446   1.476   1.684   7.602  0.1499 -1.6479 -1.9799
  118OSM   H12G12447   1.373   1.544   7.616  1.4510 -0.4635 -1.4433
  118OSM   C13F12448   1.335   1.693   7.776  0.3155 -0.0234  0.1596
  118OSM   H13F12449   1.421   1.665   7.841 -0.4364 -0.1775  1.1085
  118OSM   H13G12450   1.257   1.622   7.809 -0.1604  0.9078  1.0670
  118OSM   C14F12451   1.290   1.841   7.802 -1.0066  0.3528  0.1642
  118OSM   H14F12452   1.186   1.847   7.762 -1.5241 -0.2577  1.3828
  118OSM   H14G12453   1.356   1.906   7.741 -1.9096  1.0960 -0.0253
  118OSM   C15F12454   1.287   1.885   7.951  1.1393  0.8475  0.5516
  118OSM   H15F12455   1.266   1.993   7.965 -0.1994  0.3877  2.3685
  118OSM   H15G12456   1.390   1.876   7.992  0.4590 -0.3358  2.0804
  118OSM   C16F12457   1.186   1.809   8.032 -0.1517 -0.0366  0.1376
  118OSM   H16F12458   1.211   1.703   8.010  0.3714  0.2578 -0.7387
  118OSM   H16G12459   1.083   1.821   7.993 -0.0688 -2.4440 -0.9365
  118OSM   C17F12460   1.176   1.832   8.177 -0.1129 -0.1052 -0.0790
  118OSM   H17F12461   1.268   1.809   8.234  0.8915  3.4257 -0.1495
  118OSM   H17G12462   1.098   1.778   8.235 -1.9563 -1.4680 -3.6630
  118OSM   C18F12463   1.155   1.983   8.215 -0.0360 -0.0214  0.5828
  118OSM   H18F12464   1.244   2.040   8.182 -0.5609  0.0260 -0.7943
  118OSM   H18G12465   1.153   1.994   8.325  0.0330  1.6393  0.4390
  118OSM   H18H12466   1.058   2.021   8.175  0.5475 -1.0486 -1.9334
  119OSM      N12467   3.403   1.503   6.024 -0.5191 -0.7229 -0.3259
  119OSM    C1512468   3.511   1.550   5.933 -0.4134 -0.9248  0.1554
  119OSM   H15A12469   3.578   1.469   5.910  0.2596 -0.4019  0.2627
  119OSM   H15B12470   3.567   1.625   5.987 -0.0656 -1.8643  1.1104
  119OSM   H15C12471   3.471   1.585   5.839 -0.4812 -2.1025 -0.2641
  119OSM    C1412472   3.337   1.379   5.966  0.0460 -0.2182 -0.5206
  119OSM   H14A12473   3.250   1.359   6.028  0.9148  2.4036  1.6469
  119OSM   H14B12474   3.409   1.299   5.967  2.2866  1.7385  1.0641
  119OSM   H14C12475   3.308   1.400   5.865 -0.3833  1.4167 -0.0697
  119OSM    C1312476   3.472   1.442   6.151 -0.4594  0.2866  0.3711
  119OSM   H13A12477   3.397   1.388   6.207 -1.3294  0.8460 -0.2333
  119OSM   H13B12478   3.511   1.516   6.219  2.2577 -0.2008 -0.5850
  119OSM   H13C12479   3.552   1.375   6.125  0.8723  2.7670 -2.2064
  119OSM    C1212480   3.311   1.622   6.058 -0.1328 -0.1237  0.3476
  119OSM   H12A12481   3.273   1.660   5.964  1.6769 -3.4909 -1.8570
  119OSM   H12B12482   3.369   1.700   6.105  0.7518 -1.1722  1.0049
  119OSM    C1112483   3.196   1.600   6.162  0.0196 -0.0841  0.0793
  119OSM   H11A12484   3.147   1.686   6.212  1.7667  1.1746 -0.3063
  119OSM   H11B12485   3.238   1.551   6.253  1.3080  0.1030 -0.3942
  119OSM      P12486   2.976   1.561   6.028 -0.1445  0.1110  0.2549
  119OSM    O1312487   3.020   1.655   5.925  0.2695 -0.2001  0.5487
  119OSM    O1412488   2.895   1.447   5.984  0.1630  0.2996 -0.0470
  119OSM    O1112489   2.895   1.643   6.133 -0.0729 -0.3304 -0.2465
  119OSM    O1212490   3.101   1.503   6.106  0.7620  0.0816 -0.0334
  119OSM    C1S12491   2.849   1.576   6.250  0.6831 -0.4007 -0.2689
  119OSM    H1S12492   2.919   1.503   6.295 -0.1421 -1.2803 -0.3716
  119OSM    H1T12493   2.764   1.507   6.226  1.3760 -1.9047  1.4828
  119OSM     NF12494   2.758   1.603   6.477 -0.0222 -0.0527 -0.2642
  119OSM    HNF12495   2.660   1.613   6.497 -0.8178 -1.1374 -3.4405
  119OSM    C2S12496   2.813   1.672   6.362 -0.5786  0.0794 -0.3190
  119OSM    H2S12497   2.905   1.728   6.392  0.1127 -1.2621  0.1104
  119OSM    C3S12498   2.720   1.778   6.306  0.2482 -0.4262  0.6947
  119OSM    H3S12499   2.628   1.726   6.275 -0.1292 -0.8103  2.4265
  119OSM     O312500   2.766   1.851   6.185 -0.2278 -0.1753 -0.5774
  119OSM    HO312501   2.841   1.797   6.162  0.1695 -0.7548  1.9067
  119OSM    C4S12502   2.683   1.874   6.417  0.4763 -0.2052 -0.1187
  119OSM    H4S12503   2.758   1.946   6.453 -0.6324  0.6741  0.4671
  119OSM    C5S12504   2.563   1.871   6.480 -0.1314  0.2076 -0.1746
  119OSM    H5S12505   2.493   1.786   6.469  1.7368 -1.3687 -0.1479
  119OSM    C6S12506   2.532   1.962   6.601 -0.3895 -0.2508  0.3371
  119OSM    H6S12507   2.424   1.989   6.607  0.2548  2.8499 -1.1283
  119OSM    H6T12508   2.586   2.059   6.592 -2.1868  0.8090  0.7516
  119OSM    C7S12509   2.577   1.890   6.737  0.0595  0.0413  0.2382
  119OSM    H7S12510   2.687   1.884   6.728  0.0183  0.5732 -0.8323
  119OSM    H7T12511   2.529   1.793   6.761 -0.6088  0.3192  0.0620
  119OSM    C8S12512   2.539   1.980   6.856  1.0362  0.0117  0.1349
  119OSM    H8S12513   2.437   2.020   6.841  0.2121 -2.4017 -1.0156
  119OSM    H8T12514   2.612   2.062   6.870 -0.4480  1.4889 -0.6522
  119OSM    C9S12515   2.537   1.905   6.983  0.0439 -0.1424 -0.0311
  119OSM    H9S12516   2.643   1.874   6.998 -0.1739 -0.7127  0.3919
  119OSM    H9T12517   2.480   1.810   6.971 -0.8471  0.0608  2.2866
  119OSM   C10S12518   2.494   1.989   7.105  0.1596 -0.1825  1.0189
  119OSM   H10S12519   2.384   1.983   7.120  0.3962 -0.3773  2.8191
  119OSM   H10T12520   2.529   2.094   7.093 -0.5894  0.2470  2.4158
  119OSM   C11S12521   2.558   1.946   7.231 -0.3371 -0.4070  0.6810
  119OSM   H11S12522   2.661   1.982   7.211  0.0879 -1.1304  1.5235
  119OSM   H11T12523   2.553   1.835   7.235  0.1948 -0.4772 -0.4244
  119OSM   C12S12524   2.487   2.008   7.348 -0.2103 -0.2206 -0.4791
  119OSM   H12S12525   2.379   2.001   7.320 -0.3650  0.3104 -0.0302
  119OSM   H12T12526   2.507   2.117   7.345 -0.7246  0.0567  3.4842
  119OSM   C13S12527   2.524   1.952   7.493 -1.6036  0.0208  1.1306
  119OSM   H13S12528   2.609   2.004   7.543 -2.4805  1.8977  0.6969
  119OSM   H13T12529   2.567   1.852   7.473  0.4578  1.2543 -0.8293
  119OSM   C14S12530   2.392   1.945   7.576  0.0529  0.3833 -0.2570
  119OSM   H14S12531   2.329   1.858   7.547 -1.5830  0.6569  2.2570
  119OSM   H14T12532   2.336   2.039   7.557 -0.4054 -0.1576 -1.6447
  119OSM   C15S12533   2.414   1.930   7.731 -0.1159  0.0428 -0.1563
  119OSM   H15S12534   2.494   2.003   7.758  2.3279 -2.4864 -0.3571
  119OSM   H15T12535   2.450   1.828   7.755  0.3779  0.4829  1.0438
  119OSM   C16S12536   2.288   1.934   7.811  0.0129 -0.0019  0.3136
  119OSM   H16S12537   2.209   1.866   7.774  1.7325 -1.3402 -0.9767
  119OSM   H16T12538   2.241   2.034   7.813 -3.0900 -1.4005  3.4315
  119OSM   C17S12539   2.298   1.896   7.955  0.5493 -0.0906  1.2236
  119OSM   H17S12540   2.388   1.945   7.999  1.1750 -2.0222  2.1534
  119OSM   H17T12541   2.312   1.786   7.961 -0.9449 -0.3054  0.8589
  119OSM   C18S12542   2.178   1.944   8.039 -0.0089 -0.3217  0.1497
  119OSM   H18S12543   2.217   1.951   8.143 -0.5343  3.2856  0.1620
  119OSM   H18T12544   2.099   1.866   8.032 -0.7837  0.6445 -2.2214
  119OSM   H18U12545   2.136   2.041   8.007 -0.0791 -0.4480 -0.1319
  119OSM    C1F12546   2.835   1.518   6.543  0.4154  0.5326  0.1764
  119OSM     OF12547   2.950   1.485   6.509 -0.0385  0.2036 -0.4866
  119OSM    C2F12548   2.768   1.446   6.655  0.7685  0.2922 -1.0426
  119OSM    H2F12549   2.728   1.345   6.630  0.6887  0.0433  0.0323
  119OSM    H2G12550   2.683   1.509   6.687  0.6386  0.9108 -2.5719
  119OSM    C3F12551   2.842   1.425   6.789 -0.2390 -0.1091 -0.6228
  119OSM    H3F12552   2.945   1.385   6.774 -0.9669 -2.1895 -0.1324
  119OSM    H3G12553   2.784   1.359   6.857  2.0167 -2.8895 -1.2969
  119OSM    C4F12554   2.864   1.558   6.854  0.5345  0.6858  0.0443
  119OSM    H4F12555   2.767   1.611   6.863  0.1016 -0.0949 -0.0442
  119OSM    H4G12556   2.934   1.615   6.788  0.7213  0.9483  0.4638
  119OSM    C5F12557   2.941   1.540   6.984 -0.1802  0.4745  0.2120
  119OSM    H5F12558   3.017   1.462   6.962  0.9833  1.6468 -0.0158
  119OSM    H5G12559   2.873   1.500   7.062 -0.5656  0.5747 -0.0714
  119OSM    C6F12560   3.008   1.668   7.039 -0.2589 -0.2079 -0.3652
  119OSM    H6F12561   2.947   1.717   7.117  0.5088 -0.3238  0.3092
  119OSM    H6G12562   3.030   1.744   6.960  1.5171 -1.1518 -0.8101
  119OSM    C7F12563   3.152   1.638   7.100  0.7696  0.5947  0.1634
  119OSM    H7F12564   3.196   1.599   7.005  0.4156 -0.0002  0.2408
  119OSM    H7G12565   3.151   1.565   7.183  0.9512  0.6752  0.2360
  119OSM    C8F12566   3.232   1.760   7.147 -1.0387 -0.3356 -0.0003
  119OSM    H8F12567   3.170   1.824   7.214 -0.6548 -0.1273  0.1571
  119OSM    H8G12568   3.254   1.818   7.055 -0.1809 -0.8252 -0.1113
  119OSM    C9F12569   3.355   1.713   7.215 -0.2165  0.0348  0.1040
  119OSM    H9F12570   3.432   1.669   7.149  1.5572  2.4198  0.5215
  119OSM   C10F12571   3.373   1.679   7.342 -0.2058 -0.1998  0.6840
  119OSM   H10F12572   3.477   1.646   7.358 -0.4126 -1.1208  0.1913
  119OSM   C11F12573   3.278   1.689   7.455 -0.1438  0.0249  0.9152
  119OSM   H11F12574   3.278   1.592   7.510  0.7750  1.0357  2.7447
  119OSM   H11G12575   3.179   1.719   7.415 -0.2018 -0.7500  0.4699
  119OSM   C12F12576   3.328   1.786   7.563  0.2334  0.6091  0.3992
  119OSM   H12F12577   3.339   1.884   7.512  1.2108  0.3816  0.1823
  119OSM   H12G12578   3.428   1.756   7.600  0.3800  2.6291  1.7238
  119OSM   C13F12579   3.229   1.780   7.683  1.0918 -0.0297 -0.0116
  119OSM   H13F12580   3.207   1.673   7.705  0.7321 -0.0124 -0.2710
  119OSM   H13G12581   3.132   1.825   7.653  2.0085  0.3067 -2.6084
  119OSM   C14F12582   3.287   1.847   7.811 -0.2241 -0.6123 -0.4172
  119OSM   H14F12583   3.307   1.955   7.792 -2.2841 -0.1900 -0.3544
  119OSM   H14G12584   3.382   1.795   7.835 -0.0166  0.6606  1.7611
  119OSM   C15F12585   3.199   1.828   7.933  0.1115  0.5232  0.2267
  119OSM   H15F12586   3.204   1.721   7.964  1.0480 -0.1733 -2.1703
  119OSM   H15G12587   3.096   1.858   7.902  0.6248  0.5793 -1.5096
  119OSM   C16F12588   3.256   1.903   8.046  0.2466 -0.6458 -0.4896
  119OSM   H16F12589   3.293   2.004   8.015  3.1765 -0.7684  2.3271
  119OSM   H16G12590   3.349   1.859   8.090  0.3801 -2.4618 -2.4942
  119OSM   C17F12591   3.158   1.919   8.158 -0.5776 -0.1553  1.1560
  119OSM   H17F12592   3.126   1.822   8.201  1.1569 -0.8436  0.9295
  119OSM   H17G12593   3.062   1.952   8.113  0.5322  0.1527 -1.0898
  119OSM   C18F12594   3.206   2.019   8.268 -0.4903 -0.5239 -0.0689
  119OSM   H18F12595   3.303   1.981   8.304  0.4744 -0.0961 -2.1665
  119OSM   H18G12596   3.136   2.024   8.355 -1.2740 -0.3677 -0.6983
  119OSM   H18H12597   3.220   2.118   8.219 -0.0029 -0.3211  0.4760
  120OSM      N12598   0.426   6.644   6.747 -0.0968  0.4957  0.0632
  120OSM    C1512599   0.334   6.762   6.756  0.3352  0.6469  0.4913
  120OSM   H15A12600   0.392   6.848   6.785 -0.5957  2.3971 -2.6123
  120OSM   H15B12601   0.255   6.746   6.827  0.7631 -2.1462  0.4220
  120OSM   H15C12602   0.282   6.796   6.667 -0.8928 -0.5167  0.7569
  120OSM    C1412603   0.461   6.606   6.886 -0.1121 -0.8814  0.2397
  120OSM   H14A12604   0.376   6.591   6.951  1.0768 -3.2975  1.3244
  120OSM   H14B12605   0.519   6.687   6.927 -0.0833 -0.9136  0.2628
  120OSM   H14C12606   0.516   6.513   6.886 -1.7510 -1.8987  2.5006
  120OSM    C1312607   0.345   6.526   6.701 -0.8209 -0.5112  0.1282
  120OSM   H13A12608   0.408   6.442   6.675  0.0863  0.6555 -1.5463
  120OSM   H13B12609   0.287   6.539   6.611 -0.6738 -1.1592 -0.0608
  120OSM   H13C12610   0.271   6.494   6.773  0.7355 -0.0010  1.9899
  120OSM    C1212611   0.542   6.680   6.654  0.3544  0.4287  0.5987
  120OSM   H12A12612   0.601   6.753   6.707 -0.5284 -0.9140  3.5157
  120OSM   H12B12613   0.495   6.733   6.571 -2.8791 -1.6593  1.0184
  120OSM    C1112614   0.640   6.577   6.608  0.1828 -0.9928  0.0238
  120OSM   H11A12615   0.698   6.538   6.695  3.6705 -0.0976 -1.8470
  120OSM   H11B12616   0.718   6.624   6.545 -0.8834  0.6615 -0.1078
  120OSM      P12617   0.632   6.342   6.499  0.2320  0.0716  0.3506
  120OSM    O1312618   0.568   6.297   6.375  0.4763  0.3478 -0.0789
  120OSM    O1412619   0.780   6.348   6.495 -0.1417  0.2465 -0.1943
  120OSM    O1112620   0.588   6.251   6.623 -0.2529  0.8344  0.5994
  120OSM    O1212621   0.570   6.478   6.534 -0.1048 -0.3525  0.2893
  120OSM    C1S12622   0.665   6.261   6.744 -0.0643 -0.5743 -1.5351
  120OSM    H1S12623   0.662   6.364   6.786 -0.0985 -1.5800  1.0402
  120OSM    H1T12624   0.772   6.232   6.739  0.7020  1.9418 -0.4841
  120OSM     NF12625   0.688   6.163   6.959  0.1721  0.3396 -0.1970
  120OSM    HNF12626   0.759   6.097   6.935 -2.5226 -1.6660 -3.1133
  120OSM    C2S12627   0.603   6.170   6.852 -0.3428 -0.0633  0.8098
  120OSM    H2S12628   0.510   6.226   6.877 -0.7063  0.7261 -2.0311
  120OSM    C3S12629   0.571   6.032   6.781 -0.5043 -0.0323 -0.8462
  120OSM    H3S12630   0.662   5.988   6.735 -1.5584 -1.8689 -1.1890
  120OSM     O312631   0.464   6.034   6.693  0.3146  0.1177  0.3527
  120OSM    HO312632   0.468   6.114   6.640 -1.0683  0.7955  1.2549
  120OSM    C4S12633   0.545   5.925   6.890 -0.0970 -0.0458  0.4920
  120OSM    H4S12634   0.439   5.924   6.918 -0.5282  1.2647 -0.9918
  120OSM    C5S12635   0.629   5.822   6.930  0.2556  0.5800  0.6993
  120OSM    H5S12636   0.731   5.809   6.892  0.0051  1.5696 -0.3409
  120OSM    C6S12637   0.590   5.716   7.031 -0.2010 -0.3997  0.5453
  120OSM    H6S12638   0.611   5.616   6.988  3.1636  0.3919  0.2567
  120OSM    H6T12639   0.482   5.726   7.055  0.0145 -0.7160  1.6830
  120OSM    C7S12640   0.657   5.729   7.165 -0.4564 -0.3370 -0.2404
  120OSM    H7S12641   0.616   5.659   7.241 -0.8885  0.4518  0.2569
  120OSM    H7T12642   0.618   5.823   7.209 -2.1009 -0.1995 -1.9511
  120OSM    C8S12643   0.819   5.712   7.168  0.7212 -0.7799  0.4924
  120OSM    H8S12644   0.872   5.782   7.099  0.4201 -0.8017  0.2385
  120OSM    H8T12645   0.846   5.613   7.126 -3.2148 -1.4715 -0.6201
  120OSM    C9S12646   0.870   5.720   7.319  0.8681  0.3286 -0.0565
  120OSM    H9S12647   0.977   5.691   7.317  0.4283 -1.3753  0.2724
  120OSM    H9T12648   0.816   5.636   7.369 -0.1941  0.6731 -0.6092
  120OSM   C10S12649   0.858   5.855   7.379  0.2153 -0.6352 -0.1227
  120OSM   H10S12650   0.756   5.896   7.362  0.7128  0.9320  0.5491
  120OSM   H10T12651   0.916   5.919   7.308 -1.2118  0.9907  0.1421
  120OSM   C11S12652   0.896   5.874   7.520 -0.0976 -0.0542 -0.5081
  120OSM   H11S12653   0.818   5.821   7.579 -1.2276  1.3134 -0.7356
  120OSM   H11T12654   0.890   5.982   7.545 -3.1614 -0.7243  1.8953
  120OSM   C12S12655   1.035   5.823   7.556  0.3430  0.7826 -0.1278
  120OSM   H12S12656   1.117   5.868   7.496 -0.5046  0.4939 -1.5109
  120OSM   H12T12657   1.040   5.712   7.549  2.1266  0.8185  0.1821
  120OSM   C13S12658   1.074   5.844   7.708 -0.5799  0.3661 -0.1871
  120OSM   H13S12659   1.008   5.790   7.779 -1.2880 -0.0713 -1.1527
  120OSM   H13T12660   1.060   5.951   7.735  0.8594  0.2580  1.0329
  120OSM   C14S12661   1.214   5.798   7.750 -0.3932  0.6339 -0.4960
  120OSM   H14S12662   1.290   5.839   7.680 -0.7389  1.6445 -0.2846
  120OSM   H14T12663   1.218   5.688   7.736 -1.6000  0.6812 -1.3293
  120OSM   C15S12664   1.252   5.854   7.890  0.2409  0.0154  0.2529
  120OSM   H15S12665   1.177   5.811   7.960 -0.5741 -0.9717 -1.2121
  120OSM   H15T12666   1.249   5.965   7.889 -0.3191  0.0188  1.5878
  120OSM   C16S12667   1.401   5.819   7.919  0.1354  0.1902 -0.7327
  120OSM   H16S12668   1.473   5.883   7.865  1.4404 -1.6555 -1.2511
  120OSM   H16T12669   1.423   5.716   7.882  2.4331  1.1001 -2.0001
  120OSM   C17S12670   1.434   5.810   8.064  0.0068 -0.5238 -0.2441
  120OSM   H17S12671   1.513   5.735   8.086 -1.5486 -1.9616  0.5413
  120OSM   H17T12672   1.349   5.778   8.128  0.2293 -2.5300 -0.9123
  120OSM   C18S12673   1.490   5.946   8.119  0.0530  0.6523 -0.4767
  120OSM   H18S12674   1.503   5.935   8.228 -0.5722 -0.3164 -0.4871
  120OSM   H18T12675   1.406   6.017   8.108  0.8135  1.6664  0.2015
  120OSM   H18U12676   1.582   5.979   8.066  1.1018  1.8618  2.0368
  120OSM    C1F12677   0.708   6.276   7.034  0.1313  0.7679  0.2448
  120OSM     OF12678   0.627   6.369   7.036  0.1110 -0.5107  0.0679
  120OSM    C2F12679   0.844   6.282   7.115 -0.1666  0.4070  0.0116
  120OSM    H2F12680   0.929   6.321   7.055 -1.8573  1.5237 -1.7474
  120OSM    H2G12681   0.864   6.176   7.140 -0.3171  0.4341  0.2511
  120OSM    C3F12682   0.840   6.373   7.244  0.4429 -0.4786 -0.3043
  120OSM    H3F12683   0.754   6.343   7.308 -1.2585 -1.3174 -2.9331
  120OSM    H3G12684   0.825   6.477   7.208  2.0952 -1.0416 -2.7203
  120OSM    C4F12685   0.958   6.356   7.346 -0.1931  0.2126 -0.2459
  120OSM    H4F12686   1.046   6.394   7.290 -1.6999  2.9085 -0.8651
  120OSM    H4G12687   0.982   6.251   7.376  1.7346  0.4185 -0.9812
  120OSM    C5F12688   0.945   6.424   7.484 -0.6847  0.3097  1.1552
  120OSM    H5F12689   0.931   6.533   7.465  0.7884  0.5215  1.2717
  120OSM    H5G12690   1.051   6.425   7.516 -0.9856  0.6160  2.1325
  120OSM    C6F12691   0.855   6.362   7.597  0.0734 -0.2180  0.0964
  120OSM    H6F12692   0.902   6.261   7.590  0.5798 -0.0159  0.5506
  120OSM    H6G12693   0.747   6.357   7.572  0.0343 -2.1435  0.5836
  120OSM    C7F12694   0.860   6.428   7.736  0.4862  0.4108 -0.0870
  120OSM    H7F12695   0.788   6.376   7.802  0.3042 -0.5288 -1.0162
  120OSM    H7G12696   0.828   6.534   7.727 -1.0927 -0.1345 -1.1786
  120OSM    C8F12697   1.001   6.433   7.793 -0.0708  0.0770 -0.1776
  120OSM    H8F12698   1.004   6.524   7.857 -1.4866  1.4303 -1.9931
  120OSM    H8G12699   1.071   6.459   7.710  0.6354  0.6240  0.5729
  120OSM    C9F12700   1.040   6.300   7.862  0.6639  1.0613 -0.2152
  120OSM    H9F12701   1.109   6.239   7.801  0.1146  0.4962 -0.2771
  120OSM   C10F12702   1.001   6.265   7.987 -0.1914 -0.2742 -0.3062
  120OSM   H10F12703   1.014   6.159   8.014  1.8032  0.6756  2.6698
  120OSM   C11F12704   0.916   6.344   8.080 -0.4416 -0.4873 -0.4340
  120OSM   H11F12705   0.807   6.330   8.066 -0.8452  0.9164  1.1989
  120OSM   H11G12706   0.935   6.448   8.045 -1.7607 -0.3322 -0.6878
  120OSM   C12F12707   0.964   6.332   8.222 -0.0344 -0.7523 -0.4014
  120OSM   H12F12708   0.940   6.228   8.253 -1.6665 -1.0841 -2.6980
  120OSM   H12G12709   0.914   6.403   8.291 -0.4890  0.6558 -2.1540
  120OSM   C13F12710   1.115   6.365   8.239  0.5914 -0.8567  0.4754
  120OSM   H13F12711   1.120   6.474   8.218  0.6981 -1.1518 -1.0650
  120OSM   H13G12712   1.174   6.313   8.161 -0.5803 -2.9732  0.9785
  120OSM   C14F12713   1.188   6.341   8.372 -0.4624 -0.6447  0.0103
  120OSM   H14F12714   1.155   6.398   8.462 -0.4006 -1.6078  0.6623
  120OSM   H14G12715   1.293   6.370   8.349 -0.7948  1.5144  1.0766
  120OSM   C15F12716   1.183   6.193   8.404  0.1065 -0.1809  0.2721
  120OSM   H15F12717   1.224   6.134   8.319 -0.3748 -0.3174  0.1360
  120OSM   H15G12718   1.080   6.158   8.425 -0.0547 -0.9361 -1.6970
  120OSM   C16F12719   1.285   6.179   8.521  0.4301 -0.2142  0.4547
  120OSM   H16F12720   1.261   6.239   8.611  1.0189 -0.2793  0.6587
  120OSM   H16G12721   1.365   6.242   8.476  0.0973  0.2283  0.4787
  120OSM   C17F12722   1.323   6.035   8.548 -0.3655 -0.2550  0.4186
  120OSM   H17F12723   1.354   5.996   8.449 -2.5836 -0.4233 -0.2456
  120OSM   H17G12724   1.235   5.975   8.582  0.4638 -1.0860  1.1452
  120OSM   C18F12725   1.449   6.020   8.636  0.2420 -0.1211 -0.3693
  120OSM   H18F12726   1.536   6.078   8.599  0.4202  0.2129  0.5751
  120OSM   H18G12727   1.482   5.916   8.616  0.6191 -0.0735  0.0148
  120OSM   H18H12728   1.424   6.038   8.743 -0.4838 -0.2557 -0.5094
  121OSM      N12729   2.104   0.728   5.868 -0.2008  1.0411 -0.3352
  121OSM    C1512730   2.195   0.821   5.791  0.8193  0.5007 -0.8533
  121OSM   H15A12731   2.240   0.768   5.707 -0.8193 -0.6130 -1.0500
  121OSM   H15B12732   2.279   0.846   5.855  2.8545 -2.7145 -2.1079
  121OSM   H15C12733   2.141   0.909   5.761 -0.5939 -0.1944 -0.3785
  121OSM    C1412734   1.991   0.676   5.781  0.8217 -0.1936  0.5440
  121OSM   H14A12735   2.027   0.668   5.680  0.9697 -1.2452  0.6740
  121OSM   H14B12736   1.906   0.742   5.787  0.1298 -0.7142 -2.7706
  121OSM   H14C12737   1.952   0.581   5.813 -0.6259 -0.5349 -2.1045
  121OSM    C1312738   2.175   0.599   5.899  0.7227 -0.1480 -0.2021
  121OSM   H13A12739   2.105   0.522   5.927  1.0514 -0.4360 -0.1662
  121OSM   H13B12740   2.260   0.620   5.962  1.2268  1.5725 -1.4095
  121OSM   H13C12741   2.216   0.553   5.810  0.0421 -0.3373 -0.4213
  121OSM    C1212742   2.050   0.780   6.000 -0.0887 -0.0756 -0.1760
  121OSM   H12A12743   1.992   0.703   6.048 -0.3484  1.2545  1.7060
  121OSM   H12B12744   1.970   0.851   5.986 -0.1258  0.0388  0.5653
  121OSM    C1112745   2.153   0.825   6.114 -1.0589 -0.3881  0.3568
  121OSM   H11A12746   2.235   0.750   6.123 -0.0042  0.9290  1.9169
  121OSM   H11B12747   2.102   0.833   6.212 -1.7772 -2.0145  0.1480
  121OSM      P12748   2.199   1.082   6.136 -0.2282 -0.0521  0.4720
  121OSM    O1312749   2.297   1.175   6.080 -0.0589 -0.4902  0.1447
  121OSM    O1412750   2.058   1.116   6.111  0.6579 -0.2157  0.1810
  121OSM    O1112751   2.211   1.084   6.290  0.6957 -0.0482  0.0845
  121OSM    O1212752   2.230   0.947   6.085 -0.1177  0.1330  1.0761
  121OSM    C1S12753   2.327   1.024   6.352  0.0474  0.7982 -0.6198
  121OSM    H1S12754   2.413   1.059   6.291  1.4277  0.3878  1.0492
  121OSM    H1T12755   2.335   0.917   6.322 -1.9554  0.5607 -0.3398
  121OSM     NF12756   2.462   1.012   6.562 -0.2023  1.0401 -0.2446
  121OSM    HNF12757   2.468   0.932   6.622  0.9354 -0.2817 -2.0554
  121OSM    C2S12758   2.334   1.043   6.501 -0.5872  0.2135  0.0444
  121OSM    H2S12759   2.317   1.152   6.519  0.3235  0.7757 -2.3306
  121OSM    C3S12760   2.205   0.975   6.574  0.2930  0.5868  0.5241
  121OSM    H3S12761   2.207   0.864   6.577 -0.7589  0.5664  0.5961
  121OSM     O312762   2.085   1.005   6.510  0.0192 -0.0345 -0.6489
  121OSM    HO312763   2.126   1.058   6.441  0.8981 -1.2369 -1.0651
  121OSM    C4S12764   2.189   1.022   6.713  0.1081 -0.1264  0.1463
  121OSM    H4S12765   2.161   1.128   6.720 -0.4741 -0.3070  0.5565
  121OSM    C5S12766   2.222   0.954   6.817 -0.2365 -0.4192 -1.2609
  121OSM    H5S12767   2.248   0.847   6.809  1.4289 -0.2231  0.8958
  121OSM    C6S12768   2.203   1.000   6.961 -0.2970 -0.5004  0.2833
  121OSM    H6S12769   2.138   0.919   7.001 -0.9956 -1.0026 -1.8314
  121OSM    H6T12770   2.148   1.095   6.978  0.5931  0.0924 -0.1107
  121OSM    C7S12771   2.342   1.005   7.037  0.1040  0.6319 -0.6449
  121OSM    H7S12772   2.413   1.075   6.987  3.2159 -0.5511  1.9623
  121OSM    H7T12773   2.395   0.908   7.034 -1.0062  0.0469 -1.8099
  121OSM    C8S12774   2.334   1.042   7.193  0.7609  0.6118  0.7061
  121OSM    H8S12775   2.278   0.970   7.256  2.3994  1.6974  3.5127
  121OSM    H8T12776   2.267   1.131   7.201  1.4263  1.2974 -1.1989
  121OSM    C9S12777   2.469   1.074   7.255  0.3812  0.0732  0.3178
  121OSM    H9S12778   2.536   1.147   7.204  1.7294 -0.2076  1.6367
  121OSM    H9T12779   2.531   0.983   7.241  0.4858  0.7588 -4.6018
  121OSM   C10S12780   2.455   1.117   7.404 -0.1992 -0.4862 -0.4605
  121OSM   H10S12781   2.410   1.032   7.460  1.9614 -1.1146  0.3760
  121OSM   H10T12782   2.385   1.202   7.414 -0.8424 -1.2659  1.9931
  121OSM   C11S12783   2.584   1.142   7.484 -0.0701  0.3339  0.1716
  121OSM   H11S12784   2.630   1.236   7.446 -1.7395  0.6027 -1.2346
  121OSM   H11T12785   2.646   1.055   7.453  0.7517 -0.0210  2.7126
  121OSM   C12S12786   2.557   1.147   7.638 -0.7757  0.7217 -0.0910
  121OSM   H12S12787   2.511   1.052   7.673  0.4770  0.2502  0.3342
  121OSM   H12T12788   2.478   1.224   7.652  0.4288  1.3045  4.1845
  121OSM   C13S12789   2.690   1.155   7.714 -0.7393  0.1197  0.1003
  121OSM   H13S12790   2.748   1.248   7.698 -0.3107 -0.1888 -0.1696
  121OSM   H13T12791   2.764   1.085   7.670  0.4448  0.7529  1.0753
  121OSM   C14S12792   2.687   1.122   7.862 -0.3103 -0.3141  0.6489
  121OSM   H14S12793   2.789   1.144   7.898 -0.1117 -0.3385  0.1146
  121OSM   H14T12794   2.665   1.014   7.878 -1.7210 -0.1794 -0.2930
  121OSM   C15S12795   2.588   1.205   7.942 -0.1016  0.4496 -0.0871
  121OSM   H15S12796   2.599   1.170   8.047  0.2986  0.0050 -0.2721
  121OSM   H15T12797   2.491   1.176   7.897 -0.3002 -0.3330  0.8273
  121OSM   C16S12798   2.606   1.357   7.934  0.1416 -0.7332 -0.2225
  121OSM   H16S12799   2.589   1.385   7.828 -1.2181  0.1005  0.2084
  121OSM   H16T12800   2.712   1.386   7.953  0.3521 -1.5809 -0.0588
  121OSM   C17S12801   2.509   1.439   8.027 -1.1891 -0.2469 -0.1878
  121OSM   H17S12802   2.404   1.406   8.012 -1.3164  0.9785 -2.2209
  121OSM   H17T12803   2.508   1.546   7.998 -0.7088 -0.4432 -0.9219
  121OSM   C18S12804   2.535   1.420   8.177 -0.3912 -0.2439 -0.1100
  121OSM   H18S12805   2.620   1.483   8.211 -0.5756  0.4838 -0.9898
  121OSM   H18T12806   2.559   1.313   8.196  1.2596  0.2248  0.5591
  121OSM   H18U12807   2.438   1.437   8.228  0.0843  2.1588  0.0310
  121OSM    C1F12808   2.580   1.058   6.539  0.1758  0.1386  0.1185
  121OSM     OF12809   2.591   1.131   6.442  0.8093  1.1650  0.4536
  121OSM    C2F12810   2.702   1.012   6.616 -0.0672 -0.1114 -0.3538
  121OSM    H2F12811   2.788   1.062   6.567 -0.5725  0.2693 -0.8632
  121OSM    H2G12812   2.712   0.901   6.612 -0.3375 -0.1979  0.9162
  121OSM    C3F12813   2.709   1.054   6.767  0.3067  0.4850 -0.1147
  121OSM    H3F12814   2.649   0.984   6.829 -0.4350  1.5227  0.3581
  121OSM    H3G12815   2.673   1.158   6.779 -2.0032 -0.3354  0.2550
  121OSM    C4F12816   2.853   1.048   6.829  1.1499 -0.1328 -0.2948
  121OSM    H4F12817   2.906   1.139   6.795  0.2229  0.7061  0.4740
  121OSM    H4G12818   2.914   0.963   6.791 -0.1138 -1.3465  0.3488
  121OSM    C5F12819   2.856   1.035   6.980 -0.2231 -0.0197  0.3163
  121OSM    H5F12820   2.954   0.994   7.015 -0.6203 -0.4834  0.9019
  121OSM    H5G12821   2.784   0.956   7.012  0.3517 -0.5477  0.3150
  121OSM    C6F12822   2.803   1.159   7.054 -0.0650 -0.9763  0.1611
  121OSM    H6F12823   2.697   1.168   7.022  0.0486  1.4616  0.3745
  121OSM    H6G12824   2.854   1.250   7.017 -3.1668  1.1121  0.8652
  121OSM    C7F12825   2.811   1.157   7.204 -0.0823  0.0649  0.1301
  121OSM    H7F12826   2.761   1.062   7.235  0.0270  0.1346  0.5136
  121OSM    H7G12827   2.751   1.238   7.249  0.5376  0.2098  0.6900
  121OSM    C8F12828   2.956   1.154   7.264 -0.4284 -0.0991  0.2261
  121OSM    H8F12829   3.006   1.251   7.243 -2.2136  0.3566 -2.1070
  121OSM    H8G12830   3.014   1.072   7.215 -0.2891 -0.6478  1.3027
  121OSM    C9F12831   2.953   1.130   7.415 -0.3870  0.3085 -0.3878
  121OSM    H9F12832   2.928   1.030   7.453 -0.2818 -0.7208 -2.9188
  121OSM   C10F12833   2.985   1.222   7.514  0.1200 -0.1374 -0.4902
  121OSM   H10F12834   2.993   1.198   7.621  1.3884  1.9139 -0.0741
  121OSM   C11F12835   3.020   1.366   7.483  0.2994  0.4000 -0.0091
  121OSM   H11F12836   2.995   1.395   7.379 -1.6682 -1.7481 -0.1565
  121OSM   H11G12837   3.130   1.385   7.491  0.2862  0.5433 -0.1737
  121OSM   C12F12838   2.958   1.470   7.577 -0.8371 -0.1041  0.4870
  121OSM   H12F12839   3.002   1.571   7.558 -1.4687  0.6247  2.7233
  121OSM   H12G12840   2.980   1.444   7.683  0.9114  2.0838  0.7038
  121OSM   C13F12841   2.807   1.483   7.561 -0.0851  0.1892 -0.1365
  121OSM   H13F12842   2.752   1.388   7.548 -1.7254  1.3542 -2.1231
  121OSM   H13G12843   2.795   1.548   7.471  1.1102 -0.7767 -1.0246
  121OSM   C14F12844   2.738   1.561   7.679 -0.5424  0.1162  0.0224
  121OSM   H14F12845   2.747   1.494   7.767  1.4468  0.9587  0.4900
  121OSM   H14G12846   2.632   1.589   7.665 -0.4378 -0.0630 -1.1818
  121OSM   C15F12847   2.804   1.698   7.720  0.1149 -0.7902 -0.6199
  121OSM   H15F12848   2.775   1.767   7.638 -1.4752 -0.1602  0.4573
  121OSM   H15G12849   2.912   1.683   7.739 -0.1261 -1.2355  0.4236
  121OSM   C16F12850   2.738   1.756   7.849 -0.9928 -0.8047 -0.1832
  121OSM   H16F12851   2.789   1.700   7.930 -0.6045  0.9265  0.7881
  121OSM   H16G12852   2.628   1.736   7.848 -1.2645  0.4950  1.0853
  121OSM   C17F12853   2.783   1.905   7.880  0.3502 -0.1419 -0.3511
  121OSM   H17F12854   2.733   1.970   7.804  0.0140  0.5912  0.4977
  121OSM   H17G12855   2.893   1.924   7.874  0.1423  1.2417 -0.1040
  121OSM   C18F12856   2.735   1.958   8.019  0.1681 -0.5405  0.4040
  121OSM   H18F12857   2.772   1.891   8.099  0.9198 -1.2097 -0.4832
  121OSM   H18G12858   2.624   1.955   8.016  0.1908  0.0731 -2.6898
  121OSM   H18H12859   2.780   2.057   8.041  2.2243 -1.0307 -1.4018
  122OSM      N12860   0.705   2.679   6.146  0.4129 -0.5033  0.7556
  122OSM    C1512861   0.653   2.545   6.180 -0.0716  1.1877  0.1837
  122OSM   H15A12862   0.732   2.473   6.172 -0.6172  0.6799 -0.6619
  122OSM   H15B12863   0.573   2.517   6.113 -0.4515  2.1462  0.2201
  122OSM   H15C12864   0.612   2.543   6.280  0.2491  1.4334  0.3216
  122OSM    C1412865   0.593   2.784   6.144 -0.6289  0.3395 -0.1406
  122OSM   H14A12866   0.635   2.880   6.117 -0.5295  0.4087  0.2566
  122OSM   H14B12867   0.547   2.778   6.241  0.1418 -2.6859  0.0862
  122OSM   H14C12868   0.515   2.751   6.077 -0.4585  0.7712 -0.5558
  122OSM    C1312869   0.811   2.721   6.244 -1.1801  0.5611 -0.6221
  122OSM   H13A12870   0.774   2.680   6.337 -0.7995  1.3611 -0.1117
  122OSM   H13B12871   0.821   2.828   6.249 -1.9151  0.5246  3.0862
  122OSM   H13C12872   0.900   2.660   6.232 -0.3488  1.9361 -1.4908
  122OSM    C1212873   0.751   2.689   6.002 -0.1503  0.2955 -0.1994
  122OSM   H12A12874   0.677   2.654   5.932  1.0703  0.0376 -1.3943
  122OSM   H12B12875   0.837   2.623   5.994  2.3309  3.1766  1.4571
  122OSM    C1112876   0.793   2.824   5.937 -0.5880  0.5377  0.0279
  122OSM   H11A12877   0.695   2.872   5.917 -0.0505  1.9251  0.7402
  122OSM   H11B12878   0.839   2.797   5.839 -0.6974 -0.2864  0.1970
  122OSM      P12879   0.870   3.050   6.047 -0.0441 -0.0944 -0.4069
  122OSM    O1312880   0.894   3.119   5.914  0.8931 -0.0707  0.1870
  122OSM    O1412881   0.738   3.070   6.116 -0.0830  0.1744 -0.6898
  122OSM    O1112882   0.988   3.094   6.142  0.0028  0.2995  0.1701
  122OSM    O1212883   0.885   2.896   6.015 -0.3730  0.0738  0.2429
  122OSM    C1S12884   1.073   2.992   6.198 -0.2282  0.3200 -0.2510
  122OSM    H1S12885   1.158   2.977   6.127  0.9131  0.3018  1.1103
  122OSM    H1T12886   1.026   2.892   6.214 -0.0791  0.2511 -0.2428
  122OSM     NF12887   1.243   2.949   6.384  0.3052  0.2733  0.1023
  122OSM    HNF12888   1.226   2.877   6.451 -1.1526  0.2313 -0.2929
  122OSM    C2S12889   1.130   3.036   6.337  0.4061  0.4255  0.1145
  122OSM    H2S12890   1.167   3.140   6.321  0.3552  0.3082 -0.8298
  122OSM    C3S12891   1.011   3.042   6.444 -0.0644 -0.6634  0.0637
  122OSM    H3S12892   0.954   2.947   6.448 -1.6069  0.1607 -1.7730
  122OSM     O312893   0.913   3.136   6.408 -0.5406 -0.4101  1.0499
  122OSM    HO312894   0.937   3.169   6.321 -1.3456 -0.0688  0.9488
  122OSM    C4S12895   1.064   3.075   6.575 -0.2726  0.3177  0.2824
  122OSM    H4S12896   1.023   3.003   6.647 -0.0047 -1.3480 -1.1937
  122OSM    C5S12897   1.117   3.190   6.625  0.8433 -0.1735 -0.0127
  122OSM    H5S12898   1.115   3.276   6.556 -2.7011 -0.4861 -0.3616
  122OSM    C6S12899   1.156   3.225   6.772 -0.0323 -0.3509 -0.1167
  122OSM    H6S12900   1.101   3.314   6.808 -1.0908 -1.5448  1.2625
  122OSM    H6T12901   1.265   3.233   6.789  0.1274 -0.3142 -1.1495
  122OSM    C7S12902   1.120   3.113   6.871 -0.2622 -0.0568 -0.5515
  122OSM    H7S12903   1.178   3.020   6.858  1.1664  0.8521 -0.7866
  122OSM    H7T12904   1.012   3.104   6.846  0.0318  0.0747 -1.9422
  122OSM    C8S12905   1.131   3.156   7.017 -0.9078 -0.0893 -0.0572
  122OSM    H8S12906   1.091   3.256   7.043  0.4470  0.7195 -1.0177
  122OSM    H8T12907   1.241   3.156   7.034 -0.7912  2.2913 -0.6866
  122OSM    C9S12908   1.065   3.055   7.121 -0.8829 -0.2234  0.3219
  122OSM    H9S12909   1.107   2.955   7.097 -1.6482  0.0384 -2.3243
  122OSM    H9T12910   0.957   3.063   7.096 -1.3917  1.3895  2.9223
  122OSM   C10S12911   1.102   3.096   7.266  0.0531 -0.3528 -0.3897
  122OSM   H10S12912   1.092   3.206   7.268  1.4697 -0.2422  1.6489
  122OSM   H10T12913   1.210   3.077   7.282 -0.2528  1.5791  5.0536
  122OSM   C11S12914   1.019   3.033   7.382  0.2634 -0.6413 -0.1045
  122OSM   H11S12915   1.031   2.923   7.381  0.5082 -0.6225  0.9936
  122OSM   H11T12916   0.914   3.050   7.351  1.2305  2.8015 -1.8626
  122OSM   C12S12917   1.059   3.090   7.527 -0.9420 -0.5043  0.0865
  122OSM   H12S12918   1.061   3.201   7.531 -0.1632 -0.5457  0.7853
  122OSM   H12T12919   1.164   3.057   7.541 -0.5669 -0.0626 -1.5706
  122OSM   C13S12920   0.991   3.024   7.646 -0.3828 -0.0900 -0.1346
  122OSM   H13S12921   1.000   2.913   7.640 -1.9451 -0.1960 -0.8920
  122OSM   H13T12922   0.881   3.039   7.634 -0.1510  0.7226 -1.3391
  122OSM   C14S12923   1.038   3.096   7.773  0.0273 -0.0872  0.2413
  122OSM   H14S12924   1.019   3.205   7.761 -0.0914 -0.1356 -0.0225
  122OSM   H14T12925   1.146   3.077   7.786  0.0979 -1.5034 -2.1338
  122OSM   C15S12926   0.978   3.044   7.902 -0.7046 -0.4155  0.8341
  122OSM   H15S12927   1.034   3.084   7.989 -1.2400 -0.9896  1.4468
  122OSM   H15T12928   1.002   2.935   7.903 -0.5923 -0.3935  2.4493
  122OSM   C16S12929   0.827   3.072   7.914  0.1819  0.1797 -0.0547
  122OSM   H16S12930   0.776   3.068   7.816 -0.1235 -2.3632  0.1851
  122OSM   H16T12931   0.821   3.176   7.954  0.0060 -0.0670  0.5730
  122OSM   C17S12932   0.755   2.978   8.002 -0.8741 -0.1167 -0.8772
  122OSM   H17S12933   0.756   2.870   7.978 -0.4166 -0.2497 -0.2607
  122OSM   H17T12934   0.646   3.002   8.002 -0.4389  2.0276  1.9344
  122OSM   C18S12935   0.803   3.007   8.142 -0.1085 -0.1563  0.2634
  122OSM   H18S12936   0.912   2.989   8.144 -0.3635 -1.7491  1.2321
  122OSM   H18T12937   0.732   2.952   8.208 -0.9850  0.9624  0.2681
  122OSM   H18U12938   0.781   3.111   8.175 -0.5801 -0.7794  1.9554
  122OSM    C1F12939   1.366   2.954   6.333 -0.7570  0.3756 -0.1265
  122OSM     OF12940   1.397   3.037   6.252  0.7732 -0.5018  0.1643
  122OSM    C2F12941   1.467   2.846   6.373  0.4095  0.3402  0.2230
  122OSM    H2F12942   1.503   2.802   6.277 -0.5087  1.7582 -0.7886
  122OSM    H2G12943   1.401   2.761   6.403 -0.2513  1.1455  1.0691
  122OSM    C3F12944   1.577   2.894   6.466 -0.1555  0.1746 -0.1632
  122OSM    H3F12945   1.536   2.962   6.544  0.6758  1.4783 -0.8362
  122OSM    H3G12946   1.654   2.954   6.413 -0.1642 -0.0931 -0.4762
  122OSM    C4F12947   1.645   2.780   6.541 -0.4695 -0.3402  0.0685
  122OSM    H4F12948   1.701   2.714   6.472 -0.6753 -1.8373  1.3054
  122OSM    H4G12949   1.569   2.713   6.587  0.8185 -1.1629  1.0469
  122OSM    C5F12950   1.752   2.818   6.655 -0.2380 -0.0504 -0.8116
  122OSM    H5F12951   1.700   2.871   6.738 -0.6388 -1.3027 -0.2320
  122OSM    H5G12952   1.826   2.886   6.609 -1.0891  2.2139  1.0550
  122OSM    C6F12953   1.827   2.700   6.718 -0.1075 -0.2269  0.3145
  122OSM    H6F12954   1.896   2.746   6.792 -2.0077 -0.2773  2.1719
  122OSM    H6G12955   1.876   2.653   6.630 -0.4823 -0.4457  0.2206
  122OSM    C7F12956   1.738   2.602   6.805  0.7045 -0.0196 -0.2632
  122OSM    H7F12957   1.641   2.601   6.752  0.6629 -2.4404 -0.1961
  122OSM    H7G12958   1.724   2.649   6.905  2.9154  0.5620 -0.2032
  122OSM    C8F12959   1.790   2.465   6.821 -0.1236 -0.8741 -0.3580
  122OSM    H8F12960   1.822   2.411   6.730 -0.7342 -1.0679 -0.4626
  122OSM    H8G12961   1.703   2.406   6.857 -0.4109 -0.4845 -0.4088
  122OSM    C9F12962   1.913   2.471   6.913 -0.5207 -0.3605  0.2201
  122OSM    H9F12963   2.009   2.472   6.858  0.5309 -0.8492  1.9812
  122OSM   C10F12964   1.907   2.448   7.053 -0.0259 -0.6704 -0.1668
  122OSM   H10F12965   1.998   2.439   7.115 -1.7339  0.9627  2.7058
  122OSM   C11F12966   1.777   2.400   7.118 -0.3389  0.3661  0.1510
  122OSM   H11F12967   1.733   2.318   7.056 -1.0800  0.3303  0.7091
  122OSM   H11G12968   1.704   2.479   7.147 -4.0653 -2.4110 -1.2302
  122OSM   C12F12969   1.812   2.321   7.247 -0.1039 -0.2594 -0.0399
  122OSM   H12F12970   1.898   2.253   7.227  1.0524  1.1008  0.2531
  122OSM   H12G12971   1.724   2.259   7.275 -0.5605  1.2422  1.9120
  122OSM   C13F12972   1.842   2.417   7.364  0.3010 -0.7399  0.6211
  122OSM   H13F12973   1.761   2.492   7.346  0.5027 -1.0346 -1.6568
  122OSM   H13G12974   1.940   2.468   7.358  0.0175 -0.0164  1.8644
  122OSM   C14F12975   1.849   2.351   7.503 -0.3317 -0.0076  0.2907
  122OSM   H14F12976   1.941   2.291   7.488  0.7915  2.0385 -1.2834
  122OSM   H14G12977   1.770   2.274   7.518 -0.4544  0.1319  0.3516
  122OSM   C15F12978   1.862   2.435   7.622  0.4459 -1.2054  0.0410
  122OSM   H15F12979   1.798   2.527   7.624 -0.7214 -1.9634 -1.8083
  122OSM   H15G12980   1.966   2.473   7.629 -0.6819  2.1053  0.1432
  122OSM   C16F12981   1.823   2.358   7.752  0.6515  0.2565 -0.2887
  122OSM   H16F12982   1.901   2.282   7.775 -0.3042 -0.2644  1.2708
  122OSM   H16G12983   1.721   2.317   7.742  0.6096  0.5338 -1.0101
  122OSM   C17F12984   1.817   2.450   7.881 -0.1437  0.4249 -0.9800
  122OSM   H17F12985   1.750   2.536   7.860 -1.1171  0.4710  2.0445
  122OSM   H17G12986   1.920   2.487   7.900 -0.1826 -0.3338  0.8657
  122OSM   C18F12987   1.777   2.367   8.003  0.1398 -0.1208 -0.2621
  122OSM   H18F12988   1.832   2.271   7.998  0.7696  0.2896 -1.1808
  122OSM   H18G12989   1.667   2.352   8.010  0.0411 -0.3942 -2.2096
  122OSM   H18H12990   1.793   2.425   8.096 -0.1813 -0.6092  0.1031
  123OSM      N12991   0.029   6.076   6.638 -0.4493  0.2310  0.0401
  123OSM    C1512992   0.060   6.067   6.785 -0.0440  0.2771  0.4607
  123OSM   H15A12993  -0.010   5.998   6.829  0.2308  0.5407  1.3168
  123OSM   H15B12994   0.050   6.163   6.832  1.3604  1.6286 -1.8847
  123OSM   H15C12995   0.166   6.047   6.785 -0.1072 -0.7701 -4.2260
  123OSM    C1412996  -0.106   6.147   6.617 -0.2755  0.3791 -0.5114
  123OSM   H14A12997  -0.159   6.174   6.707 -1.9609  3.4849 -2.3160
  123OSM   H14B12998  -0.183   6.093   6.565 -0.2429 -0.0541 -0.1116
  123OSM   H14C12999  -0.089   6.245   6.575  0.8068  0.5116  0.2211
  123OSM    C1313000   0.131   6.156   6.577  0.3363  0.1140  0.4657
  123OSM   H13A13001   0.091   6.189   6.482  0.9688  2.3548  0.9492
  123OSM   H13B13002   0.233   6.120   6.577  0.6880  1.0887  1.9098
  123OSM   H13C13003   0.138   6.245   6.637 -0.4220 -0.8152  1.9876
  123OSM    C1213004   0.019   5.938   6.570 -0.0326  1.1104 -0.2598
  123OSM   H12A13005   0.115   5.901   6.535 -0.1591  2.1298 -1.7223
  123OSM   H12B13006  -0.039   5.955   6.481 -0.8441  1.2123  0.2794
  123OSM    C1113007  -0.059   5.826   6.650 -0.0417  0.1357  0.6651
  123OSM   H11A13008  -0.002   5.808   6.743  0.3682 -0.1688  0.3581
  123OSM   H11B13009  -0.053   5.730   6.593 -1.8176 -0.6427  1.7546
  123OSM      P13010  -0.315   5.773   6.608  0.2995  0.1079 -0.1419
  123OSM    O1313011  -0.436   5.858   6.588 -0.5328 -0.5436 -0.3188
  123OSM    O1413012  -0.263   5.713   6.483 -0.0137 -0.1927  0.4229
  123OSM    O1113013  -0.351   5.657   6.716 -0.9202 -0.3231 -0.5322
  123OSM    O1213014  -0.199   5.860   6.674 -0.5715 -0.1659  0.5539
  123OSM    C1S13015  -0.283   5.640   6.832 -0.5114 -0.6293 -0.4322
  123OSM    H1S13016  -0.197   5.709   6.848 -0.5139 -0.7315  0.0330
  123OSM    H1T13017  -0.234   5.540   6.831  1.7061  0.4344 -1.5967
  123OSM     NF13018  -0.300   5.627   7.075  0.0675  0.4476 -0.0626
  123OSM    HNF13019  -0.330   5.552   7.133 -0.4371 -1.3467 -2.5661
  123OSM    C2S13020  -0.376   5.656   6.955 -0.7065 -0.6485  0.0414
  123OSM    H2S13021  -0.411   5.762   6.962  0.2058 -0.4360  1.7186
  123OSM    C3S13022  -0.501   5.577   6.933 -0.0219  0.4489 -0.2814
  123OSM    H3S13023  -0.467   5.474   6.908 -2.4824 -0.4665  0.0711
  123OSM     O313024  -0.588   5.623   6.829 -0.4473 -0.1597 -0.5849
  123OSM    HO313025  -0.533   5.677   6.772 -0.3780  1.1801  0.7035
  123OSM    C4S13026  -0.577   5.572   7.066  0.3827  0.2707  0.5767
  123OSM    H4S13027  -0.531   5.511   7.145  2.7077 -0.0240 -0.9682
  123OSM    C5S13028  -0.690   5.650   7.096 -0.1977  0.0028 -0.6595
  123OSM    H5S13029  -0.731   5.727   7.029  0.9475  1.7940  0.6186
  123OSM    C6S13030  -0.768   5.641   7.225  0.0591 -0.2004 -0.2685
  123OSM    H6S13031  -0.867   5.599   7.199  1.0018 -1.8839 -1.1719
  123OSM    H6T13032  -0.781   5.741   7.272  1.0682  0.1838 -0.8074
  123OSM    C7S13033  -0.714   5.550   7.336  0.3153 -0.4998  0.1990
  123OSM    H7S13034  -0.621   5.593   7.380 -0.2127  0.2999  0.5554
  123OSM    H7T13035  -0.698   5.450   7.291 -0.2802 -0.1908 -0.7115
  123OSM    C8S13036  -0.814   5.525   7.445  0.2481 -0.2045 -0.2047
  123OSM    H8S13037  -0.898   5.469   7.399  0.3831 -0.6657  0.1078
  123OSM    H8T13038  -0.848   5.618   7.496  1.8247 -1.1507  2.7192
  123OSM    C9S13039  -0.759   5.438   7.558 -0.1848 -0.0260  0.1219
  123OSM    H9S13040  -0.669   5.493   7.596  0.4717 -0.8480 -0.2301
  123OSM    H9T13041  -0.716   5.346   7.512  0.0188 -0.0447  0.3537
  123OSM   C10S13042  -0.858   5.401   7.664 -0.0075  0.1915  0.2387
  123OSM   H10S13043  -0.953   5.359   7.623 -0.9191 -0.5918  3.0944
  123OSM   H10T13044  -0.884   5.487   7.729  2.5396  1.9791 -1.0168
  123OSM   C11S13045  -0.803   5.292   7.767  0.2900 -0.1266 -0.7109
  123OSM   H11S13046  -0.729   5.341   7.833 -1.5463  1.2072  0.4215
  123OSM   H11T13047  -0.764   5.204   7.712  0.4241 -1.1841  1.0536
  123OSM   C12S13048  -0.916   5.240   7.865 -0.2912  1.1038  0.2681
  123OSM   H12S13049  -0.949   5.143   7.822 -0.0652  0.6298  1.1490
  123OSM   H12T13050  -0.995   5.318   7.875  1.2083  2.8186 -1.1006
  123OSM   C13S13051  -0.874   5.205   8.009 -0.2822 -1.5063  0.5522
  123OSM   H13S13052  -0.856   5.301   8.062  0.7312 -2.2379  1.5701
  123OSM   H13T13053  -0.793   5.130   7.998  1.0269 -0.2550  1.4763
  123OSM   C14S13054  -0.987   5.132   8.085 -0.8404 -0.1086  0.2778
  123OSM   H14S13055  -0.998   5.035   8.032 -2.0537 -1.0376  2.1990
  123OSM   H14T13056  -1.086   5.181   8.079  0.6592  3.3300  1.9627
  123OSM   C15S13057  -0.936   5.102   8.218  0.2797  0.9174  0.2553
  123OSM   H15S13058  -0.915   5.191   8.281 -2.7815  0.5728  1.8761
  123OSM   H15T13059  -0.836   5.053   8.215 -0.1490  0.0750 -0.5496
  123OSM   C16S13060  -1.039   5.038   8.314  0.1207 -0.5555 -0.3906
  123OSM   H16S13061  -1.079   4.943   8.274 -0.1626  0.0543 -1.5702
  123OSM   H16T13062  -1.131   5.100   8.322 -0.0010 -0.8885  1.0404
  123OSM   C17S13063  -0.995   5.003   8.460 -0.0218 -0.2313 -0.4182
  123OSM   H17S13064  -1.085   4.950   8.496  1.5831 -1.2162  2.3135
  123OSM   H17T13065  -0.965   5.092   8.521 -1.0009 -0.2882  0.1538
  123OSM   C18S13066  -0.872   4.917   8.465  0.2924  0.4726  0.2642
  123OSM   H18S13067  -0.794   4.980   8.419 -0.3575  1.1402  0.0673
  123OSM   H18T13068  -0.882   4.824   8.405 -0.3692  0.6885  0.0326
  123OSM   H18U13069  -0.842   4.890   8.568 -1.1541  0.0097  0.5871
  123OSM    C1F13070  -0.202   5.708   7.122  0.5142 -0.4313 -0.4489
  123OSM     OF13071  -0.164   5.812   7.067 -0.0533 -0.2602  0.5877
  123OSM    C2F13072  -0.149   5.665   7.252  0.1500 -0.4770  0.0829
  123OSM    H2F13073  -0.077   5.581   7.248 -0.8851 -1.3167 -1.4579
  123OSM    H2G13074  -0.240   5.626   7.301 -0.6895 -2.0764 -2.6653
  123OSM    C3F13075  -0.098   5.791   7.327  0.0864  0.1386 -1.5479
  123OSM    H3F13076  -0.181   5.848   7.373  0.3118 -2.7246  2.6636
  123OSM    H3G13077  -0.034   5.851   7.259  2.2583  0.7894  0.9839
  123OSM    C4F13078  -0.002   5.754   7.442 -0.3010  0.3800  0.4639
  123OSM    H4F13079   0.090   5.815   7.434 -0.2552  0.2388 -0.1112
  123OSM    H4G13080   0.030   5.648   7.432 -1.0268  0.3185 -1.3684
  123OSM    C5F13081  -0.070   5.769   7.572  0.6450 -0.3413 -0.6791
  123OSM    H5F13082  -0.175   5.732   7.578  0.1689  0.8443 -1.3989
  123OSM    H5G13083  -0.084   5.879   7.576 -0.6878 -0.4708 -1.3044
  123OSM    C6F13084   0.009   5.712   7.687  0.1143  0.2607 -0.5537
  123OSM    H6F13085   0.105   5.766   7.701  0.7281 -0.3727 -2.2187
  123OSM    H6G13086   0.035   5.608   7.660  2.0873  0.4887  0.4450
  123OSM    C7F13087  -0.062   5.695   7.822 -0.1406 -0.2768 -0.0397
  123OSM    H7F13088  -0.136   5.618   7.794  0.0854 -1.6267  2.9046
  123OSM    H7G13089  -0.101   5.797   7.844 -0.1577 -0.4748  0.8862
  123OSM    C8F13090   0.037   5.641   7.929 -0.8768  0.6473  0.4906
  123OSM    H8F13091   0.103   5.563   7.887  0.4842  1.7294  0.5859
  123OSM    H8G13092  -0.027   5.608   8.013 -1.0805  0.8975  0.4366
  123OSM    C9F13093   0.128   5.747   7.983  0.6102 -0.2294 -0.3036
  123OSM    H9F13094   0.115   5.850   7.949  0.9825  0.4614  1.6083
  123OSM   C10F13095   0.227   5.732   8.069 -0.3371 -0.0840 -0.2843
  123OSM   H10F13096   0.284   5.821   8.101 -1.5955  0.5418  0.2544
  123OSM   C11F13097   0.260   5.610   8.146 -0.9432  0.7610  0.1879
  123OSM   H11F13098   0.342   5.549   8.102 -1.0351  0.0491  0.9817
  123OSM   H11G13099   0.171   5.545   8.152  0.3150 -0.8230  2.6696
  123OSM   C12F13100   0.286   5.630   8.294  0.1816 -0.2297 -0.3643
  123OSM   H12F13101   0.201   5.675   8.350 -1.0439  0.2259 -2.5257
  123OSM   H12G13102   0.378   5.691   8.300 -0.7545  0.9177  4.2449
  123OSM   C13F13103   0.316   5.499   8.367 -0.6490  0.8317 -0.1760
  123OSM   H13F13104   0.389   5.450   8.298 -0.1314  0.2539  0.7693
  123OSM   H13G13105   0.231   5.428   8.371 -0.9073  1.0445 -1.7621
  123OSM   C14F13106   0.383   5.531   8.503 -0.4735  0.7903 -0.5238
  123OSM   H14F13107   0.315   5.581   8.576  0.1716  0.7887  0.0820
  123OSM   H14G13108   0.472   5.596   8.494 -0.7664  1.4183  0.9687
  123OSM   C15F13109   0.421   5.404   8.573  0.0197  0.2909  0.5992
  123OSM   H15F13110   0.477   5.421   8.667  1.5546  2.6183 -0.6795
  123OSM   H15G13111   0.500   5.347   8.519 -1.6233  1.2915 -3.0301
  123OSM   C16F13112   0.307   5.308   8.600 -0.5356  0.1180 -0.4786
  123OSM   H16F13113   0.265   5.281   8.500  0.6433  0.0122 -0.9590
  123OSM   H16G13114   0.226   5.361   8.654 -0.7390  0.0737 -0.7416
  123OSM   C17F13115   0.343   5.170   8.663 -0.0921 -0.0424  0.1873
  123OSM   H17F13116   0.382   5.092   8.594  0.6372  3.2234 -3.2132
  123OSM   H17G13117   0.247   5.129   8.703  0.8220 -2.1313  0.3223
  123OSM   C18F13118   0.442   5.185   8.780 -0.4687  0.3980 -0.6919
  123OSM   H18F13119   0.430   5.102   8.852 -0.5011 -0.1108 -1.2764
  123OSM   H18G13120   0.410   5.270   8.844 -0.4090 -0.8050  0.9684
  123OSM   H18H13121   0.546   5.203   8.745  0.2555 -0.9476  0.6980
  124OSM      N13122   0.189   1.307   6.053  0.0155  0.4075 -0.3334
  124OSM    C1513123   0.294   1.254   5.957 -0.2651 -0.6653 -0.0646
  124OSM   H15A13124   0.246   1.183   5.891 -0.9582 -0.6693  0.4478
  124OSM   H15B13125   0.370   1.204   6.016 -2.1055 -2.7872  0.5784
  124OSM   H15C13126   0.343   1.332   5.900 -0.0419  0.0120  1.0548
  124OSM    C1413127   0.073   1.348   5.971 -0.6283  0.6623 -0.2412
  124OSM   H14A13128  -0.012   1.369   6.034 -1.3840  1.1281 -1.4037
  124OSM   H14B13129   0.041   1.270   5.904 -0.1695  0.2765 -0.0192
  124OSM   H14C13130   0.090   1.432   5.905 -1.3531  1.6028  0.7374
  124OSM    C1313131   0.142   1.187   6.139  0.6745  0.1343  0.0633
  124OSM   H13A13132   0.068   1.218   6.211  1.1290  1.4931 -0.0241
  124OSM   H13B13133   0.226   1.146   6.193 -0.5957 -1.2111  1.0268
  124OSM   H13C13134   0.104   1.105   6.081  2.2047 -0.4212 -0.1840
  124OSM    C1213135   0.245   1.419   6.144  0.2103  0.2714  0.4154
  124OSM   H12A13136   0.257   1.509   6.085 -0.6190  0.8280  1.0817
  124OSM   H12B13137   0.343   1.385   6.173  0.4602  0.7938  0.1825
  124OSM    C1113138   0.162   1.465   6.265 -0.0902  0.9070  0.2010
  124OSM   H11A13139   0.234   1.538   6.307  1.4642 -0.2272 -0.4727
  124OSM   H11B13140   0.136   1.377   6.329 -0.9094  0.5517 -0.5963
  124OSM      P13141  -0.107   1.491   6.270  0.0763  0.4245 -0.5800
  124OSM    O1313142  -0.197   1.591   6.217  0.3684 -0.1902 -0.0156
  124OSM    O1413143  -0.133   1.354   6.230  0.3377 -0.1850  0.4960
  124OSM    O1113144  -0.103   1.497   6.430  0.1154  0.4135  0.0575
  124OSM    O1213145   0.044   1.531   6.225 -0.1591 -0.2069 -0.3520
  124OSM    C1S13146  -0.064   1.619   6.497  0.2681 -0.2489 -0.2945
  124OSM    H1S13147  -0.150   1.689   6.488 -1.0035 -1.9161 -1.6595
  124OSM    H1T13148   0.028   1.662   6.452  1.1680 -2.6438 -0.8408
  124OSM     NF13149  -0.004   1.714   6.712  0.1284 -0.1539  0.4887
  124OSM    HNF13150   0.088   1.754   6.719 -0.4119  0.6448  3.7684
  124OSM    C2S13151  -0.024   1.591   6.646 -0.0214 -0.1134  0.0735
  124OSM    H2S13152  -0.106   1.545   6.706  0.1252 -0.9660 -0.3674
  124OSM    C3S13153   0.098   1.496   6.656 -1.2378  1.1124  0.5705
  124OSM    H3S13154   0.187   1.544   6.611  0.7283 -1.3163  1.7159
  124OSM     O313155   0.078   1.370   6.589 -0.0495  0.6004 -0.1607
  124OSM    HO313156  -0.008   1.392   6.553 -0.4093  1.2968  1.1053
  124OSM    C4S13157   0.127   1.476   6.802  0.3080 -0.6176  0.2623
  124OSM    H4S13158   0.222   1.526   6.828  0.6703 -0.9286 -0.4300
  124OSM    C5S13159   0.056   1.415   6.895  0.2493 -0.1466 -0.1929
  124OSM    H5S13160  -0.046   1.376   6.876 -0.1638  1.5149 -1.5157
  124OSM    C6S13161   0.107   1.413   7.034 -0.3649 -0.3182 -0.5317
  124OSM    H6S13162   0.018   1.427   7.100  0.6079 -0.0156  0.7478
  124OSM    H6T13163   0.181   1.494   7.050  0.0156 -0.3894 -1.9017
  124OSM    C7S13164   0.169   1.276   7.079  0.7102 -0.0341  0.9611
  124OSM    H7S13165   0.245   1.241   7.006 -0.0303  2.8791 -1.2885
  124OSM    H7T13166   0.075   1.217   7.089  1.6914 -1.6372  0.9913
  124OSM    C8S13167   0.225   1.284   7.220  0.0479  0.1119  0.4746
  124OSM    H8S13168   0.148   1.323   7.290 -1.3858 -2.6750  0.4988
  124OSM    H8T13169   0.314   1.350   7.212  1.6904 -2.2707 -1.4441
  124OSM    C9S13170   0.271   1.146   7.277  0.1870  0.0849 -0.0129
  124OSM    H9S13171   0.381   1.135   7.264 -0.1463 -3.1930 -0.3748
  124OSM    H9T13172   0.232   1.056   7.224 -2.4756  1.7411 -0.9941
  124OSM   C10S13173   0.230   1.120   7.424  0.2257  0.1765  0.8404
  124OSM   H10S13174   0.258   1.013   7.437  0.2911  0.0341 -0.3963
  124OSM   H10T13175   0.121   1.121   7.443 -0.3402  1.6152 -2.1600
  124OSM   C11S13176   0.301   1.200   7.534 -0.0408  0.3716  0.4029
  124OSM   H11S13177   0.263   1.301   7.560  1.0661  0.9847 -0.3414
  124OSM   H11T13178   0.407   1.216   7.506 -0.7217  0.5225 -2.2215
  124OSM   C12S13179   0.318   1.117   7.657  0.1421 -0.3085  0.0098
  124OSM   H12S13180   0.363   1.017   7.640  0.4887 -0.1994  0.2740
  124OSM   H12T13181   0.219   1.102   7.705 -0.7603  2.0791 -1.0691
  124OSM   C13S13182   0.399   1.192   7.767 -0.1430  0.6484  0.5796
  124OSM   H13S13183   0.359   1.295   7.776 -1.2131  0.2639  0.2381
  124OSM   H13T13184   0.497   1.212   7.720  0.0234 -3.2104 -0.9325
  124OSM   C14S13185   0.406   1.130   7.897  0.1069 -0.6132 -0.5835
  124OSM   H14S13186   0.452   1.030   7.879  0.2070 -0.2563 -2.3758
  124OSM   H14T13187   0.300   1.119   7.931  0.3847  0.0631  0.5145
  124OSM   C15S13188   0.475   1.220   8.000 -0.6683  0.5360  0.8158
  124OSM   H15S13189   0.396   1.296   8.022  0.7888  1.4401  3.1433
  124OSM   H15T13190   0.562   1.276   7.961  1.7062 -1.9966  2.3608
  124OSM   C16S13191   0.528   1.138   8.120 -0.6259 -0.3940  0.7311
  124OSM   H16S13192   0.604   1.067   8.079 -0.6509 -0.6783  1.1819
  124OSM   H16T13193   0.455   1.072   8.171  1.4848 -1.6612  2.2207
  124OSM   C17S13194   0.600   1.234   8.216 -0.1812 -0.8409  0.0295
  124OSM   H17S13195   0.686   1.278   8.161 -0.9798 -0.8861 -1.2775
  124OSM   H17T13196   0.644   1.169   8.294  0.8483 -1.6253 -1.1837
  124OSM   C18S13197   0.513   1.351   8.271 -0.0021 -0.9851 -1.0840
  124OSM   H18S13198   0.573   1.406   8.346  1.7268  0.4128 -3.4385
  124OSM   H18T13199   0.413   1.313   8.301  0.5885  0.6680  3.2861
  124OSM   H18U13200   0.488   1.416   8.184 -0.3898  0.3293  0.0021
  124OSM    C1F13201  -0.105   1.801   6.739 -0.1049  0.4581  0.4412
  124OSM     OF13202  -0.222   1.763   6.726  0.2520 -0.2301  0.0019
  124OSM    C2F13203  -0.070   1.946   6.756  0.1168  0.2390 -0.1580
  124OSM    H2F13204  -0.118   2.001   6.671 -0.2667 -0.1466 -0.1922
  124OSM    H2G13205   0.040   1.962   6.758  0.0872  0.4210  0.0383
  124OSM    C3F13206  -0.140   2.000   6.880 -0.1159  0.2012  0.0144
  124OSM    H3F13207  -0.250   1.985   6.886 -0.0239 -0.0080  1.2102
  124OSM    H3G13208  -0.127   2.110   6.870  1.2613 -0.1079 -1.7331
  124OSM    C4F13209  -0.061   1.956   7.005  0.6932 -1.3717 -0.4709
  124OSM    H4F13210   0.046   1.984   7.005  0.5165 -0.6964  0.4850
  124OSM    H4G13211  -0.063   1.846   7.021  0.7855 -1.3845 -0.5459
  124OSM    C5F13212  -0.126   2.005   7.127 -0.9315  0.5253  0.1978
  124OSM    H5F13213  -0.233   1.977   7.140  0.0411 -2.1641  2.8226
  124OSM    H5G13214  -0.107   2.114   7.140  0.6573  0.6094 -2.5520
  124OSM    C6F13215  -0.073   1.937   7.254 -0.2347 -0.5389 -0.3477
  124OSM    H6F13216   0.036   1.957   7.268 -0.2903 -0.5278  0.0596
  124OSM    H6G13217  -0.072   1.827   7.240  2.7417 -0.3791 -1.9128
  124OSM    C7F13218  -0.149   1.992   7.376  0.5721 -0.4377 -0.1901
  124OSM    H7F13219  -0.237   1.925   7.374 -2.8376  3.7321  2.1025
  124OSM    H7G13220  -0.188   2.095   7.362 -2.9691 -1.3630  2.1587
  124OSM    C8F13221  -0.086   1.961   7.509 -0.3665 -0.2818 -0.1975
  124OSM    H8F13222  -0.016   2.044   7.533 -1.2674  0.4793 -0.1825
  124OSM    H8G13223  -0.031   1.866   7.494 -1.0445 -0.9539  1.4711
  124OSM    C9F13224  -0.188   1.960   7.626 -0.2633  0.5722  0.4148
  124OSM    H9F13225  -0.293   1.976   7.596  0.9768  1.8471 -3.5184
  124OSM   C10F13226  -0.162   1.938   7.758 -0.0841  0.0338  0.6243
  124OSM   H10F13227  -0.245   1.953   7.829 -1.0462  0.1749 -0.5135
  124OSM   C11F13228  -0.031   1.911   7.827  0.3580  0.0397 -0.3794
  124OSM   H11F13229   0.051   1.918   7.752  0.0536  1.7820 -0.5686
  124OSM   H11G13230  -0.033   1.807   7.867  2.2746  0.0581 -0.1718
  124OSM   C12F13231  -0.008   2.001   7.951  0.2726 -0.3325  0.2011
  124OSM   H12F13232  -0.030   2.109   7.935 -0.4538  0.2526  4.4677
  124OSM   H12G13233   0.098   1.994   7.984  0.6345  0.9555 -0.6582
  124OSM   C13F13234  -0.070   1.942   8.081 -0.2620 -0.0125  0.1335
  124OSM   H13F13235  -0.028   1.840   8.081 -0.1950  0.0119  0.5557
  124OSM   H13G13236  -0.179   1.922   8.066 -0.0261 -0.3968 -1.1193
  124OSM   C14F13237  -0.045   2.017   8.218 -0.3258  0.1603 -0.2205
  124OSM   H14F13238  -0.048   2.128   8.217 -0.7278  0.1562  0.4686
  124OSM   H14G13239   0.057   1.982   8.246 -1.5052 -3.4007 -0.0425
  124OSM   C15F13240  -0.130   1.969   8.333  0.5199 -0.3064  0.0015
  124OSM   H15F13241  -0.128   1.858   8.334  2.2115 -0.3815 -3.2769
  124OSM   H15G13242  -0.238   1.996   8.330  0.2893 -1.2698 -1.0013
  124OSM   C16F13243  -0.071   2.021   8.472 -0.3858  0.4669 -0.7341
  124OSM   H16F13244  -0.058   2.131   8.474 -0.6745  0.5028 -0.8152
  124OSM   H16G13245   0.032   1.980   8.479 -0.9653 -1.1226 -1.3018
  124OSM   C17F13246  -0.150   1.960   8.580  0.1527  0.2694 -0.5359
  124OSM   H17F13247  -0.100   1.985   8.676 -0.7676 -0.0071  0.0223
  124OSM   H17G13248  -0.163   1.851   8.565  0.4056  0.2561 -0.6571
  124OSM   C18F13249  -0.282   2.046   8.591  0.0052 -0.0167 -0.2286
  124OSM   H18F13250  -0.349   2.030   8.503  1.3494 -0.4697 -1.1780
  124OSM   H18G13251  -0.273   2.154   8.615 -1.2774 -0.5398  2.8057
  124OSM   H18H13252  -0.343   2.015   8.679 -0.3252 -0.6933 -0.6927
  125OSM      N13253   2.843   6.735   6.028  0.8104 -0.2249 -0.1672
  125OSM    C1513254   2.814   6.865   5.953 -0.2535 -0.5540 -0.0734
  125OSM   H15A13255   2.896   6.892   5.887 -1.8101 -0.8821 -2.1782
  125OSM   H15B13256   2.801   6.941   6.029  1.3013  1.1910 -1.4659
  125OSM   H15C13257   2.724   6.855   5.895 -2.6803  0.0435  3.4575
  125OSM    C1413258   2.719   6.702   6.118  0.0051 -0.1745  0.8869
  125OSM   H14A13259   2.630   6.696   6.058 -0.0025 -2.7879  1.1013
  125OSM   H14B13260   2.708   6.778   6.194 -1.4559  1.0233 -0.4932
  125OSM   H14C13261   2.734   6.606   6.166  0.4143 -0.4444  0.2256
  125OSM    C1313262   2.847   6.627   5.924 -1.0997 -0.0754 -0.2796
  125OSM   H13A13263   2.942   6.634   5.874 -0.8230 -3.4110 -0.2960
  125OSM   H13B13264   2.767   6.646   5.854 -1.0039  1.1744 -0.0601
  125OSM   H13C13265   2.835   6.529   5.966  1.2110 -0.7484 -1.0982
  125OSM    C1213266   2.965   6.750   6.103  0.6375 -0.9847 -0.5449
  125OSM   H12A13267   3.041   6.792   6.039  0.2898  0.1552 -0.2341
  125OSM   H12B13268   2.997   6.657   6.149  0.6934 -0.7703 -0.1414
  125OSM    C1113269   2.969   6.845   6.221 -0.2296 -0.1114  0.4072
  125OSM   H11A13270   3.067   6.831   6.271 -0.6981  0.2957  1.4710
  125OSM   H11B13271   2.903   6.811   6.304 -1.4360 -0.9430 -0.8602
  125OSM      P13272   3.065   7.087   6.169 -0.0048  0.4737  0.0995
  125OSM    O1313273   3.188   7.009   6.142 -0.4807 -0.2083  0.4099
  125OSM    O1413274   3.033   7.196   6.073 -0.0039 -0.3958  0.5560
  125OSM    O1113275   3.076   7.160   6.309 -0.4267 -0.3797  0.6297
  125OSM    O1213276   2.948   6.983   6.183  0.3421 -0.1288 -0.0814
  125OSM    C1S13277   3.126   7.095   6.425  0.8656  0.3442  0.3958
  125OSM    H1S13278   3.219   7.038   6.404  1.3890  1.1604  0.4755
  125OSM    H1T13279   3.051   7.028   6.472  2.6014 -0.2726  2.3606
  125OSM     NF13280   3.241   7.140   6.637  0.1425  0.1532 -0.9702
  125OSM    HNF13281   3.197   7.143   6.726  1.6288  0.6244 -0.2422
  125OSM    C2S13282   3.170   7.206   6.533 -0.3411 -0.8407  0.2466
  125OSM    H2S13283   3.242   7.270   6.479  1.1795  0.3766  3.6387
  125OSM    C3S13284   3.045   7.275   6.582 -0.3654  0.7605 -0.1510
  125OSM    H3S13285   2.983   7.205   6.642 -1.7341  0.4974 -1.8376
  125OSM     O313286   2.955   7.307   6.478  0.0254 -0.4022  0.5670
  125OSM    HO313287   3.003   7.277   6.401  1.1379 -0.5368  1.2901
  125OSM    C4S13288   3.087   7.395   6.655  0.1740  0.8157  0.2899
  125OSM    H4S13289   3.163   7.444   6.592 -0.7210  0.4273 -1.1109
  125OSM    C5S13290   3.049   7.440   6.776  0.0765 -0.7587  0.4564
  125OSM    H5S13291   2.978   7.381   6.835  0.0646 -1.4397 -0.2164
  125OSM    C6S13292   3.096   7.569   6.835  0.5772 -0.5460  0.7725
  125OSM    H6S13293   3.016   7.615   6.895  0.2481 -0.3722  0.2075
  125OSM    H6T13294   3.140   7.632   6.755 -1.8930  1.1319  0.6847
  125OSM    C7S13295   3.217   7.544   6.922  0.6410  0.1718  0.0138
  125OSM    H7S13296   3.299   7.527   6.848  0.4604 -1.0727  0.0861
  125OSM    H7T13297   3.199   7.445   6.969  1.1335  0.1002  0.0573
  125OSM    C8S13298   3.260   7.657   7.026 -0.6551 -0.3960 -0.3939
  125OSM    H8S13299   3.203   7.751   7.009  1.3212  0.3527 -3.3093
  125OSM    H8T13300   3.367   7.683   7.017 -0.6928 -0.4532 -1.0456
  125OSM    C9S13301   3.236   7.604   7.170  0.1451  0.4734  0.5159
  125OSM    H9S13302   3.270   7.499   7.175  0.3634  0.5475  0.6352
  125OSM    H9T13303   3.128   7.604   7.198 -0.5094  0.8399 -1.8887
  125OSM   C10S13304   3.318   7.677   7.275 -0.5583 -0.6656 -0.4928
  125OSM   H10S13305   3.309   7.788   7.272 -0.5085 -0.5300  2.4460
  125OSM   H10T13306   3.427   7.663   7.262  0.1578  2.3399  1.6345
  125OSM   C11S13307   3.280   7.628   7.411 -0.8518  0.2508 -0.7237
  125OSM   H11S13308   3.283   7.518   7.429 -0.0205  0.4482  0.4326
  125OSM   H11T13309   3.177   7.656   7.442 -0.5159  1.6753 -0.8745
  125OSM   C12S13310   3.364   7.695   7.526  0.5393  0.3511  0.1328
  125OSM   H12S13311   3.340   7.802   7.541  1.7916  0.7337 -0.4695
  125OSM   H12T13312   3.471   7.705   7.499  0.7757 -0.2719  0.8258
  125OSM   C13S13313   3.352   7.636   7.669  0.6849 -0.5329 -0.0680
  125OSM   H13S13314   3.390   7.533   7.654  1.8929  0.1231 -1.5939
  125OSM   H13T13315   3.250   7.643   7.714  1.3263 -0.6965  1.4576
  125OSM   C14S13316   3.442   7.699   7.774 -0.1470 -0.3938  0.2197
  125OSM   H14S13317   3.413   7.806   7.763 -1.2356 -0.6573  0.4504
  125OSM   H14T13318   3.551   7.684   7.758 -0.1052  0.9444 -0.9116
  125OSM   C15S13319   3.397   7.661   7.915  0.1029  0.6265 -0.1840
  125OSM   H15S13320   3.287   7.671   7.928 -0.1951 -3.1284  0.7079
  125OSM   H15T13321   3.443   7.734   7.986 -1.0035  2.4735 -1.3183
  125OSM   C16S13322   3.432   7.524   7.965  0.4923 -0.4232 -0.8584
  125OSM   H16S13323   3.536   7.534   8.005  0.2882  1.0662 -0.6776
  125OSM   H16T13324   3.434   7.457   7.877  0.8213  1.4059 -2.2833
  125OSM   C17S13325   3.334   7.491   8.069  0.0712  0.0843 -0.1988
  125OSM   H17S13326   3.231   7.485   8.027  0.2066 -1.0770 -0.3883
  125OSM   H17T13327   3.326   7.559   8.157 -0.4847 -1.4350  0.9483
  125OSM   C18S13328   3.359   7.347   8.114 -0.6294  0.6437 -0.4423
  125OSM   H18S13329   3.345   7.265   8.041 -1.6017 -2.8546  3.4472
  125OSM   H18T13330   3.293   7.319   8.199  3.2488 -1.2226  2.0866
  125OSM   H18U13331   3.465   7.341   8.146 -0.5109  1.0237 -0.7538
  125OSM    C1F13332   3.359   7.072   6.622  0.3390  0.3746 -0.4146
  125OSM     OF13333   3.418   7.072   6.511 -0.4448  0.4918 -0.3996
  125OSM    C2F13334   3.415   6.989   6.739  0.4922 -0.4404 -0.5244
  125OSM    H2F13335   3.449   7.050   6.826  0.2983 -1.5254  0.3256
  125OSM    H2G13336   3.495   6.924   6.698 -0.1748 -1.1247 -0.7466
  125OSM    C3F13337   3.319   6.893   6.810  0.9753  0.5349 -0.8536
  125OSM    H3F13338   3.302   6.802   6.747 -0.6896  0.4419 -0.2981
  125OSM    H3G13339   3.228   6.956   6.824  1.5988  1.2112  0.2243
  125OSM    C4F13340   3.371   6.836   6.938 -0.2014  0.0261  0.2006
  125OSM    H4F13341   3.299   6.760   6.975  2.0654 -2.1026  0.3809
  125OSM    H4G13342   3.380   6.919   7.011 -1.9531 -0.1696  0.6561
  125OSM    C5F13343   3.502   6.766   6.918  0.8147 -0.9510 -0.2643
  125OSM    H5F13344   3.582   6.808   6.852 -1.7933  1.4189 -2.0265
  125OSM    H5G13345   3.483   6.668   6.870 -0.8564  0.1207 -1.8600
  125OSM    C6F13346   3.560   6.737   7.058 -0.3323  0.8158 -1.1283
  125OSM    H6F13347   3.577   6.830   7.116 -0.5521 -0.1304  0.4752
  125OSM    H6G13348   3.658   6.695   7.028  0.1948  0.2348  1.3115
  125OSM    C7F13349   3.463   6.634   7.134 -0.6770  0.1399 -0.0819
  125OSM    H7F13350   3.443   6.561   7.053  1.3976 -1.0022  0.3920
  125OSM    H7G13351   3.361   6.674   7.151 -0.8180  0.3541 -1.3653
  125OSM    C8F13352   3.515   6.577   7.269  0.1485 -0.6412 -0.4161
  125OSM    H8F13353   3.609   6.518   7.265 -0.0905 -1.3912  3.1240
  125OSM    H8G13354   3.436   6.507   7.301  0.8381 -1.1918  0.0840
  125OSM    C9F13355   3.503   6.688   7.370  0.7297  0.2086  0.1550
  125OSM    H9F13356   3.480   6.788   7.331  1.7432  0.6010  0.5439
  125OSM   C10F13357   3.489   6.679   7.502  0.0494  0.1548 -0.7324
  125OSM   H10F13358   3.500   6.771   7.562 -0.0716 -0.3263  0.0293
  125OSM   C11F13359   3.488   6.548   7.571 -0.6028 -0.2720  0.1245
  125OSM   H11F13360   3.535   6.470   7.508 -1.6188 -2.0574  1.5159
  125OSM   H11G13361   3.384   6.516   7.595 -1.1250  1.8848  0.8295
  125OSM   C12F13362   3.568   6.555   7.707  0.6823 -0.1527 -0.6438
  125OSM   H12F13363   3.513   6.619   7.780  1.0478 -0.3278 -0.2156
  125OSM   H12G13364   3.663   6.611   7.693  0.0273  0.9407 -0.8424
  125OSM   C13F13365   3.592   6.415   7.771  0.3451 -0.1177  0.1964
  125OSM   H13F13366   3.657   6.356   7.702 -0.8899 -0.3257 -0.8136
  125OSM   H13G13367   3.497   6.358   7.779 -0.3182  1.1263  1.2203
  125OSM   C14F13368   3.648   6.436   7.910 -0.9753  0.6372  0.2785
  125OSM   H14F13369   3.597   6.525   7.952 -1.6544  0.8122 -0.8911
  125OSM   H14G13370   3.751   6.476   7.903  0.8103 -3.5711  0.8678
  125OSM   C15F13371   3.651   6.313   8.001 -0.3091  0.7911  0.0584
  125OSM   H15F13372   3.720   6.234   7.964 -1.0955 -0.5066  1.3283
  125OSM   H15G13373   3.546   6.277   8.000  0.5275 -1.8018  1.8250
  125OSM   C16F13374   3.683   6.338   8.143  0.1535  0.1125 -0.6931
  125OSM   H16F13375   3.618   6.277   8.208  0.9151  0.9300  0.8514
  125OSM   H16G13376   3.654   6.442   8.165 -0.7533 -0.5032  1.0662
  125OSM   C17F13377   3.840   6.319   8.180  0.4885 -0.1747  0.2536
  125OSM   H17F13378   3.905   6.350   8.095  1.2314 -1.3036  0.3906
  125OSM   H17G13379   3.861   6.210   8.182  0.1603 -0.2546 -0.4712
  125OSM   C18F13380   3.853   6.404   8.305 -0.2027  0.0880  0.4776
  125OSM   H18F13381   3.951   6.378   8.352  0.6980  1.2201 -0.7111
  125OSM   H18G13382   3.771   6.391   8.379 -0.8916  0.6448 -0.1841
  125OSM   H18H13383   3.846   6.514   8.287  0.4303 -0.1056 -1.0365
  126OSM      N13384   0.650   4.142   6.349  0.2761 -0.8196  0.3006
  126OSM    C1513385   0.708   4.071   6.228 -0.1946 -0.0661 -0.7428
  126OSM   H15A13386   0.632   4.004   6.191  0.1917 -0.1335 -1.4205
  126OSM   H15B13387   0.794   4.012   6.257 -0.0887  0.4545  0.0269
  126OSM   H15C13388   0.734   4.152   6.162 -1.9885  0.2860 -1.0372
  126OSM    C1413389   0.529   4.220   6.302 -0.7927 -0.4519 -0.0045
  126OSM   H14A13390   0.463   4.157   6.244 -0.2462  0.2968 -1.4591
  126OSM   H14B13391   0.554   4.310   6.248 -0.1173 -0.4908  0.2340
  126OSM   H14C13392   0.468   4.245   6.387  1.0101 -0.7967  1.4269
  126OSM    C1313393   0.605   4.044   6.444 -0.4122 -0.4082  0.0630
  126OSM   H13A13394   0.692   4.012   6.498  0.9289 -0.1414 -1.8605
  126OSM   H13B13395   0.552   3.963   6.396 -0.7971  0.8018 -1.5965
  126OSM   H13C13396   0.534   4.085   6.514  0.5375 -1.3038  1.5688
  126OSM    C1213397   0.765   4.229   6.412  0.5471 -0.5506  0.5052
  126OSM   H12A13398   0.794   4.305   6.340 -3.2404 -1.3586 -2.0296
  126OSM   H12B13399   0.853   4.171   6.435 -0.1750 -0.7702  2.7901
  126OSM    C1113400   0.728   4.305   6.544  0.5216  0.5303  0.2766
  126OSM   H11A13401   0.826   4.328   6.592  1.4041 -0.0986 -1.1965
  126OSM   H11B13402   0.668   4.233   6.604 -0.7095 -0.2755 -1.8950
  126OSM      P13403   0.713   4.561   6.481  0.1860  0.2885  0.3960
  126OSM    O1313404   0.840   4.543   6.403  0.0251 -0.5131 -0.2220
  126OSM    O1413405   0.611   4.656   6.431  0.1630  0.5293 -0.1429
  126OSM    O1113406   0.749   4.595   6.636  0.2626 -0.5694  0.9018
  126OSM    O1213407   0.650   4.418   6.502 -0.7533 -0.2420  0.2539
  126OSM    C1S13408   0.657   4.570   6.743  0.8714  0.2518  0.1069
  126OSM    H1S13409   0.683   4.472   6.789 -1.2225  0.0690  0.9521
  126OSM    H1T13410   0.555   4.560   6.700  1.0404  3.6176 -1.2254
  126OSM     NF13411   0.562   4.632   6.957 -0.2335 -0.7805  0.1947
  126OSM    HNF13412   0.467   4.664   6.954 -0.2856 -0.8229  1.2471
  126OSM    C2S13413   0.660   4.672   6.858 -0.3980 -0.3542 -0.1843
  126OSM    H2S13414   0.755   4.665   6.914 -1.9482 -0.2463  2.5497
  126OSM    C3S13415   0.648   4.823   6.800 -0.3339  0.8263 -0.4550
  126OSM    H3S13416   0.559   4.838   6.736  0.4918  1.8849 -1.3798
  126OSM     O313417   0.766   4.853   6.725  0.0956 -0.0270 -0.5571
  126OSM    HO313418   0.794   4.761   6.713  2.7646  0.8886 -1.7097
  126OSM    C4S13419   0.645   4.921   6.912 -0.0723  0.1780 -0.0524
  126OSM    H4S13420   0.739   4.938   6.967  0.2988  0.1041 -0.6576
  126OSM    C5S13421   0.543   4.996   6.959 -0.3281 -0.2081  0.5189
  126OSM    H5S13422   0.444   4.976   6.914 -0.3325 -0.0430  0.4543
  126OSM    C6S13423   0.541   5.089   7.075 -0.2044  0.3035  1.1460
  126OSM    H6S13424   0.466   5.053   7.149 -0.9069 -2.2120 -0.7274
  126OSM    H6T13425   0.495   5.175   7.023  0.7942 -0.9167 -1.8492
  126OSM    C7S13426   0.672   5.132   7.132  0.4834 -0.4899 -0.1558
  126OSM    H7S13427   0.737   5.160   7.046  1.4055 -1.6757  0.1423
  126OSM    H7T13428   0.719   5.039   7.172  1.3095 -0.3930 -0.8970
  126OSM    C8S13429   0.663   5.236   7.241  0.5088 -0.2281 -0.3630
  126OSM    H8S13430   0.576   5.201   7.303  0.9938 -1.9791 -0.6367
  126OSM    H8T13431   0.626   5.329   7.194  2.1064 -0.6269 -2.4652
  126OSM    C9S13432   0.789   5.278   7.320 -0.2042  1.1113  0.3300
  126OSM    H9S13433   0.854   5.336   7.250 -1.7738 -0.8264 -2.8757
  126OSM    H9T13434   0.857   5.191   7.330 -0.1093  1.3495  1.7359
  126OSM   C10S13435   0.750   5.334   7.461  0.1873  0.7048  0.3913
  126OSM   H10S13436   0.695   5.263   7.526  2.0081  0.7202  2.0001
  126OSM   H10T13437   0.682   5.420   7.445 -2.6694 -1.3983  0.8356
  126OSM   C11S13438   0.872   5.386   7.541  0.3823  0.0025 -0.6917
  126OSM   H11S13439   0.862   5.495   7.520 -0.3887 -0.0858 -0.7904
  126OSM   H11T13440   0.967   5.337   7.511 -0.1304 -1.0103 -0.6770
  126OSM   C12S13441   0.853   5.348   7.688  0.5059 -0.7144  0.2838
  126OSM   H12S13442   0.890   5.243   7.696  0.4682 -0.8078 -0.7595
  126OSM   H12T13443   0.746   5.338   7.717 -0.1261 -0.3664 -1.8827
  126OSM   C13S13444   0.930   5.451   7.775 -0.3023 -0.7076 -0.0075
  126OSM   H13S13445   0.856   5.531   7.797 -0.7980 -0.5847 -2.0171
  126OSM   H13T13446   1.002   5.517   7.723 -1.5294  1.0823  0.5282
  126OSM   C14S13447   0.993   5.377   7.897 -0.0840 -0.2254  1.1256
  126OSM   H14S13448   1.088   5.321   7.880 -0.4259 -1.2218  2.4361
  126OSM   H14T13449   0.912   5.315   7.940  0.4343 -0.8111  1.2713
  126OSM   C15S13450   1.028   5.481   8.001  0.2723  0.1016 -0.1944
  126OSM   H15S13451   0.940   5.546   8.020  2.7066  3.2414  0.8010
  126OSM   H15T13452   1.103   5.552   7.960 -1.5178  1.0481 -1.9063
  126OSM   C16S13453   1.091   5.426   8.132 -0.4948 -0.2070 -0.3603
  126OSM   H16S13454   1.167   5.347   8.117  0.8154  1.1052 -0.7132
  126OSM   H16T13455   1.014   5.385   8.201 -0.5522  1.9738  0.9464
  126OSM   C17S13456   1.166   5.534   8.210  0.1496  0.0448  0.1223
  126OSM   H17S13457   1.090   5.614   8.223  1.8275  1.6066  0.5477
  126OSM   H17T13458   1.252   5.572   8.152 -0.6399  1.4282 -0.1795
  126OSM   C18S13459   1.217   5.483   8.348 -0.7868  0.7993 -0.6416
  126OSM   H18S13460   1.261   5.564   8.409  0.4126 -0.7735  0.6294
  126OSM   H18T13461   1.296   5.407   8.333 -1.7970 -0.5845  0.9000
  126OSM   H18U13462   1.142   5.444   8.421 -0.3729 -0.5579 -0.9340
  126OSM    C1F13463   0.581   4.518   7.032 -0.3079 -0.7476  0.3774
  126OSM     OF13464   0.694   4.489   7.062 -0.1440 -0.0910 -0.3944
  126OSM    C2F13465   0.469   4.424   7.061  0.2981 -0.0639  0.2374
  126OSM    H2F13466   0.446   4.363   6.971  1.5833 -1.2808  0.7058
  126OSM    H2G13467   0.382   4.491   7.078  0.1237 -0.4058  0.7029
  126OSM    C3F13468   0.502   4.343   7.189  0.3455 -0.5628 -0.3923
  126OSM    H3F13469   0.514   4.414   7.273  3.4378 -1.9770  0.4230
  126OSM    H3G13470   0.605   4.302   7.186  0.5666 -0.1645  1.3951
  126OSM    C4F13471   0.405   4.229   7.217  0.4408  0.5880  0.0597
  126OSM    H4F13472   0.413   4.178   7.118 -0.9241 -2.2135  1.3476
  126OSM    H4G13473   0.302   4.257   7.245  0.0061  0.7778 -1.6509
  126OSM    C5F13474   0.461   4.138   7.322  0.5250 -0.9148  0.4463
  126OSM    H5F13475   0.570   4.124   7.310  0.6996  2.2764 -2.6542
  126OSM    H5G13476   0.405   4.043   7.306 -0.2258 -0.4330  0.1618
  126OSM    C6F13477   0.424   4.179   7.467  0.7515  1.2878  0.2515
  126OSM    H6F13478   0.316   4.206   7.474  0.5070  0.4953 -0.3791
  126OSM    H6G13479   0.487   4.269   7.487 -1.7782  3.4770 -1.1911
  126OSM    C7F13480   0.447   4.073   7.572  0.2151 -0.4556  0.0777
  126OSM    H7F13481   0.555   4.046   7.569  0.5629  0.7291  1.6165
  126OSM    H7G13482   0.393   3.977   7.556 -2.8730  0.8801  2.1034
  126OSM    C8F13483   0.411   4.125   7.709 -0.0112 -0.1472  0.1149
  126OSM    H8F13484   0.307   4.164   7.702 -0.0262  0.4139  2.7646
  126OSM    H8G13485   0.466   4.216   7.742  0.8799 -0.7478  0.3004
  126OSM    C9F13486   0.423   4.021   7.815 -0.5883 -0.5786  0.1607
  126OSM    H9F13487   0.526   3.985   7.825  0.1372  1.2909 -0.3227
  126OSM   C10F13488   0.320   3.973   7.892 -0.8300 -0.8001 -0.2679
  126OSM   H10F13489   0.338   3.907   7.977 -0.9118  0.2927  0.6156
  126OSM   C11F13490   0.178   4.023   7.895 -0.9018  0.1761 -0.0473
  126OSM   H11F13491   0.112   3.950   7.844 -2.5007  0.8055  1.0562
  126OSM   H11G13492   0.167   4.119   7.841  0.6197  1.0419  1.1493
  126OSM   C12F13493   0.129   4.056   8.041 -0.3396  0.6836  0.6302
  126OSM   H12F13494   0.031   4.109   8.040 -0.2866  0.7789  0.4076
  126OSM   H12G13495   0.203   4.120   8.094  0.7874 -2.9056  3.5879
  126OSM   C13F13496   0.112   3.933   8.128 -0.3913 -0.2262 -0.3026
  126OSM   H13F13497   0.209   3.879   8.128 -0.3334 -0.1491  0.8664
  126OSM   H13G13498   0.036   3.862   8.089 -0.7880 -0.8321  1.4923
  126OSM   C14F13499   0.093   3.974   8.274 -0.4780 -0.4383 -0.7737
  126OSM   H14F13500   0.009   4.044   8.295  0.3992  0.3116  0.2730
  126OSM   H14G13501   0.186   4.030   8.299 -1.3549  0.7117 -0.0243
  126OSM   C15F13502   0.077   3.846   8.356 -0.7986 -0.5353 -0.2353
  126OSM   H15F13503   0.144   3.764   8.320  0.4051 -0.7575  2.3979
  126OSM   H15G13504  -0.023   3.809   8.327 -0.9426  0.9335 -1.6925
  126OSM   C16F13505   0.092   3.887   8.505  0.1376 -0.2785  0.1402
  126OSM   H16F13506   0.014   3.965   8.518 -0.4941 -0.4792 -2.1511
  126OSM   H16G13507   0.186   3.934   8.540 -1.4163  1.6326  1.8523
  126OSM   C17F13508   0.061   3.771   8.599 -0.3698  0.5406 -0.0825
  126OSM   H17F13509   0.135   3.692   8.573 -1.3550 -0.2595 -0.4748
  126OSM   H17G13510  -0.042   3.736   8.577  0.0854 -1.6734  1.0731
  126OSM   C18F13511   0.063   3.807   8.751  0.1579  0.9161  0.3988
  126OSM   H18F13512   0.055   3.709   8.803  2.3905  0.9743  0.9050
  126OSM   H18G13513  -0.019   3.874   8.784 -2.0166 -1.8110  0.7075
  126OSM   H18H13514   0.161   3.857   8.769  0.9883 -0.5524  0.0238
  127OSM      N13515   4.997   6.469   6.096 -0.2352  0.6389 -0.1270
  127OSM    C1513516   5.055   6.591   6.147  0.4475  0.7665  0.6977
  127OSM   H15A13517   5.162   6.582   6.162  0.3132 -0.5312  0.9429
  127OSM   H15B13518   5.003   6.629   6.233  2.2442 -0.4705  2.3646
  127OSM   H15C13519   5.050   6.667   6.070  2.2194  0.8096  0.5959
  127OSM    C1413520   4.854   6.499   6.062 -0.1551 -0.3011 -0.5816
  127OSM   H14A13521   4.828   6.404   6.018  3.1434 -2.4719  1.9758
  127OSM   H14B13522   4.849   6.574   5.984  1.4996  0.6533  0.1883
  127OSM   H14C13523   4.790   6.526   6.145  1.8111  1.0157  0.5436
  127OSM    C1313524   5.067   6.422   5.972  0.2954  0.9124  0.1252
  127OSM   H13A13525   5.046   6.489   5.889  2.7806 -0.0590 -1.3503
  127OSM   H13B13526   5.021   6.330   5.940 -2.0303  2.4542 -1.1964
  127OSM   H13C13527   5.172   6.411   5.993  0.5201 -2.7348 -2.3985
  127OSM    C1213528   5.001   6.354   6.205  0.1591  0.0174  0.9380
  127OSM   H12A13529   4.973   6.266   6.149  1.3762 -0.4886  1.1164
  127OSM   H12B13530   4.929   6.385   6.280 -0.2108  1.0100  0.2033
  127OSM    C1113531   5.146   6.331   6.261 -0.0982  0.5139  0.4429
  127OSM   H11A13532   5.123   6.246   6.330 -0.9449 -0.0049 -0.4573
  127OSM   H11B13533   5.173   6.420   6.321  1.4471 -0.0864  0.6549
  127OSM      P13534   5.398   6.310   6.176 -0.1867  0.1024 -0.3378
  127OSM    O1313535   5.468   6.183   6.127 -0.7100 -0.3227 -0.3306
  127OSM    O1413536   5.433   6.435   6.101 -0.4625  0.4468  0.0724
  127OSM    O1113537   5.426   6.329   6.330  0.1620  0.0085 -0.1547
  127OSM    O1213538   5.246   6.287   6.166 -0.0997 -0.2374 -0.2788
  127OSM    C1S13539   5.487   6.220   6.406 -0.4456 -0.7157  0.6505
  127OSM    H1S13540   5.585   6.201   6.358  0.6555  1.0820  2.1023
  127OSM    H1T13541   5.415   6.136   6.404 -0.2561 -0.8429 -0.9666
  127OSM     NF13542   5.588   6.167   6.636  0.2511  0.9507 -0.4571
  127OSM    HNF13543   5.558   6.129   6.723  2.5273  2.1218  0.8744
  127OSM    C2S13544   5.511   6.266   6.555  0.4675 -0.0620  0.0546
  127OSM    H2S13545   5.575   6.357   6.551 -1.7508  1.5496  0.5555
  127OSM    C3S13546   5.381   6.306   6.629  0.4336 -0.9640  0.2681
  127OSM    H3S13547   5.313   6.220   6.645  0.0734 -0.4680  1.4567
  127OSM     O313548   5.293   6.401   6.562 -0.0313 -1.1340  0.2601
  127OSM    HO313549   5.326   6.407   6.472 -1.7305  1.1757 -0.2613
  127OSM    C4S13550   5.426   6.362   6.762 -0.3094 -0.0220  0.2188
  127OSM    H4S13551   5.377   6.307   6.844 -1.8186  0.4412 -0.3728
  127OSM    C5S13552   5.487   6.470   6.796  0.2215 -0.0140 -1.6627
  127OSM    H5S13553   5.516   6.544   6.720  1.0570  1.0603 -0.2910
  127OSM    C6S13554   5.520   6.500   6.935 -0.1654 -0.1689 -0.0799
  127OSM    H6S13555   5.449   6.453   7.007 -0.7429 -1.0690 -1.2049
  127OSM    H6T13556   5.500   6.609   6.943  0.5076 -0.1840  2.1987
  127OSM    C7S13557   5.672   6.482   6.973 -0.1250  0.3020  0.2462
  127OSM    H7S13558   5.671   6.509   7.081 -0.7062 -1.2465  0.6483
  127OSM    H7T13559   5.731   6.556   6.915  1.1522 -1.6716 -1.0389
  127OSM    C8S13560   5.724   6.337   6.953  0.7323  0.2297  0.2157
  127OSM    H8S13561   5.833   6.328   6.975  1.3746  3.6136 -1.2559
  127OSM    H8T13562   5.697   6.299   6.852 -3.1071  1.1234  0.8397
  127OSM    C9S13563   5.662   6.247   7.058 -0.0308 -0.9038  0.6789
  127OSM    H9S13564   5.551   6.249   7.052 -0.0233 -0.3851  0.7121
  127OSM    H9T13565   5.686   6.290   7.157  0.1998 -0.5667  0.4782
  127OSM   C10S13566   5.714   6.100   7.056 -0.0910 -0.3243 -0.4302
  127OSM   H10S13567   5.820   6.084   7.028  1.2792  4.4176  1.4743
  127OSM   H10T13568   5.645   6.044   6.989 -0.5616 -1.0892  0.6894
  127OSM   C11S13569   5.692   6.031   7.187 -0.7634  0.0285  0.5788
  127OSM   H11S13570   5.582   6.028   7.203 -1.2310  1.6252 -2.0516
  127OSM   H11T13571   5.737   6.102   7.260  1.5078  0.5384 -1.2689
  127OSM   C12S13572   5.764   5.896   7.184 -0.2556  0.1639  0.2389
  127OSM   H12S13573   5.873   5.915   7.174 -0.2277 -1.3862 -3.1913
  127OSM   H12T13574   5.732   5.839   7.094 -4.4657  0.5405  1.4009
  127OSM   C13S13575   5.749   5.811   7.311 -0.0288 -0.1671 -0.3033
  127OSM   H13S13576   5.788   5.709   7.293 -0.4626 -0.7234  1.7865
  127OSM   H13T13577   5.640   5.799   7.329 -0.0546  1.7656  1.0225
  127OSM   C14S13578   5.800   5.879   7.438 -0.1702 -0.5230  0.2095
  127OSM   H14S13579   5.764   5.983   7.452 -1.4074 -1.0413  1.0540
  127OSM   H14T13580   5.909   5.887   7.420 -0.3669  0.1380 -0.7058
  127OSM   C15S13581   5.764   5.790   7.559  0.3641 -0.1022  0.9481
  127OSM   H15S13582   5.770   5.685   7.523  1.6201 -0.1382  1.2452
  127OSM   H15T13583   5.662   5.815   7.597  0.1230 -1.1060  0.9776
  127OSM   C16S13584   5.866   5.815   7.675  0.0272 -0.2384 -0.3540
  127OSM   H16S13585   5.887   5.924   7.681 -0.7615 -0.1385  0.6339
  127OSM   H16T13586   5.960   5.759   7.651  1.4185  1.0168  2.0065
  127OSM   C17S13587   5.814   5.758   7.806  0.3313  0.4412  0.1230
  127OSM   H17S13588   5.784   5.652   7.789 -0.6090  0.6899  0.1613
  127OSM   H17T13589   5.715   5.803   7.829  0.7701  1.1176  0.6937
  127OSM   C18S13590   5.907   5.772   7.924 -0.7581  0.0260  0.6002
  127OSM   H18S13591   5.871   5.723   8.017 -1.5292  1.2689  0.9648
  127OSM   H18T13592   5.927   5.881   7.933 -0.2255  0.0494 -0.6985
  127OSM   H18U13593   6.005   5.726   7.899 -2.2185 -3.5264  1.0851
  127OSM    C1F13594   5.718   6.130   6.604 -0.3464  0.2597 -0.2225
  127OSM     OF13595   5.787   6.178   6.516 -0.0848  0.4961 -0.4354
  127OSM    C2F13596   5.774   6.026   6.694  0.5919  0.1414 -0.0879
  127OSM    H2F13597   5.779   5.930   6.639 -2.4169 -1.1703  1.7417
  127OSM    H2G13598   5.703   6.013   6.779 -1.3737  0.9528 -1.5753
  127OSM    C3F13599   5.912   6.072   6.739 -0.0023  0.3751  0.0849
  127OSM    H3F13600   5.899   6.149   6.818  1.7227  0.2929  0.4708
  127OSM    H3G13601   5.977   6.120   6.663  0.6390 -1.2228 -0.4012
  127OSM    C4F13602   5.992   5.960   6.794  0.3913  0.5345 -0.1291
  127OSM    H4F13603   6.027   5.888   6.716  0.1244  0.9934 -0.6695
  127OSM    H4G13604   5.935   5.896   6.865  0.5338  0.8191  0.2432
  127OSM    C5F13605   6.117   6.014   6.857  0.4136 -0.0811  0.2024
  127OSM    H5F13606   6.166   6.100   6.807 -0.6352 -0.7600 -2.0573
  127OSM    H5G13607   6.198   5.937   6.856 -0.1849 -0.7089  0.0048
  127OSM    C6F13608   6.103   6.044   7.007 -0.7007 -0.6007  0.3408
  127OSM    H6F13609   6.052   5.954   7.049 -1.7290 -0.3671 -0.3987
  127OSM    H6G13610   6.048   6.131   7.047  0.0279 -0.4415  1.0078
  127OSM    C7F13611   6.246   6.049   7.072  0.6507 -0.1039 -0.2556
  127OSM    H7F13612   6.293   6.134   7.018  0.2834 -1.9816 -3.7251
  127OSM    H7G13613   6.302   5.958   7.041  0.7042 -0.6510  1.4268
  127OSM    C8F13614   6.255   6.061   7.224 -0.4553  0.4998 -0.1433
  127OSM    H8F13615   6.206   6.152   7.264  0.3721  0.4177  1.0974
  127OSM    H8G13616   6.361   6.060   7.258 -0.9439  2.3108  1.5514
  127OSM    C9F13617   6.186   5.964   7.308 -0.1168  0.7308 -0.3404
  127OSM    H9F13618   6.080   5.962   7.281 -0.1503 -0.8520 -0.0920
  127OSM   C10F13619   6.232   5.880   7.401  0.2385  0.2346 -0.1322
  127OSM   H10F13620   6.161   5.817   7.457  2.5992 -2.0600  0.3873
  127OSM   C11F13621   6.376   5.858   7.452  0.1356  0.0402  0.8252
  127OSM   H11F13622   6.447   5.934   7.413 -1.7354  0.3559 -2.1751
  127OSM   H11G13623   6.415   5.763   7.408 -0.1046  0.6940 -0.8378
  127OSM   C12F13624   6.389   5.847   7.602  0.4330  0.6396  0.2246
  127OSM   H12F13625   6.329   5.925   7.654  0.1580  0.4740  0.1579
  127OSM   H12G13626   6.494   5.875   7.621  0.1444  1.3530  0.7932
  127OSM   C13F13627   6.343   5.708   7.654 -0.1797 -0.1263 -0.6232
  127OSM   H13F13628   6.385   5.626   7.593  1.0538 -0.4705  0.6468
  127OSM   H13G13629   6.232   5.711   7.653 -0.2589 -1.0232  1.8472
  127OSM   C14F13630   6.378   5.689   7.806 -0.4185 -0.8146 -0.7534
  127OSM   H14F13631   6.325   5.768   7.864  3.6244  0.4018  1.5294
  127OSM   H14G13632   6.486   5.705   7.825 -0.3810 -0.5780 -1.1662
  127OSM   C15F13633   6.329   5.556   7.866  0.2931  0.5869 -0.2974
  127OSM   H15F13634   6.354   5.465   7.808 -2.7109 -0.6188  0.2028
  127OSM   H15G13635   6.218   5.552   7.856  0.4754 -1.2135 -1.7511
  127OSM   C16F13636   6.371   5.526   8.016 -0.5714 -0.1415 -0.2511
  127OSM   H16F13637   6.341   5.421   8.040 -1.7038 -0.1912 -1.7910
  127OSM   H16G13638   6.304   5.586   8.081 -0.3703 -1.8957  1.6210
  127OSM   C17F13639   6.516   5.545   8.051  0.4502  0.0331 -0.0414
  127OSM   H17F13640   6.535   5.654   8.043 -1.5988  0.5992  2.2284
  127OSM   H17G13641   6.588   5.503   7.978  1.9012 -4.3589  3.6613
  127OSM   C18F13642   6.562   5.509   8.195 -0.1762  0.5319  0.2272
  127OSM   H18F13643   6.479   5.508   8.269 -0.9118  1.9113 -0.5658
  127OSM   H18G13644   6.649   5.568   8.230  0.6589 -0.6266  0.1498
  127OSM   H18H13645   6.587   5.401   8.184 -0.7601  0.4779 -0.6159
  128OSM      N13646   5.379   2.915   6.009  0.0541  0.2663 -0.1601
  128OSM    C1513647   5.432   3.027   6.091  1.0915  1.1686  0.3183
  128OSM   H15A13648   5.540   3.023   6.097  1.1510  0.1271 -1.1386
  128OSM   H15B13649   5.391   3.043   6.190 -0.0239  0.9126 -0.1080
  128OSM   H15C13650   5.406   3.116   6.036 -1.9054 -0.5554 -1.1000
  128OSM    C1413651   5.241   2.955   5.955 -0.2316 -0.6847  0.0401
  128OSM   H14A13652   5.254   3.013   5.865  2.5990  1.0613  1.5097
  128OSM   H14B13653   5.186   3.004   6.035  1.5535  1.3280  0.0632
  128OSM   H14C13654   5.188   2.865   5.928 -1.9002 -0.0787  1.2104
  128OSM    C1313655   5.468   2.905   5.889 -0.4861 -0.0118  0.1664
  128OSM   H13A13656   5.447   2.982   5.817 -2.8338  0.1058  0.9363
  128OSM   H13B13657   5.428   2.820   5.835 -1.4875  1.4252 -1.3955
  128OSM   H13C13658   5.573   2.913   5.911 -0.7620  0.9645  1.1216
  128OSM    C1213659   5.374   2.777   6.086  0.4463 -0.5066 -0.6665
  128OSM   H12A13660   5.304   2.786   6.168 -0.0850  1.8696 -1.3319
  128OSM   H12B13661   5.471   2.757   6.128  0.5695  1.9820  0.3211
  128OSM    C1113662   5.325   2.651   6.006  0.2275  0.2486 -0.3024
  128OSM   H11A13663   5.329   2.560   6.069  1.4148  0.0582 -0.6370
  128OSM   H11B13664   5.393   2.624   5.922  0.5560 -0.8025  0.2914
  128OSM      P13665   5.066   2.640   6.039  0.7442 -0.0289 -0.0537
  128OSM    O1313666   4.937   2.677   5.976  0.0784 -0.0897  0.2602
  128OSM    O1413667   5.082   2.498   6.073 -0.5630  0.1096 -0.5547
  128OSM    O1113668   5.067   2.716   6.172  0.1995 -0.2692  0.2102
  128OSM    O1213669   5.193   2.680   5.953  0.3426  0.1118  0.1027
  128OSM    C1S13670   5.067   2.647   6.295 -0.6951 -0.1836  0.7280
  128OSM    H1S13671   5.154   2.580   6.309 -0.6508  0.1609  2.2602
  128OSM    H1T13672   4.971   2.592   6.310 -1.3335  0.7281  0.0931
  128OSM     NF13673   5.020   2.668   6.537 -0.4982  0.1214 -0.5343
  128OSM    HNF13674   4.926   2.682   6.567 -0.5839  0.1663 -0.8257
  128OSM    C2S13675   5.063   2.745   6.426 -0.1385 -0.8821  0.3890
  128OSM    H2S13676   5.165   2.787   6.443 -0.3241 -0.4443  0.4404
  128OSM    C3S13677   4.969   2.862   6.397  0.0093 -0.5526 -0.1692
  128OSM    H3S13678   4.873   2.810   6.376 -0.1284 -0.6849  0.7839
  128OSM     O313679   4.995   2.941   6.280  0.4878 -0.0350  0.7207
  128OSM    HO313680   5.030   2.870   6.225  1.1177 -1.3553  2.7754
  128OSM    C4S13681   4.949   2.951   6.513  0.1643 -0.9964  0.2630
  128OSM    H4S13682   4.863   2.924   6.576  0.8643 -3.2840  0.2875
  128OSM    C5S13683   5.019   3.062   6.548  0.2813 -0.1819 -0.2725
  128OSM    H5S13684   5.105   3.093   6.487  2.5714 -2.0997  1.8779
  128OSM    C6S13685   4.999   3.151   6.665  0.4234 -0.1891 -0.1802
  128OSM    H6S13686   4.946   3.103   6.750 -0.8408  3.6401  1.3523
  128OSM    H6T13687   4.929   3.232   6.634 -0.0233 -0.6435 -0.3632
  128OSM    C7S13688   5.137   3.207   6.717  0.3349 -0.0968  0.0667
  128OSM    H7S13689   5.123   3.262   6.812  0.6511  1.2541 -0.6503
  128OSM    H7T13690   5.175   3.279   6.641  1.0701  0.2181  0.7267
  128OSM    C8S13691   5.247   3.095   6.756 -0.0581  0.3219  0.7336
  128OSM    H8S13692   5.331   3.158   6.794 -0.6567  1.5860 -0.0354
  128OSM    H8T13693   5.281   3.035   6.668 -3.1089 -0.5247  0.0891
  128OSM    C9S13694   5.200   3.005   6.874  0.3464 -0.2714  0.2113
  128OSM    H9S13695   5.116   2.940   6.841  0.0712 -0.3634  1.0961
  128OSM    H9T13696   5.156   3.075   6.948 -0.4255 -0.8326  0.2928
  128OSM   C10S13697   5.315   2.918   6.938 -0.2144  0.1098 -0.6067
  128OSM   H10S13698   5.412   2.967   6.958  0.7393 -1.3955 -1.4999
  128OSM   H10T13699   5.341   2.842   6.861 -2.5756  0.6306 -1.9753
  128OSM   C11S13700   5.283   2.835   7.066 -0.1970 -0.3899 -0.8712
  128OSM   H11S13701   5.368   2.764   7.078  1.7493  2.0323  0.2239
  128OSM   H11T13702   5.188   2.778   7.057 -2.0056  2.5285 -0.8794
  128OSM   C12S13703   5.261   2.924   7.183 -0.3031  0.7376 -0.0679
  128OSM   H12S13704   5.179   2.996   7.162  0.8206  2.4320  1.2775
  128OSM   H12T13705   5.348   2.992   7.193 -1.1580  2.0732 -1.3732
  128OSM   C13S13706   5.224   2.839   7.302  0.4062  0.3912  0.1249
  128OSM   H13S13707   5.289   2.750   7.318 -2.0546 -1.5311 -0.3299
  128OSM   H13T13708   5.122   2.795   7.292  0.0765  1.2725 -0.3864
  128OSM   C14S13709   5.234   2.911   7.431  0.1980 -0.0241 -0.0550
  128OSM   H14S13710   5.164   2.998   7.427 -0.3886 -0.4966 -0.1922
  128OSM   H14T13711   5.340   2.938   7.450  0.8585 -2.3416 -0.3267
  128OSM   C15S13712   5.202   2.828   7.552  0.0579 -0.0145  0.5298
  128OSM   H15S13713   5.239   2.726   7.528 -1.8288 -0.2468 -1.5553
  128OSM   H15T13714   5.093   2.804   7.553  0.1078 -0.3252 -1.0063
  128OSM   C16S13715   5.231   2.885   7.689 -0.3151 -0.1811  0.0672
  128OSM   H16S13716   5.140   2.944   7.716 -0.2685 -1.0074  2.1763
  128OSM   H16T13717   5.312   2.960   7.682 -0.7304  0.3057  0.4207
  128OSM   C17S13718   5.266   2.784   7.798  0.4344 -0.2938 -0.1276
  128OSM   H17S13719   5.356   2.728   7.767 -0.0256 -1.2374  0.1934
  128OSM   H17T13720   5.193   2.699   7.796 -0.0301  0.1323 -1.5869
  128OSM   C18S13721   5.278   2.840   7.938 -0.7675 -0.4087  0.1206
  128OSM   H18S13722   5.323   2.771   8.012 -1.0711  1.3400  1.9996
  128OSM   H18T13723   5.178   2.855   7.984 -0.1760 -2.9427  2.3400
  128OSM   H18U13724   5.335   2.935   7.945 -0.1652 -0.8562  1.4627
  128OSM    C1F13725   5.094   2.572   6.590  0.3872  0.0088  0.3137
  128OSM     OF13726   5.211   2.548   6.554 -0.2896  0.0728 -0.8720
  128OSM    C2F13727   5.034   2.489   6.693  0.2864  0.2346 -0.3711
  128OSM    H2F13728   5.025   2.382   6.664 -0.6973  0.4169 -0.7277
  128OSM    H2G13729   4.930   2.516   6.720  0.2555  0.7268 -0.9950
  128OSM    C3F13730   5.124   2.495   6.819 -0.2854  0.4615  0.6441
  128OSM    H3F13731   5.138   2.604   6.838 -1.9027  0.6087  1.1406
  128OSM    H3G13732   5.225   2.453   6.801 -0.9853 -1.1635  0.4178
  128OSM    C4F13733   5.075   2.430   6.946 -0.2068  0.0181 -1.0761
  128OSM    H4F13734   5.072   2.320   6.931  0.7025 -0.3307  1.1064
  128OSM    H4G13735   4.969   2.463   6.957  0.0897  0.2657  1.3128
  128OSM    C5F13736   5.166   2.462   7.071  0.3230  0.2706 -0.6758
  128OSM    H5F13737   5.182   2.572   7.073 -1.1999  0.5020 -0.4350
  128OSM    H5G13738   5.266   2.416   7.058  1.3352  1.9378  0.9827
  128OSM    C6F13739   5.103   2.412   7.199 -0.5634  0.3123  1.3769
  128OSM    H6F13740   5.124   2.304   7.208  1.2294  0.5329  0.0677
  128OSM    H6G13741   4.994   2.432   7.192 -0.8797 -1.4548  1.0560
  128OSM    C7F13742   5.178   2.471   7.322 -0.1801  0.9274 -0.2581
  128OSM    H7F13743   5.148   2.577   7.334 -3.5683 -0.2181  1.9921
  128OSM    H7G13744   5.289   2.467   7.313 -0.1326  0.5262  0.4572
  128OSM    C8F13745   5.127   2.405   7.453  1.1865 -0.6574 -0.5394
  128OSM    H8F13746   5.016   2.402   7.460  1.3152 -1.7532  1.2533
  128OSM    H8G13747   5.144   2.484   7.530 -0.3818 -2.0072  1.2249
  128OSM    C9F13748   5.187   2.275   7.495 -0.3370  0.4872  0.1240
  128OSM    H9F13749   5.200   2.197   7.418  2.5996  1.4190 -0.3822
  128OSM   C10F13750   5.242   2.246   7.616 -0.5175 -0.1952 -0.9764
  128OSM   H10F13751   5.286   2.147   7.631  0.6256  0.2904 -1.0957
  128OSM   C11F13752   5.249   2.334   7.738 -0.0721  0.4129 -0.7238
  128OSM   H11F13753   5.216   2.286   7.832  1.3977 -0.5126 -0.6619
  128OSM   H11G13754   5.166   2.408   7.738  1.1530  1.8437  1.7238
  128OSM   C12F13755   5.387   2.406   7.752  0.4436  0.2943  0.0998
  128OSM   H12F13756   5.459   2.321   7.749  0.0213 -0.0407 -1.0259
  128OSM   H12G13757   5.400   2.454   7.851  1.3681 -0.0877  0.1760
  128OSM   C13F13758   5.401   2.494   7.629  0.0349 -0.2582  0.8720
  128OSM   H13F13759   5.325   2.575   7.619  1.4376  0.7217 -2.9571
  128OSM   H13G13760   5.392   2.440   7.532  0.7406  0.0906  0.6078
  128OSM   C14F13761   5.539   2.561   7.621  0.4700  0.3954  0.8661
  128OSM   H14F13762   5.614   2.482   7.597  0.6065  0.5534  0.7746
  128OSM   H14G13763   5.573   2.610   7.715  0.9506 -2.5200  2.2808
  128OSM   C15F13764   5.539   2.659   7.508  0.0941 -1.6002 -0.2510
  128OSM   H15F13765   5.474   2.747   7.529 -1.8423 -3.4931  1.8861
  128OSM   H15G13766   5.512   2.600   7.419 -2.8838 -0.3179 -0.2491
  128OSM   C16F13767   5.680   2.720   7.489 -0.1999  0.2490  0.1827
  128OSM   H16F13768   5.735   2.633   7.446 -1.4084  0.0396 -0.9990
  128OSM   H16G13769   5.725   2.743   7.587  0.5150  0.0464 -0.0975
  128OSM   C17F13770   5.678   2.846   7.394 -0.1412  0.0462  0.0041
  128OSM   H17F13771   5.775   2.899   7.386 -0.7169  0.7617 -2.6966
  128OSM   H17G13772   5.599   2.917   7.426 -0.0278  0.1612  0.0310
  128OSM   C18F13773   5.650   2.803   7.250  0.4925  0.5121  0.4615
  128OSM   H18F13774   5.730   2.734   7.214 -0.3199 -0.2383  0.0779
  128OSM   H18G13775   5.652   2.895   7.189  1.2659  0.7993  0.9056
  128OSM   H18H13776   5.557   2.746   7.228  2.9731 -3.2769 -0.7639
  129OSM      N13777   3.372   4.747   5.945  0.6431  0.1634 -0.1500
  129OSM    C1513778   3.319   4.873   5.884 -0.2335  0.1746 -1.4561
  129OSM   H15A13779   3.397   4.944   5.865 -2.6100  3.1996 -0.3296
  129OSM   H15B13780   3.234   4.914   5.936  1.3982  0.9382  0.6703
  129OSM   H15C13781   3.281   4.848   5.786  1.8112  0.3654 -2.3072
  129OSM    C1413782   3.264   4.648   5.949 -0.2158 -0.5368 -0.2167
  129OSM   H14A13783   3.183   4.693   6.003 -0.1404 -1.9926  1.1621
  129OSM   H14B13784   3.295   4.560   6.005  0.8499  0.5155  0.8908
  129OSM   H14C13785   3.232   4.623   5.849  0.5469 -0.3188 -0.5258
  129OSM    C1313786   3.488   4.700   5.859  0.3518 -0.1726  0.1344
  129OSM   H13A13787   3.563   4.775   5.880 -0.3037  0.1861  1.1994
  129OSM   H13B13788   3.458   4.701   5.756  3.3932 -1.7324 -0.8305
  129OSM   H13C13789   3.528   4.603   5.883 -2.9116 -1.2056  1.6330
  129OSM    C1213790   3.423   4.774   6.083  0.0930 -0.2042  0.1830
  129OSM   H12A13791   3.347   4.809   6.152  0.3469 -0.6286  0.6827
  129OSM   H12B13792   3.503   4.846   6.073  0.3746 -0.3651  1.1933
  129OSM    C1113793   3.475   4.647   6.153  0.0902  0.0555 -0.1992
  129OSM   H11A13794   3.397   4.568   6.150  0.5971 -0.5207  1.3903
  129OSM   H11B13795   3.498   4.657   6.261 -1.0854 -5.2713  0.6774
  129OSM      P13796   3.733   4.657   6.116 -0.0101 -0.4563  0.1386
  129OSM    O1313797   3.826   4.583   6.028 -0.5369  0.4385  0.6465
  129OSM    O1413798   3.737   4.806   6.104 -0.1948 -0.4186 -0.2273
  129OSM    O1113799   3.771   4.628   6.262  0.4121  0.3396  0.1656
  129OSM    O1213800   3.591   4.593   6.093  0.2811  0.1496  0.3576
  129OSM    C1S13801   3.783   4.489   6.309  0.4831 -0.3637  0.4892
  129OSM    H1S13802   3.870   4.452   6.251  1.4471  0.8641  1.1278
  129OSM    H1T13803   3.700   4.427   6.268  0.8426  1.2488 -2.7575
  129OSM     NF13804   3.845   4.341   6.493  0.1491  0.2681  0.6390
  129OSM    HNF13805   3.767   4.280   6.503 -0.2181  1.0155  2.5059
  129OSM    C2S13806   3.814   4.478   6.461  0.1891  0.3860 -0.0477
  129OSM    H2S13807   3.895   4.549   6.486 -0.8012  1.5406 -0.0346
  129OSM    C3S13808   3.684   4.525   6.546  0.1952  0.6050 -0.4198
  129OSM    H3S13809   3.604   4.452   6.523  2.0652 -1.7996  0.4329
  129OSM     O313810   3.639   4.655   6.509 -0.2288 -0.2633 -0.3556
  129OSM    HO313811   3.709   4.688   6.453 -0.7644 -0.5003 -1.1848
  129OSM    C4S13812   3.719   4.513   6.690 -0.1333  0.3655 -0.4526
  129OSM    H4S13813   3.691   4.421   6.744 -0.1484  1.6377  1.7626
  129OSM    C5S13814   3.771   4.612   6.767  0.3041 -0.5605  0.1436
  129OSM    H5S13815   3.799   4.710   6.726 -0.9989 -0.4748 -0.5596
  129OSM    C6S13816   3.789   4.602   6.916  0.4655 -0.2482  0.0907
  129OSM    H6S13817   3.764   4.699   6.965 -0.1749 -0.1844 -0.3541
  129OSM    H6T13818   3.893   4.588   6.950 -0.0961 -1.2934  1.4311
  129OSM    C7S13819   3.716   4.485   6.989 -0.2060  0.1448 -0.1921
  129OSM    H7S13820   3.769   4.396   6.949 -2.0413 -1.9013  1.8154
  129OSM    H7T13821   3.607   4.471   6.970  0.1030 -2.7135 -0.0272
  129OSM    C8S13822   3.725   4.488   7.143  0.2754 -0.3101  0.2459
  129OSM    H8S13823   3.670   4.579   7.175  0.5297 -0.0793  0.0337
  129OSM    H8T13824   3.831   4.498   7.174  1.4120 -0.5214 -3.3224
  129OSM    C9S13825   3.659   4.364   7.203  0.1262 -0.1889  0.5098
  129OSM    H9S13826   3.712   4.274   7.166  1.0675  0.0312  1.3000
  129OSM    H9T13827   3.551   4.355   7.176 -0.0033 -1.3411  1.3664
  129OSM   C10S13828   3.661   4.363   7.356 -0.4427 -0.0724 -0.9475
  129OSM   H10S13829   3.584   4.438   7.385 -0.6925 -0.3072 -0.9964
  129OSM   H10T13830   3.762   4.391   7.394 -1.3292  0.7781  0.8220
  129OSM   C11S13831   3.616   4.224   7.413  0.2392  0.3151  0.3347
  129OSM   H11S13832   3.700   4.151   7.404  0.1215 -0.2102  3.0371
  129OSM   H11T13833   3.526   4.187   7.360  0.8767  0.6953 -1.0389
  129OSM   C12S13834   3.562   4.235   7.560  0.3359  0.5524 -0.0526
  129OSM   H12S13835   3.467   4.293   7.560 -0.0407 -0.0473 -0.6674
  129OSM   H12T13836   3.637   4.287   7.624  2.5778 -1.1240 -1.2498
  129OSM   C13S13837   3.534   4.093   7.624  0.0505 -0.5098 -0.6414
  129OSM   H13S13838   3.630   4.038   7.630 -1.8562 -3.8122  0.5933
  129OSM   H13T13839   3.457   4.044   7.561  1.9112 -2.1421 -1.6750
  129OSM   C14S13840   3.472   4.102   7.768 -0.3118  0.0841  0.2826
  129OSM   H14S13841   3.405   4.014   7.777 -1.0583  0.4129 -1.7104
  129OSM   H14T13842   3.410   4.192   7.782 -0.7197 -0.3337  1.1973
  129OSM   C15S13843   3.571   4.080   7.882 -0.6996  0.0243 -0.6825
  129OSM   H15S13844   3.642   4.165   7.875  1.1620 -1.5052 -0.7744
  129OSM   H15T13845   3.628   3.992   7.845 -0.5162 -0.0469 -0.2273
  129OSM   C16S13846   3.510   4.055   8.024  0.3159 -0.7122 -0.3713
  129OSM   H16S13847   3.597   4.027   8.087  1.4129  1.6018 -0.8103
  129OSM   H16T13848   3.434   3.974   8.013  1.0104 -1.2767 -1.1183
  129OSM   C17S13849   3.452   4.186   8.083 -0.1415 -0.4670  0.0007
  129OSM   H17S13850   3.382   4.234   8.012  0.5538 -1.8009 -1.6067
  129OSM   H17T13851   3.539   4.256   8.085  1.7727 -2.7198 -1.7810
  129OSM   C18S13852   3.388   4.168   8.223  0.0253 -0.2264  0.1228
  129OSM   H18S13853   3.454   4.110   8.291 -1.0940 -1.6488  0.0292
  129OSM   H18T13854   3.297   4.105   8.208  0.0309  0.0775 -1.2678
  129OSM   H18U13855   3.375   4.271   8.262 -4.8903 -1.2825  1.5439
  129OSM    C1F13856   3.970   4.295   6.458  0.3149 -0.3784 -0.1661
  129OSM     OF13857   4.052   4.370   6.404  0.3573 -0.2085  0.8152
  129OSM    C2F13858   3.995   4.151   6.495  0.0936 -0.9589 -0.0374
  129OSM    H2F13859   4.019   4.104   6.397 -1.9451 -0.2560 -0.9141
  129OSM    H2G13860   3.897   4.104   6.522  0.0120 -1.5024 -1.2398
  129OSM    C3F13861   4.118   4.142   6.591 -0.0162  0.4380  0.3815
  129OSM    H3F13862   4.201   4.193   6.537 -1.4663 -0.0904 -2.4161
  129OSM    H3G13863   4.142   4.034   6.593  0.5030  0.5534  0.5157
  129OSM    C4F13864   4.088   4.192   6.733 -0.4078 -0.3209  0.0127
  129OSM    H4F13865   4.057   4.299   6.724  0.7688 -0.1010 -1.5548
  129OSM    H4G13866   4.182   4.169   6.786 -0.6751 -4.0193 -0.9636
  129OSM    C5F13867   3.969   4.121   6.817  0.7637 -0.4978  0.3030
  129OSM    H5F13868   3.976   4.012   6.801  2.4568 -0.2571 -0.6344
  129OSM    H5G13869   3.873   4.154   6.771  2.0839 -1.1156 -3.0164
  129OSM    C6F13870   3.966   4.150   6.973 -0.2721 -0.0479 -0.2043
  129OSM    H6F13871   3.872   4.107   7.012  1.7483 -4.0307  0.5517
  129OSM    H6G13872   3.948   4.259   6.987  0.3962  0.2305 -1.3700
  129OSM    C7F13873   4.087   4.089   7.044  0.3986  0.1589 -0.2536
  129OSM    H7F13874   4.163   4.170   7.055 -0.0214  0.2154  2.5522
  129OSM    H7G13875   4.120   4.004   6.980  1.8954  0.1527  0.4911
  129OSM    C8F13876   4.032   4.031   7.178 -0.2992 -0.0559  0.4812
  129OSM    H8F13877   4.108   3.957   7.212 -0.6787  1.0038  3.8217
  129OSM    H8G13878   3.942   3.972   7.153  0.2553 -0.4178 -0.7116
  129OSM    C9F13879   4.004   4.138   7.279 -0.4813  0.2031  0.5897
  129OSM    H9F13880   3.977   4.234   7.233 -0.5468 -0.7560 -1.4290
  129OSM   C10F13881   4.033   4.125   7.410  0.0749  1.2738 -0.5881
  129OSM   H10F13882   4.033   4.219   7.467 -3.5902  1.0117 -0.1019
  129OSM   C11F13883   4.081   3.997   7.474  0.2347  0.0701  0.3739
  129OSM   H11F13884   4.191   4.003   7.493  0.1394 -1.9859  1.7624
  129OSM   H11G13885   4.067   3.910   7.407  0.7992 -0.9043  1.5029
  129OSM   C12F13886   4.002   3.981   7.599  0.2859  0.0869  0.1860
  129OSM   H12F13887   3.892   3.981   7.582  0.3433  0.7421 -0.2068
  129OSM   H12G13888   4.017   4.057   7.679  0.5993 -0.3591  0.5520
  129OSM   C13F13889   4.026   3.839   7.660 -0.2752 -0.2254 -0.3877
  129OSM   H13F13890   4.128   3.821   7.699  0.0157  1.6389 -0.2381
  129OSM   H13G13891   4.023   3.764   7.578  1.9248 -0.9669  0.1664
  129OSM   C14F13892   3.931   3.799   7.782 -0.4710  0.4328  0.2307
  129OSM   H14F13893   3.827   3.796   7.743  0.0403 -0.1115 -1.1503
  129OSM   H14G13894   3.950   3.880   7.855  0.2838 -0.4726  1.0520
  129OSM   C15F13895   3.961   3.660   7.831 -0.0350  0.4112  0.8737
  129OSM   H15F13896   4.068   3.660   7.860  0.1948 -0.7103  0.0210
  129OSM   H15G13897   3.947   3.582   7.753 -1.1236 -0.0898  1.5556
  129OSM   C16F13898   3.889   3.615   7.958 -0.1423 -0.1601  0.0470
  129OSM   H16F13899   3.879   3.504   7.961  0.5666 -0.3092 -2.2822
  129OSM   H16G13900   3.786   3.653   7.971  0.0196  0.5870 -0.7997
  129OSM   C17F13901   3.967   3.653   8.088  0.3550 -0.3219 -1.2368
  129OSM   H17F13902   3.947   3.762   8.096  1.3209 -0.2824  0.8818
  129OSM   H17G13903   4.077   3.643   8.079  0.3846  0.6012 -2.0442
  129OSM   C18F13904   3.925   3.580   8.215 -0.2925 -0.8683 -0.2586
  129OSM   H18F13905   3.838   3.641   8.246  1.3270 -0.1905  3.1430
  129OSM   H18G13906   4.003   3.582   8.295 -0.3970  1.2540 -0.1836
  129OSM   H18H13907   3.914   3.470   8.198 -1.2484 -0.6936 -0.8145
  130OSM      N13908   4.352   1.844   6.414 -0.4839  0.1467 -0.5559
  130OSM    C1513909   4.451   1.873   6.301 -0.8383  0.6758 -0.0537
  130OSM   H15A13910   4.404   1.886   6.205 -1.1665 -0.6218 -0.0800
  130OSM   H15B13911   4.513   1.784   6.295  2.4207  2.5993  3.2156
  130OSM   H15C13912   4.521   1.951   6.327  1.2729 -1.2745  0.3487
  130OSM    C1413913   4.322   1.701   6.403  0.4175  0.7875  0.3250
  130OSM   H14A13914   4.257   1.674   6.484  1.1159  3.1327  1.7173
  130OSM   H14B13915   4.409   1.637   6.413 -0.1775 -0.1753 -0.4995
  130OSM   H14C13916   4.283   1.678   6.305  1.3930  1.6467 -0.2760
  130OSM    C1313917   4.409   1.880   6.543  0.6715 -1.0009  0.0047
  130OSM   H13A13918   4.435   1.985   6.537  1.4766 -1.3475 -3.2708
  130OSM   H13B13919   4.497   1.819   6.556  0.0660 -2.8386 -3.8247
  130OSM   H13C13920   4.344   1.861   6.628  0.2078  0.1333 -0.0908
  130OSM    C1213921   4.225   1.918   6.393  0.3717  0.0777 -0.0900
  130OSM   H12A13922   4.223   2.011   6.448 -0.2109 -2.0607  3.7053
  130OSM   H12B13923   4.145   1.870   6.448 -0.9064 -3.4463 -4.6375
  130OSM    C1113924   4.176   1.922   6.249  0.1785 -0.2869 -1.1184
  130OSM   H11A13925   4.254   1.971   6.188 -0.4368  1.5903 -0.4111
  130OSM   H11B13926   4.100   2.003   6.256 -1.8015 -2.1535 -0.3075
  130OSM      P13927   3.980   1.769   6.210 -0.2100 -0.0188 -0.4633
  130OSM    O1313928   3.908   1.876   6.141  0.5933 -0.3079  0.5897
  130OSM    O1413929   3.952   1.634   6.167 -0.5055 -0.2296  0.0202
  130OSM    O1113930   3.960   1.791   6.360  0.5726 -0.0559 -0.2710
  130OSM    O1213931   4.137   1.796   6.192 -0.1745 -0.7186 -0.0221
  130OSM    C1S13932   3.878   1.700   6.430  0.2768  0.2665  0.0874
  130OSM    H1S13933   3.933   1.603   6.435  0.1383  0.1740 -0.1843
  130OSM    H1T13934   3.784   1.677   6.377 -0.6412  0.9309  1.3891
  130OSM     NF13935   3.767   1.627   6.640 -0.2076  0.2783 -0.6527
  130OSM    HNF13936   3.668   1.623   6.640 -0.1617 -0.9143 -0.3661
  130OSM    C2S13937   3.837   1.741   6.580 -0.2142  0.0007  0.0993
  130OSM    H2S13938   3.928   1.743   6.643 -0.3187 -1.8516  0.3384
  130OSM    C3S13939   3.768   1.874   6.583  1.3350 -0.7637  0.2541
  130OSM    H3S13940   3.664   1.866   6.544  0.4170  1.6406  2.1116
  130OSM     O313941   3.844   1.974   6.510 -0.4804 -0.1557 -0.1994
  130OSM    HO313942   3.895   1.916   6.452 -0.3419  0.1225 -0.3579
  130OSM    C4S13943   3.751   1.916   6.731  0.3752  0.2417 -0.4862
  130OSM    H4S13944   3.661   1.864   6.769  0.2841 -0.5984 -1.7960
  130OSM    C5S13945   3.812   2.013   6.806  0.1997 -0.3280  0.4058
  130OSM    H5S13946   3.876   2.085   6.754 -1.9240  2.0710  0.9778
  130OSM    C6S13947   3.792   2.043   6.948 -0.2167  0.1075 -0.5612
  130OSM    H6S13948   3.742   2.141   6.961 -1.1630 -0.5559  1.0053
  130OSM    H6T13949   3.895   2.049   6.989 -0.3532  0.2486 -0.2355
  130OSM    C7S13950   3.715   1.940   7.028 -0.2379  0.3315 -0.4138
  130OSM    H7S13951   3.764   1.841   7.032 -0.4207  0.2416 -0.3803
  130OSM    H7T13952   3.613   1.915   6.993 -0.7826  1.3560  0.3908
  130OSM    C8S13953   3.696   1.972   7.176 -0.5189 -0.9063 -0.3820
  130OSM    H8S13954   3.621   1.903   7.220 -0.2590 -0.8717  0.1139
  130OSM    H8T13955   3.645   2.070   7.183 -0.1347 -0.7980  1.0832
  130OSM    C9S13956   3.823   1.974   7.263  0.2858 -0.3625 -0.0078
  130OSM    H9S13957   3.875   2.068   7.235  1.3022 -1.2250 -1.0362
  130OSM    H9T13958   3.885   1.884   7.245 -0.2508 -1.1667  2.0307
  130OSM   C10S13959   3.791   1.966   7.410  0.3272 -0.5339 -0.0733
  130OSM   H10S13960   3.769   1.858   7.423 -1.7110 -0.6032 -3.5451
  130OSM   H10T13961   3.704   2.025   7.447  0.0219 -0.2713 -1.1884
  130OSM   C11S13962   3.907   2.000   7.492 -0.0549  0.1274  0.2378
  130OSM   H11S13963   3.921   2.108   7.468  0.5895  0.3998  1.8239
  130OSM   H11T13964   3.999   1.955   7.449 -0.6364 -1.3873  0.5486
  130OSM   C12S13965   3.898   1.957   7.642  0.5101 -0.7907  0.1651
  130OSM   H12S13966   3.816   2.021   7.682  1.5362 -0.0646  1.1515
  130OSM   H12T13967   3.991   1.989   7.695  1.0439  0.3888 -1.4233
  130OSM   C13S13968   3.877   1.811   7.677  0.7654 -0.2070  0.3112
  130OSM   H13S13969   3.965   1.745   7.656  1.2475  0.1766  1.1312
  130OSM   H13T13970   3.794   1.765   7.618  0.4011  0.8985 -0.0399
  130OSM   C14S13971   3.847   1.795   7.826 -0.1245  0.3426 -0.1415
  130OSM   H14S13972   3.909   1.864   7.887 -1.9330  2.2124 -0.3536
  130OSM   H14T13973   3.888   1.694   7.844  0.4440  0.0492 -2.9462
  130OSM   C15S13974   3.707   1.787   7.870  0.3779  0.3456  0.4946
  130OSM   H15S13975   3.652   1.712   7.809 -0.3756  1.6067 -0.3942
  130OSM   H15T13976   3.659   1.887   7.858  1.3400  0.9116  1.2802
  130OSM   C16S13977   3.692   1.750   8.017  0.3048  0.3755  0.1245
  130OSM   H16S13978   3.599   1.793   8.060 -0.4373  0.9870 -2.0371
  130OSM   H16T13979   3.767   1.812   8.071 -1.7134  1.8304  1.3443
  130OSM   C17S13980   3.712   1.597   8.052 -0.0487 -0.0464  0.0032
  130OSM   H17S13981   3.799   1.573   7.986 -1.1368  1.4871 -2.0533
  130OSM   H17T13982   3.630   1.531   8.016  1.1304 -0.8402 -1.3003
  130OSM   C18S13983   3.743   1.568   8.197 -0.4402 -1.0279 -0.2181
  130OSM   H18S13984   3.645   1.571   8.250  0.9197 -0.4825  2.3253
  130OSM   H18T13985   3.827   1.631   8.232  0.8165 -4.1055  2.6064
  130OSM   H18U13986   3.784   1.465   8.196 -0.6287 -1.1129  0.3575
  130OSM    C1F13987   3.824   1.510   6.668  0.6968 -0.2300  0.4680
  130OSM     OF13988   3.938   1.484   6.649 -0.2676  0.7613  0.7486
  130OSM    C2F13989   3.729   1.410   6.730 -0.9211 -0.5398  0.3849
  130OSM    H2F13990   3.753   1.312   6.685 -1.6677 -0.7167  0.3510
  130OSM    H2G13991   3.621   1.436   6.724 -0.3472  1.9775  0.4129
  130OSM    C3F13992   3.751   1.400   6.881 -0.1969  0.2021  0.4738
  130OSM    H3F13993   3.855   1.374   6.909 -0.5182  0.7093  2.1822
  130OSM    H3G13994   3.698   1.308   6.913 -1.2815  0.7108  0.1603
  130OSM    C4F13995   3.677   1.513   6.958 -0.3722 -0.0604 -0.0310
  130OSM    H4F13996   3.570   1.520   6.930 -0.6588 -0.3873  0.9469
  130OSM    H4G13997   3.726   1.609   6.932 -0.0973 -0.1084  0.2928
  130OSM    C5F13998   3.696   1.522   7.111 -0.0335 -0.3170 -0.5391
  130OSM    H5F13999   3.642   1.437   7.160 -0.5260 -0.6885 -1.7200
  130OSM    H5G14000   3.649   1.615   7.150 -1.8489 -1.3880 -0.0603
  130OSM    C6F14001   3.843   1.533   7.159 -0.3673 -0.6338  0.2879
  130OSM    H6F14002   3.894   1.604   7.090  1.3969  0.1520  2.3581
  130OSM    H6G14003   3.892   1.434   7.158 -0.7015 -0.8100  0.9846
  130OSM    C7F14004   3.855   1.588   7.299  0.4541 -0.1670  0.0384
  130OSM    H7F14005   3.801   1.684   7.297 -0.4264 -0.6751 -3.2328
  130OSM    H7G14006   3.960   1.613   7.326 -0.0799  1.4472  0.6302
  130OSM    C8F14007   3.803   1.505   7.417  0.0837 -0.2015  0.7849
  130OSM    H8F14008   3.698   1.481   7.389  0.1949  1.7917 -1.4876
  130OSM    H8G14009   3.799   1.560   7.514  0.8386 -1.2930  1.4457
  130OSM    C9F14010   3.890   1.381   7.424  0.1023 -0.4890 -0.2262
  130OSM    H9F14011   3.892   1.327   7.328  0.3096  1.2552 -1.2386
  130OSM   C10F14012   3.940   1.326   7.533 -0.9153  0.6163 -1.0227
  130OSM   H10F14013   3.989   1.229   7.522 -0.8543  0.4904  0.3423
  130OSM   C11F14014   3.925   1.372   7.676  0.1684 -0.5282 -0.7834
  130OSM   H11F14015   3.823   1.409   7.701 -0.0392 -2.5367  1.5196
  130OSM   H11G14016   3.992   1.459   7.689  0.5168 -1.0854  1.5350
  130OSM   C12F14017   3.960   1.282   7.793  0.2020  0.3052  0.7592
  130OSM   H12F14018   4.069   1.261   7.802  0.0959  0.1132  1.7369
  130OSM   H12G14019   3.903   1.193   7.758 -1.7158  2.1551 -0.9496
  130OSM   C13F14020   3.921   1.336   7.923  0.2311  0.4737 -0.2417
  130OSM   H13F14021   3.812   1.356   7.929  0.1743  1.1824 -2.9808
  130OSM   H13G14022   3.958   1.441   7.924 -0.2495  0.6486  1.5623
  130OSM   C14F14023   3.967   1.253   8.041  0.3168  0.5060 -0.3076
  130OSM   H14F14024   3.938   1.147   8.022  0.6525  0.6571 -1.7129
  130OSM   H14G14025   3.915   1.280   8.136 -0.3522 -1.3921 -0.1245
  130OSM   C15F14026   4.118   1.267   8.079  0.2988 -0.2604  0.1029
  130OSM   H15F14027   4.182   1.242   7.992  0.5210 -2.0679  0.7840
  130OSM   H15G14028   4.141   1.190   8.155 -0.7671  0.5025  1.2335
  130OSM   C16F14029   4.148   1.411   8.140  0.8405 -0.0494 -0.4000
  130OSM   H16F14030   4.050   1.431   8.187  0.3197 -0.2390 -1.3902
  130OSM   H16G14031   4.157   1.504   8.080  2.7955 -1.2133 -1.9887
  130OSM   C17F14032   4.266   1.416   8.237  0.5315 -0.7545  0.4775
  130OSM   H17F14033   4.360   1.386   8.185  0.6525  1.9167 -0.9544
  130OSM   H17G14034   4.254   1.357   8.330 -0.9778 -0.6005  0.3910
  130OSM   C18F14035   4.292   1.553   8.295  0.2196  0.2654 -0.0706
  130OSM   H18F14036   4.210   1.586   8.363  2.4832  3.1165  1.4104
  130OSM   H18G14037   4.296   1.624   8.210 -0.4556 -1.1083 -1.2531
  130OSM   H18H14038   4.387   1.555   8.353  1.9576  1.4153 -2.8880
  131OSM      N14039   4.667   5.824   5.889  0.1096  0.1667  0.0352
  131OSM    C1514040   4.724   5.696   5.845  0.4989  0.9348  0.5513
  131OSM   H15A14041   4.648   5.620   5.855  3.6832 -2.4649 -0.0584
  131OSM   H15B14042   4.813   5.673   5.903  0.4046  1.9041  1.1077
  131OSM   H15C14043   4.756   5.690   5.742 -0.8506  0.8851  0.1326
  131OSM    C1414044   4.550   5.866   5.811  0.5407  0.0710  0.4864
  131OSM   H14A14045   4.572   5.880   5.706 -1.2178 -0.3818  0.0369
  131OSM   H14B14046   4.516   5.954   5.862  1.3633  0.8203 -0.2423
  131OSM   H14C14047   4.477   5.789   5.830  1.9479 -0.7697  2.6280
  131OSM    C1314048   4.619   5.808   6.025  0.1726  0.0902 -0.4122
  131OSM   H13A14049   4.574   5.896   6.068 -0.0614 -1.2227  2.1395
  131OSM   H13B14050   4.705   5.785   6.086  0.1565  0.5713 -0.2066
  131OSM   H13C14051   4.560   5.718   6.034  0.7047 -0.4489 -2.1601
  131OSM    C1214052   4.778   5.936   5.884  0.1332 -0.6191  0.2298
  131OSM   H12A14053   4.796   5.956   5.780 -0.5424 -0.5193  0.1275
  131OSM   H12B14054   4.863   5.886   5.928 -1.1712 -1.1560  2.2426
  131OSM    C1114055   4.752   6.073   5.937  0.1779 -0.5621 -0.1597
  131OSM   H11A14056   4.674   6.111   5.868  1.5939 -0.8199 -1.9194
  131OSM   H11B14057   4.834   6.145   5.916  0.2371 -0.1562  1.3576
  131OSM      P14058   4.573   6.152   6.108 -0.4130 -0.1159 -0.1063
  131OSM    O1314059   4.581   6.298   6.081 -0.0539  0.0412 -0.2867
  131OSM    O1414060   4.461   6.087   6.041  0.0226 -0.2095  0.0504
  131OSM    O1114061   4.553   6.122   6.256  0.0822 -0.1245  0.3025
  131OSM    O1214062   4.715   6.079   6.075  0.2135  0.3846 -0.1074
  131OSM    C1S14063   4.673   6.132   6.337  0.3912 -0.4284  0.2629
  131OSM    H1S14064   4.744   6.213   6.310 -1.0064 -0.3881 -3.6219
  131OSM    H1T14065   4.721   6.034   6.353 -0.8193 -1.2917 -1.2552
  131OSM     NF14066   4.769   6.176   6.563  0.0090  0.0778 -0.3528
  131OSM    HNF14067   4.786   6.111   6.637  0.1768 -0.8671 -1.2082
  131OSM    C2S14068   4.641   6.171   6.491  0.3857  0.4368  0.0161
  131OSM    H2S14069   4.600   6.274   6.486 -1.7605 -0.3771  0.2642
  131OSM    C3S14070   4.547   6.063   6.554  0.3495 -0.1584 -0.5199
  131OSM    H3S14071   4.590   5.961   6.548  0.9110 -0.0369  1.2489
  131OSM     O314072   4.425   6.039   6.481 -0.1563 -0.0604  0.3928
  131OSM    HO314073   4.444   6.091   6.402 -1.5521 -1.8359 -1.1419
  131OSM    C4S14074   4.516   6.090   6.704  0.2163 -1.0572  0.1902
  131OSM    H4S14075   4.577   6.028   6.772 -1.4084 -1.3126  1.4463
  131OSM    C5S14076   4.421   6.175   6.754 -1.0604  0.3650  0.5580
  131OSM    H5S14077   4.368   6.252   6.697 -0.1182  1.4066  1.0570
  131OSM    C6S14078   4.395   6.196   6.901 -0.2951  0.9568 -0.3843
  131OSM    H6S14079   4.296   6.156   6.930  0.8408 -1.8375 -0.1576
  131OSM    H6T14080   4.391   6.304   6.925 -2.0237  0.4052  2.0510
  131OSM    C7S14081   4.494   6.129   6.996  0.0963  0.9430 -0.1215
  131OSM    H7S14082   4.585   6.193   6.987 -0.6400  1.8209 -1.5917
  131OSM    H7T14083   4.511   6.022   6.971 -0.7214  0.9730 -0.8252
  131OSM    C8S14084   4.455   6.143   7.143  0.6142 -0.7912  0.1546
  131OSM    H8S14085   4.542   6.100   7.198  1.4905 -1.8522 -1.9841
  131OSM    H8T14086   4.367   6.079   7.163  1.0888 -0.6774  2.8682
  131OSM    C9S14087   4.426   6.280   7.206  0.0677 -0.0756 -0.4402
  131OSM    H9S14088   4.326   6.311   7.169  1.5566  2.0181 -2.8720
  131OSM    H9T14089   4.497   6.356   7.167 -1.4251  1.5665  0.0140
  131OSM   C10S14090   4.435   6.267   7.355 -0.3029  0.0962  0.5709
  131OSM   H10S14091   4.543   6.253   7.376  0.5106  2.5388 -1.7096
  131OSM   H10T14092   4.387   6.175   7.394 -0.5923  0.7961  1.9162
  131OSM   C11S14093   4.385   6.384   7.442  0.0163  0.8130 -0.8894
  131OSM   H11S14094   4.288   6.417   7.400  0.1882 -0.5406 -2.4324
  131OSM   H11T14095   4.452   6.473   7.438 -0.0427  0.8634 -0.7225
  131OSM   C12S14096   4.380   6.350   7.589  0.1714 -0.3567  0.3516
  131OSM   H12S14097   4.328   6.252   7.599 -1.1366  0.1675 -1.2537
  131OSM   H12T14098   4.320   6.429   7.639 -2.9611 -1.5746 -1.3377
  131OSM   C13S14099   4.521   6.340   7.652 -0.0480 -0.0534  0.4620
  131OSM   H13S14100   4.559   6.444   7.659  0.7636 -0.3989  1.3531
  131OSM   H13T14101   4.592   6.267   7.607 -0.3089 -0.4891  0.7551
  131OSM   C14S14102   4.499   6.275   7.794 -0.2255 -0.0076  0.1215
  131OSM   H14S14103   4.458   6.172   7.784  4.1323 -1.8477  0.2050
  131OSM   H14T14104   4.415   6.333   7.839  0.2597  1.5994 -0.9976
  131OSM   C15S14105   4.622   6.284   7.882  0.3832  0.3696 -0.0827
  131OSM   H15S14106   4.653   6.391   7.881 -1.7689  1.0333  0.7015
  131OSM   H15T14107   4.706   6.230   7.833  0.1003  2.4924 -3.0136
  131OSM   C16S14108   4.607   6.248   8.032 -0.2122  0.2600  0.7113
  131OSM   H16S14109   4.706   6.265   8.079 -0.5662  2.1044  0.8195
  131OSM   H16T14110   4.591   6.139   8.047 -0.8001  0.4554  1.5115
  131OSM   C17S14111   4.503   6.326   8.110  0.0223  0.2746 -0.0394
  131OSM   H17S14112   4.404   6.315   8.061  0.7537 -0.4683 -1.3953
  131OSM   H17T14113   4.528   6.433   8.123 -0.1941  0.2070  0.9852
  131OSM   C18S14114   4.496   6.282   8.256 -0.2914  0.7935  0.6229
  131OSM   H18S14115   4.462   6.176   8.257 -2.3237  1.4273  0.3555
  131OSM   H18T14116   4.424   6.349   8.307 -1.1266  0.7232 -0.4624
  131OSM   H18U14117   4.599   6.294   8.297  0.9357 -0.3572 -2.0094
  131OSM    C1F14118   4.865   6.272   6.546  0.1241  0.5837 -0.3929
  131OSM     OF14119   4.841   6.362   6.467 -0.2834 -0.6654 -0.4092
  131OSM    C2F14120   4.986   6.268   6.635  0.3094  0.3014  0.3276
  131OSM    H2F14121   5.082   6.279   6.580 -0.0545  0.4025 -0.2834
  131OSM    H2G14122   4.979   6.171   6.689  2.4420 -0.1935 -0.2307
  131OSM    C3F14123   4.982   6.390   6.733  0.3568 -0.8354  0.0881
  131OSM    H3F14124   4.877   6.399   6.768  1.1018  0.9506  1.9714
  131OSM    H3G14125   4.988   6.483   6.672  0.1455 -1.0020 -0.1892
  131OSM    C4F14126   5.070   6.393   6.850  0.2823 -0.1017 -0.4859
  131OSM    H4F14127   5.055   6.497   6.887  3.1428  0.4235 -0.6930
  131OSM    H4G14128   5.173   6.376   6.812  0.0318 -0.8436 -0.8416
  131OSM    C5F14129   5.037   6.297   6.962 -0.0837  0.0862 -0.0382
  131OSM    H5F14130   5.057   6.193   6.927 -1.8599 -1.3025  2.8748
  131OSM    H5G14131   4.932   6.307   6.997  0.2891  0.0725  1.1101
  131OSM    C6F14132   5.138   6.321   7.072  0.4660  0.3746  0.1287
  131OSM    H6F14133   5.119   6.419   7.119  1.0911  1.0247 -0.9531
  131OSM    H6G14134   5.240   6.317   7.027  0.5474  0.2940  0.3195
  131OSM    C7F14135   5.156   6.208   7.173  0.0958  0.1539  0.2717
  131OSM    H7F14136   5.159   6.110   7.120 -0.9049 -0.1643  0.7885
  131OSM    H7G14137   5.062   6.194   7.230 -0.4020 -1.1015 -0.8207
  131OSM    C8F14138   5.282   6.228   7.252  0.1959  0.8404  0.0193
  131OSM    H8F14139   5.372   6.237   7.187  2.3987  0.4743  2.9396
  131OSM    H8G14140   5.299   6.145   7.323 -0.9482 -1.3954 -2.2704
  131OSM    C9F14141   5.255   6.352   7.337 -0.1627  0.9780 -0.2296
  131OSM    H9F14142   5.148   6.376   7.347  0.2601  2.0523  2.0945
  131OSM   C10F14143   5.346   6.439   7.396 -0.4418 -0.1605 -0.5783
  131OSM   H10F14144   5.319   6.513   7.472 -0.4371  0.2847 -1.0010
  131OSM   C11F14145   5.504   6.424   7.394 -0.0110 -0.5040 -0.0348
  131OSM   H11F14146   5.542   6.494   7.472  0.6224 -1.3570  0.4254
  131OSM   H11G14147   5.533   6.443   7.288  0.9002 -1.3283  0.0560
  131OSM   C12F14148   5.559   6.291   7.445  0.0239  0.7852  0.2719
  131OSM   H12F14149   5.669   6.278   7.430 -0.2924  0.1038 -1.5493
  131OSM   H12G14150   5.523   6.205   7.384 -0.0641 -0.9831  2.6944
  131OSM   C13F14151   5.532   6.276   7.591 -0.3244 -0.0374  0.2503
  131OSM   H13F14152   5.424   6.295   7.606 -0.4709  2.3312 -3.2372
  131OSM   H13G14153   5.588   6.355   7.645 -0.4694  0.0899  0.2118
  131OSM   C14F14154   5.580   6.140   7.647 -0.8703 -0.2593 -0.3766
  131OSM   H14F14155   5.690   6.147   7.634 -0.5807  1.1332  2.3976
  131OSM   H14G14156   5.543   6.058   7.582  1.1227 -2.9070  1.7309
  131OSM   C15F14157   5.536   6.122   7.793 -0.3282 -0.0568 -0.2124
  131OSM   H15F14158   5.565   6.020   7.828  0.5181  0.8313  1.7372
  131OSM   H15G14159   5.427   6.129   7.815 -0.1466  1.7122  0.1929
  131OSM   C16F14160   5.592   6.226   7.896 -0.3713  0.0428 -0.4648
  131OSM   H16F14161   5.537   6.225   7.993  1.2075 -1.8513  0.4407
  131OSM   H16G14162   5.584   6.328   7.852 -0.5044  0.7232  1.0775
  131OSM   C17F14163   5.743   6.197   7.915  0.4579  0.4933 -0.2654
  131OSM   H17F14164   5.784   6.149   7.823 -3.8522 -1.5631 -1.2357
  131OSM   H17G14165   5.753   6.115   7.989 -0.1954  0.8971  0.2683
  131OSM   C18F14166   5.819   6.312   7.982 -0.3599 -0.7800 -0.1825
  131OSM   H18F14167   5.917   6.276   8.020 -0.3351 -0.9369 -0.3954
  131OSM   H18G14168   5.762   6.344   8.072  1.4499  1.2845  0.2859
  131OSM   H18H14169   5.835   6.398   7.914  0.0032 -0.2188  0.5948
  132OSM      N14170   6.249   3.267   6.130  0.2610  0.5332  0.0845
  132OSM    C1514171   6.376   3.253   6.050  0.4834  0.0166  0.0609
  132OSM   H15A14172   6.374   3.300   5.953 -1.3109  1.0217  0.5669
  132OSM   H15B14173   6.394   3.148   6.034  1.4133  0.4248 -1.7789
  132OSM   H15C14174   6.459   3.273   6.117 -0.4579 -4.3073  2.7343
  132OSM    C1414175   6.237   3.410   6.157  0.1016 -0.2405 -0.2558
  132OSM   H14A14176   6.309   3.434   6.234  1.8591  0.1461 -1.9869
  132OSM   H14B14177   6.137   3.444   6.179  0.3021 -1.0893  2.1998
  132OSM   H14C14178   6.267   3.463   6.068 -0.0399  0.6128  0.2076
  132OSM    C1314179   6.133   3.228   6.052  0.5497  0.0912  0.1289
  132OSM   H13A14180   6.109   3.288   5.965 -1.0215 -1.8000 -0.7802
  132OSM   H13B14181   6.049   3.227   6.119  2.1942 -1.1691  2.2241
  132OSM   H13C14182   6.147   3.129   6.009  0.5527 -0.8995  2.3557
  132OSM    C1214183   6.262   3.182   6.257 -0.4340  0.1934 -0.6579
  132OSM   H12A14184   6.298   3.083   6.234 -0.9462  0.3014 -1.9910
  132OSM   H12B14185   6.161   3.163   6.290 -0.2633 -0.3314 -0.4467
  132OSM    C1114186   6.333   3.248   6.383 -0.3111  0.0354 -0.2327
  132OSM   H11A14187   6.437   3.275   6.358 -0.1956  0.6872  0.9009
  132OSM   H11B14188   6.334   3.161   6.452  1.4633 -1.0508 -1.5888
  132OSM      P14189   6.142   3.359   6.514 -0.4987 -0.1206  0.0861
  132OSM    O1314190   6.073   3.490   6.509  0.3502  0.5342 -0.3262
  132OSM    O1414191   6.074   3.239   6.461  0.3428 -0.3929 -0.3028
  132OSM    O1114192   6.212   3.340   6.660 -0.4667 -0.5437 -0.2509
  132OSM    O1214193   6.273   3.375   6.432  0.3090  0.1404 -0.2300
  132OSM    C1S14194   6.198   3.450   6.752 -0.1858 -0.0926 -0.6796
  132OSM    H1S14195   6.104   3.433   6.809  1.1057 -1.0973  1.2185
  132OSM    H1T14196   6.209   3.549   6.703 -1.6875  0.1359 -0.5666
  132OSM     NF14197   6.294   3.545   6.968 -0.9023 -0.1416  0.9097
  132OSM    HNF14198   6.357   3.621   6.981 -0.3697 -0.5797  0.9157
  132OSM    C2S14199   6.314   3.449   6.856 -0.1116 -0.1146 -0.2213
  132OSM    H2S14200   6.311   3.347   6.900  0.6490 -0.1122 -0.1425
  132OSM    C3S14201   6.448   3.471   6.771 -0.8202 -0.5559 -0.4378
  132OSM    H3S14202   6.444   3.567   6.715 -0.5579 -0.3265 -0.0712
  132OSM     O314203   6.469   3.366   6.677  0.3744 -0.0430  0.3098
  132OSM    HO314204   6.379   3.339   6.658  0.1791  2.3045 -2.5304
  132OSM    C4S14205   6.562   3.472   6.868 -0.4084  1.0605 -0.6517
  132OSM    H4S14206   6.561   3.392   6.943 -0.1973  0.3788 -1.3589
  132OSM    C5S14207   6.664   3.568   6.875 -0.2525  0.6096 -0.2514
  132OSM    H5S14208   6.669   3.660   6.815  2.2076  0.3299 -0.5394
  132OSM    C6S14209   6.758   3.571   6.982 -0.7090 -0.0417 -0.4846
  132OSM    H6S14210   6.758   3.669   7.033  0.0141 -0.6536  0.7010
  132OSM    H6T14211   6.862   3.559   6.942 -0.4197  1.9462 -0.3380
  132OSM    C7S14212   6.738   3.477   7.106 -0.1611 -0.0652  0.1726
  132OSM    H7S14213   6.824   3.472   7.177 -0.4741  0.4221  0.5884
  132OSM    H7T14214   6.735   3.373   7.068 -3.1376 -0.0323  0.2562
  132OSM    C8S14215   6.624   3.516   7.203 -0.3204 -0.2588  0.0914
  132OSM    H8S14216   6.602   3.432   7.273  2.5778 -0.9486  0.2485
  132OSM    H8T14217   6.525   3.537   7.159 -0.1339  1.2859  0.3924
  132OSM    C9S14218   6.644   3.634   7.297 -0.6037  0.0905  0.9101
  132OSM    H9S14219   6.664   3.731   7.248 -1.0674 -0.7066 -0.8964
  132OSM    H9T14220   6.725   3.613   7.371  1.1980  0.1364 -1.0188
  132OSM   C10S14221   6.513   3.657   7.379 -0.7529 -0.7415  0.3077
  132OSM   H10S14222   6.467   3.564   7.419 -2.5225  0.8747  2.1683
  132OSM   H10T14223   6.446   3.687   7.296 -2.1298  1.4931  2.1503
  132OSM   C11S14224   6.511   3.756   7.495  0.1242  0.1925 -0.1496
  132OSM   H11S14225   6.405   3.773   7.524  0.2950  0.7060  0.1843
  132OSM   H11T14226   6.534   3.862   7.468  1.8830 -0.5023 -1.5170
  132OSM   C12S14227   6.575   3.706   7.627 -0.4487 -0.2617 -0.2137
  132OSM   H12S14228   6.676   3.752   7.624 -0.0005 -1.1880  0.4092
  132OSM   H12T14229   6.579   3.595   7.619  2.1820 -0.0727 -2.1159
  132OSM   C13S14230   6.504   3.737   7.757  0.0748  0.9240 -0.3189
  132OSM   H13S14231   6.398   3.705   7.762  0.0891  0.7293 -1.2025
  132OSM   H13T14232   6.507   3.848   7.762  2.7602  0.8569  0.2257
  132OSM   C14S14233   6.577   3.686   7.884 -0.1122  0.1108 -0.3961
  132OSM   H14S14234   6.683   3.717   7.873  0.0882 -0.1115  0.9008
  132OSM   H14T14235   6.582   3.575   7.878  2.5706  0.2466 -2.0007
  132OSM   C15S14236   6.495   3.719   8.010 -0.9269  0.4018 -0.2365
  132OSM   H15S14237   6.386   3.697   8.002 -1.0723  1.0387 -0.0338
  132OSM   H15T14238   6.512   3.828   8.024 -2.7289  0.7816 -0.8103
  132OSM   C16S14239   6.542   3.649   8.135  0.7565  0.4491 -0.5428
  132OSM   H16S14240   6.646   3.674   8.164  0.7021  0.2030 -0.1264
  132OSM   H16T14241   6.524   3.539   8.129 -0.9123  0.7593 -1.8026
  132OSM   C17S14242   6.452   3.703   8.254 -0.3563 -0.5289  0.0919
  132OSM   H17S14243   6.350   3.662   8.238  0.1676 -1.9970  0.4105
  132OSM   H17T14244   6.462   3.813   8.261  4.2310 -0.8611  0.7485
  132OSM   C18S14245   6.502   3.649   8.389 -0.7987  0.8743  0.3160
  132OSM   H18S14246   6.518   3.540   8.403 -0.4669  0.8363 -0.3375
  132OSM   H18T14247   6.436   3.691   8.468 -2.6861 -0.8133 -0.3068
  132OSM   H18U14248   6.600   3.696   8.409  0.0424 -0.4188 -0.7258
  132OSM    C1F14249   6.203   3.517   7.062 -0.0196  0.1964 -0.6748
  132OSM     OF14250   6.122   3.426   7.058 -0.4517 -0.1477  0.0407
  132OSM    C2F14251   6.215   3.599   7.189 -0.2118 -0.0048 -0.2715
  132OSM    H2F14252   6.245   3.700   7.155  0.2275  0.1381  0.5201
  132OSM    H2G14253   6.281   3.540   7.256 -0.8416 -1.0020 -0.5141
  132OSM    C3F14254   6.075   3.612   7.255 -0.0478 -0.1503  0.4702
  132OSM    H3F14255   6.030   3.512   7.271  0.1877 -0.2792  0.3438
  132OSM    H3G14256   6.021   3.684   7.191 -0.7542  0.6604  1.9540
  132OSM    C4F14257   6.090   3.671   7.399  0.1152  0.2765 -0.6653
  132OSM    H4F14258   5.993   3.702   7.445  1.5534  2.0958  1.2835
  132OSM    H4G14259   6.158   3.759   7.391 -1.1743  1.3051 -0.5350
  132OSM    C5F14260   6.147   3.580   7.510  0.5106 -0.3451  0.2738
  132OSM    H5F14261   6.257   3.567   7.501  0.8535  1.0663  2.1341
  132OSM    H5G14262   6.110   3.475   7.512  0.4218 -0.2976  1.4756
  132OSM    C6F14263   6.118   3.628   7.653  0.0548 -0.4186 -0.0993
  132OSM    H6F14264   6.010   3.655   7.665  0.6196  2.9189 -1.8222
  132OSM    H6G14265   6.186   3.711   7.680  0.4496 -0.2841 -1.4864
  132OSM    C7F14266   6.140   3.524   7.768 -0.3335 -0.2703 -0.6060
  132OSM    H7F14267   6.249   3.508   7.754 -0.2804  0.6753 -1.3210
  132OSM    H7G14268   6.085   3.431   7.739  1.8290 -1.0615 -2.3709
  132OSM    C8F14269   6.111   3.563   7.915  0.3230  0.2532 -0.3568
  132OSM    H8F14270   6.152   3.664   7.935 -0.4525  0.6246 -0.6077
  132OSM    H8G14271   6.166   3.497   7.986 -1.4645  0.3861  1.1917
  132OSM    C9F14272   5.956   3.568   7.931 -0.4495 -0.5407  0.0290
  132OSM    H9F14273   5.902   3.606   7.842 -0.3231 -1.1221 -0.2966
  132OSM   C10F14274   5.882   3.535   8.038 -0.7210  0.3652 -0.7203
  132OSM   H10F14275   5.774   3.558   8.045 -0.2239  2.1329  2.0260
  132OSM   C11F14276   5.949   3.480   8.167 -0.1366 -0.1116 -0.0052
  132OSM   H11F14277   6.046   3.428   8.149 -0.2187 -0.3334  0.1911
  132OSM   H11G14278   5.889   3.395   8.207  0.7188 -1.2169 -1.0052
  132OSM   C12F14279   5.966   3.587   8.282  0.6900 -0.0835  0.0870
  132OSM   H12F14280   5.865   3.626   8.306  0.7854 -0.1957  0.6858
  132OSM   H12G14281   6.030   3.662   8.230  0.8525 -1.5743 -1.9407
  132OSM   C13F14282   6.035   3.532   8.402 -0.8565  0.3681 -0.2490
  132OSM   H13F14283   6.134   3.492   8.369 -1.2352  0.1059 -1.0787
  132OSM   H13G14284   5.985   3.444   8.446  0.0782  0.0557  0.2060
  132OSM   C14F14285   6.060   3.641   8.514 -0.6496  0.9698  0.4464
  132OSM   H14F14286   6.103   3.725   8.456  0.0816 -1.6953 -3.0066
  132OSM   H14G14287   6.137   3.599   8.583  1.2743  2.2344 -0.8946
  132OSM   C15F14288   5.931   3.694   8.574 -0.5629 -0.6969  0.2859
  132OSM   H15F14289   5.870   3.618   8.628 -1.6546 -0.4553 -0.5998
  132OSM   H15G14290   5.871   3.716   8.484  2.1609  0.3091 -1.3325
  132OSM   C16F14291   5.953   3.810   8.676  0.0062  0.0025 -0.0248
  132OSM   H16F14292   5.850   3.808   8.719 -1.0414  0.0150 -2.4186
  132OSM   H16G14293   5.971   3.913   8.639  1.4821  1.5427  4.6601
  132OSM   C17F14294   6.061   3.774   8.777  0.5261 -0.5287 -0.0256
  132OSM   H17F14295   6.161   3.812   8.745  0.0341  1.6799  1.0078
  132OSM   H17G14296   6.072   3.664   8.788 -0.2432 -0.4739  1.4409
  132OSM   C18F14297   6.027   3.827   8.921  0.1998 -0.0198  0.7465
  132OSM   H18F14298   5.929   3.785   8.951 -0.7116  1.9165  0.5626
  132OSM   H18G14299   6.027   3.938   8.933 -0.3132  0.1112 -0.4790
  132OSM   H18H14300   6.105   3.796   8.995 -0.1777 -2.2267  0.2445
  133SAPE     N14301   1.757   0.994  11.098 -0.2568  0.2089  0.6354
  133SAPE   HN114302   1.857   0.967  11.092 -0.4062 -0.1007 -0.8837
  133SAPE   HN214303   1.715   1.009  11.192 -0.0421 -0.1545  0.7881
  133SAPE   HN314304   1.714   0.910  11.052  1.4502 -0.8181  0.8820
  133SAPE   C1214305   1.744   1.115  11.005 -0.2795 -0.0281 -0.4806
  133SAPE  H12A14306   1.825   1.183  11.038 -1.7160  1.3294  0.3248
  133SAPE  H12B14307   1.644   1.162  11.018  0.0993  0.1342  2.0307
  133SAPE   C1114308   1.753   1.066  10.863  0.2192  0.0394 -0.0915
  133SAPE  H11A14309   1.673   0.991  10.845 -1.2752  1.4771  0.4662
  133SAPE  H11B14310   1.853   1.020  10.847  0.0425 -0.2352 -0.4244
  133SAPE     P14311   1.848   1.280  10.730 -0.1064 -0.1129 -0.0072
  133SAPE   O1314312   1.865   1.380  10.836  0.1151 -0.4907 -0.3491
  133SAPE   O1414313   1.968   1.208  10.678  0.0379  0.1900  0.4410
  133SAPE   O1214314   1.738   1.181  10.780  0.3883  0.2954 -0.3057
  133SAPE   O1114315   1.763   1.343  10.609 -0.3152 -0.1095  0.4497
  133SAPE    C114316   1.734   1.265  10.489 -0.6748 -0.5327  0.0583
  133SAPE    HA14317   1.749   1.155  10.497 -2.8527 -0.9382 -1.0351
  133SAPE    HB14318   1.628   1.279  10.461 -0.5224 -0.5847 -0.5664
  133SAPE    C214319   1.818   1.308  10.359  0.8409  0.0362 -0.3248
  133SAPE    HS14320   1.916   1.332  10.404  1.0528  0.2480 -0.9037
  133SAPE   O2114321   1.765   1.424  10.301 -0.0862  0.1866 -0.5394
  133SAPE   C2114322   1.863   1.515  10.263 -0.6247  0.4699 -0.2047
  133SAPE   O2214323   1.976   1.521  10.294  0.5284 -0.1468  0.4236
  133SAPE   C2214324   1.797   1.619  10.177 -0.5002 -0.7620 -0.0488
  133SAPE   H2R14325   1.705   1.660  10.226 -0.9398 -1.7054 -0.0647
  133SAPE   H2S14326   1.868   1.704  10.175  0.2171 -1.2605  2.3626
  133SAPE    C314327   1.840   1.190  10.253 -0.2362  0.3974 -0.4705
  133SAPE    HX14328   1.735   1.164  10.225 -0.3433  0.9893 -0.6289
  133SAPE    HY14329   1.891   1.102  10.296  0.0260 -0.2996 -2.1810
  133SAPE   O3114330   1.912   1.233  10.131 -0.0944 -0.5939  0.0063
  133SAPE   C3114331   2.040   1.211  10.127  0.1511 -0.4393  0.5277
  133SAPE   O3214332   2.107   1.162  10.216 -0.3110  1.0894  0.2537
  133SAPE   C3214333   2.092   1.243   9.991  0.4704  0.1623  0.2344
  133SAPE   H2X14334   2.173   1.170   9.971  1.5833  1.5995 -0.5897
  133SAPE   H2Y14335   2.126   1.347   9.972  0.6020  0.1942  0.6457
  133SAPE   C2314336   1.763   1.560  10.041 -0.2210 -0.8954 -0.3233
  133SAPE   H3R14337   1.681   1.486  10.054 -0.8045  0.3044  3.3930
  133SAPE   H3S14338   1.856   1.507  10.010  0.7787  1.5331 -1.5781
  133SAPE   C2414339   1.709   1.658   9.937 -0.7505 -0.5800 -0.2085
  133SAPE   H4R14340   1.618   1.712   9.973  0.1728 -1.4030  3.6259
  133SAPE   H4S14341   1.677   1.603   9.846  0.3260 -0.5828 -0.5910
  133SAPE   C2514342   1.817   1.761   9.892  0.0280  0.5261  0.4141
  133SAPE   H5R14343   1.794   1.863   9.927 -2.8531  1.1311 -3.0228
  133SAPE   C2614344   1.919   1.743   9.810 -0.2008  0.0642  0.3648
  133SAPE   H6R14345   1.974   1.836   9.794  1.1016 -0.4211  1.8633
  133SAPE   C2714346   1.961   1.618   9.737 -0.2953 -0.5289  0.3455
  133SAPE   H7R14347   1.925   1.614   9.632  0.4745 -2.7741  0.1377
  133SAPE   H7S14348   1.916   1.528   9.784  1.3673 -2.5131 -1.6650
  133SAPE   C2814349   2.110   1.602   9.742  0.4816 -0.4941  0.9408
  133SAPE   H8R14350   2.146   1.563   9.839  2.4229 -0.9295  0.0577
  133SAPE   C2914351   2.191   1.607   9.639  0.3450 -0.0283  0.2554
  133SAPE   H9R14352   2.299   1.600   9.663  0.3897  1.5299  0.5672
  133SAPE  C21014353   2.156   1.656   9.498 -0.0982  0.0126  0.4482
  133SAPE  H10R14354   2.225   1.735   9.462  0.0340  0.7140  2.1784
  133SAPE  H10S14355   2.050   1.688   9.490 -0.1490 -0.0179  0.9626
  133SAPE  C21114356   2.179   1.544   9.407  0.1293  0.0805 -0.0514
  133SAPE  H11R14357   2.182   1.444   9.453 -1.4744  0.8189  1.7451
  133SAPE  C21214358   2.197   1.551   9.274 -0.3554 -0.2841  0.0573
  133SAPE  H12R14359   2.226   1.463   9.215  1.2873  1.0810 -1.2385
  133SAPE  C21314360   2.194   1.672   9.181  0.8804 -0.3831  0.1833
  133SAPE  H13R14361   2.284   1.669   9.117  1.1364 -1.9936  0.5758
  133SAPE  H13S14362   2.203   1.761   9.246 -0.8812 -0.1761  0.1862
  133SAPE  C21414363   2.060   1.699   9.099  0.1685 -0.2038 -0.1911
  133SAPE  H14R14364   1.983   1.757   9.153  0.4316 -0.7361  0.7740
  133SAPE  C21514365   2.026   1.664   8.974  0.1483  0.6302 -0.2327
  133SAPE  H15R14366   1.932   1.699   8.928  0.7020  0.8132 -1.2580
  133SAPE  C21614367   2.111   1.577   8.877  0.4183  0.3193  0.2047
  133SAPE  H16R14368   2.084   1.470   8.866 -0.9901  0.5739  1.0325
  133SAPE  H16S14369   2.214   1.584   8.916  0.6599 -2.7346  0.2699
  133SAPE  C21714370   2.125   1.643   8.735 -0.3597 -0.0387  0.3343
  133SAPE  H17R14371   2.155   1.749   8.754  0.1644 -0.5058  2.2149
  133SAPE  H17S14372   2.028   1.637   8.681  0.7522  0.9961 -1.8656
  133SAPE  C21814373   2.235   1.578   8.655 -0.0199  0.5306 -0.0541
  133SAPE  H18R14374   2.211   1.473   8.628 -2.5836  1.6506 -2.4221
  133SAPE  H18S14375   2.327   1.582   8.717 -0.7587  2.3469  0.9856
  133SAPE  C21914376   2.260   1.658   8.532  0.0608 -0.3568 -0.2900
  133SAPE  H19R14377   2.344   1.612   8.476  0.6211 -1.6938  1.5829
  133SAPE  H19S14378   2.292   1.764   8.548 -0.5935 -0.2198  0.1455
  133SAPE  C22014379   2.137   1.671   8.438  0.1312 -0.1203 -0.1934
  133SAPE  H20R14380   2.160   1.730   8.347  1.5501 -0.4298 -0.0395
  133SAPE  H20S14381   2.042   1.722   8.468  0.6313  0.0954  1.0196
  133SAPE  H20T14382   2.120   1.567   8.403 -3.2735 -0.1609  1.3624
  133SAPE   C3314383   1.983   1.213   9.887  0.4113  0.0875 -0.2515
  133SAPE   H3X14384   1.902   1.289   9.882  0.4605  0.2083  0.8738
  133SAPE   H3Y14385   1.936   1.114   9.908  1.1571 -0.2735 -0.2965
  133SAPE   C3414386   2.053   1.214   9.753 -0.1733 -0.6531  0.3196
  133SAPE   H4X14387   2.140   1.147   9.733 -0.3016 -1.1027  1.2307
  133SAPE   H4Y14388   2.093   1.317   9.745 -1.9981  0.0504  0.1725
  133SAPE   C3514389   1.952   1.183   9.635 -0.4997  1.2559  0.4907
  133SAPE   H5X14390   1.860   1.245   9.631 -0.0910  1.7989 -1.1783
  133SAPE   H5Y14391   1.917   1.079   9.649  3.6269 -0.4817 -1.1462
  133SAPE   C3614392   2.016   1.190   9.492 -0.5838  0.5325 -0.7318
  133SAPE   H6X14393   2.098   1.115   9.488 -2.1446 -1.2837  0.5339
  133SAPE   H6Y14394   2.069   1.287   9.481 -1.8480  1.3628  0.4507
  133SAPE   C3714395   1.923   1.172   9.378 -0.1724 -0.0799  0.3601
  133SAPE   H7X14396   1.853   1.091   9.410  0.0217  0.0419  1.0931
  133SAPE   H7Y14397   1.959   1.143   9.277  0.1200  3.5828 -0.6313
  133SAPE   C3814398   1.840   1.306   9.352  0.2990  0.6463 -0.0566
  133SAPE   H8X14399   1.917   1.383   9.326  2.2233 -0.0534  3.2151
  133SAPE   H8Y14400   1.784   1.341   9.441 -0.2289 -0.1850 -0.0655
  133SAPE   C3914401   1.747   1.291   9.228 -0.7647 -0.0777 -0.5586
  133SAPE   H9X14402   1.663   1.363   9.222  1.2479  2.2753 -0.8292
  133SAPE   H9Y14403   1.705   1.191   9.252 -1.4237  0.2537 -0.3191
  133SAPE  C31014404   1.818   1.282   9.091 -0.3740 -0.1246  0.6696
  133SAPE  H10X14405   1.917   1.232   9.088 -0.5097 -0.3887  0.5445
  133SAPE  H10Y14406   1.841   1.390   9.074  0.3857  0.0454  2.6977
  133SAPE  C31114407   1.728   1.225   8.978 -0.0936  0.2446  0.5720
  133SAPE  H11X14408   1.640   1.289   8.959 -1.3637 -1.8097 -0.5996
  133SAPE  H11Y14409   1.680   1.134   9.020  1.5573 -0.1302  1.7318
  133SAPE  C31214410   1.806   1.196   8.856 -0.2095  0.7185  0.6790
  133SAPE  H12X14411   1.744   1.122   8.801 -1.6712  2.2472  0.2451
  133SAPE  H12Y14412   1.908   1.155   8.877 -0.7568  0.0045  2.0444
  133SAPE  C31314413   1.827   1.321   8.775 -0.1596 -0.3760 -0.1808
  133SAPE  H13X14414   1.893   1.390   8.831 -0.0339 -3.0791  3.1101
  133SAPE  H13Y14415   1.736   1.382   8.754  0.3506  0.9033  1.2566
  133SAPE  C31414416   1.894   1.279   8.638  0.5535  0.3627  0.0520
  133SAPE  H14X14417   1.987   1.225   8.664 -1.0138 -2.3646  0.1731
  133SAPE  H14Y14418   1.910   1.379   8.593  2.4609 -0.7164 -1.7249
  133SAPE  C31514419   1.800   1.199   8.542 -0.1169 -0.6328 -0.5628
  133SAPE  H15X14420   1.712   1.257   8.507 -0.6047 -1.3117 -0.4545
  133SAPE  H15Y14421   1.764   1.112   8.601 -0.0425  0.2549  0.8180
  133SAPE  C31614422   1.875   1.141   8.413  0.0785 -0.3044 -0.7670
  133SAPE  H16X14423   1.969   1.088   8.440 -0.0823  0.5967  1.7585
  133SAPE  H16Y14424   1.908   1.220   8.342  0.1561  0.3528 -0.0091
  133SAPE  C31714425   1.783   1.049   8.341 -0.2250 -0.5183 -0.7655
  133SAPE  H17X14426   1.790   1.070   8.232 -0.6028  1.8437 -0.3778
  133SAPE  H17Y14427   1.677   1.062   8.372  0.7439 -0.5779  2.7944
  133SAPE  C31814428   1.819   0.909   8.358  0.7812 -0.2169  0.1461
  133SAPE  H18X14429   1.922   0.877   8.330 -0.2336 -2.1414 -1.5958
  133SAPE  H18Y14430   1.746   0.849   8.300  0.6995  1.9783 -2.0895
  133SAPE  H18Z14431   1.795   0.887   8.464 -1.4079  1.4040  0.0043
  134SAPE     N14432   4.204   1.708  10.590  0.5195  0.2005  0.0113
  134SAPE   HN114433   4.184   1.752  10.498  1.1919  0.0945 -0.1929
  134SAPE   HN214434   4.114   1.664  10.616  0.3310  1.0955  0.8898
  134SAPE   HN314435   4.240   1.791  10.642 -0.5036  0.5435  0.1784
  134SAPE   C1214436   4.312   1.610  10.563  0.4317 -0.2975 -0.5917
  134SAPE  H12A14437   4.277   1.551  10.476  0.6183  0.1444 -0.9724
  134SAPE  H12B14438   4.314   1.542  10.651 -0.8802  0.1644 -0.1990
  134SAPE   C1114439   4.447   1.667  10.534  0.3244  0.1139  0.4168
  134SAPE  H11A14440   4.431   1.705  10.430  0.0862 -1.8204 -0.2773
  134SAPE  H11B14441   4.520   1.584  10.520 -0.9412 -1.1193  1.0807
  134SAPE     P14442   4.585   1.881  10.589  0.0776  0.0589 -0.3872
  134SAPE   O1314443   4.514   1.960  10.485 -0.0338  0.3334 -0.2056
  134SAPE   O1414444   4.636   1.953  10.706  0.0653 -0.6123 -0.6902
  134SAPE   O1214445   4.489   1.771  10.631  0.3866  0.0910  0.5836
  134SAPE   O1114446   4.709   1.799  10.525 -0.3395 -0.7467  0.2215
  134SAPE    C114447   4.792   1.850  10.424  0.6544 -0.2151  0.1632
  134SAPE    HA14448   4.788   1.960  10.410  1.2620 -0.1169  0.7338
  134SAPE    HB14449   4.897   1.837  10.459  1.1899  0.5202 -1.1418
  134SAPE    C214450   4.781   1.768  10.293  0.3169  0.0540 -0.1056
  134SAPE    HS14451   4.840   1.816  10.212  1.1119 -0.8154 -0.0455
  134SAPE   O2114452   4.643   1.761  10.234 -0.6230  0.0897 -0.4754
  134SAPE   C2114453   4.600   1.881  10.195  0.4236  0.4055 -0.2460
  134SAPE   O2214454   4.655   1.988  10.198 -0.2368  0.3611  0.1179
  134SAPE   C2214455   4.464   1.859  10.131 -1.0978 -0.1300  0.2908
  134SAPE   H2R14456   4.459   1.749  10.118  4.3300 -0.5951  1.0052
  134SAPE   H2S14457   4.383   1.904  10.193 -1.4849 -0.5609  0.1057
  134SAPE    C314458   4.824   1.613  10.308 -0.3469  0.0456 -0.2389
  134SAPE    HX14459   4.766   1.588  10.399  0.0090  3.8100  1.1351
  134SAPE    HY14460   4.929   1.603  10.344 -0.5928 -1.3890  0.0801
  134SAPE   O3114461   4.794   1.524  10.192 -0.0435 -0.7532  0.3989
  134SAPE   C3114462   4.854   1.557  10.079  0.0147 -0.0924 -0.8340
  134SAPE   O3214463   4.943   1.635  10.060  0.0425  0.6272 -0.4563
  134SAPE   C3214464   4.774   1.486   9.969 -0.7554 -0.2842  0.0963
  134SAPE   H2X14465   4.688   1.554   9.949 -0.0480  1.2469  2.0359
  134SAPE   H2Y14466   4.726   1.395  10.010 -0.4552 -0.6936 -0.4625
  134SAPE   C2314467   4.462   1.923   9.990  0.0121  0.8968  0.2989
  134SAPE   H3R14468   4.549   1.882   9.936  2.1454  0.5883  3.8206
  134SAPE   H3S14469   4.483   2.031  10.009  0.9520  0.6590  0.6539
  134SAPE   C2414470   4.340   1.894   9.902 -0.5144 -0.6741  0.6617
  134SAPE   H4R14471   4.334   1.966   9.817 -1.4745 -1.0767  0.3750
  134SAPE   H4S14472   4.248   1.923   9.957 -0.9836  0.6795 -0.8019
  134SAPE   C2514473   4.320   1.753   9.856 -0.9108 -0.5630 -0.3072
  134SAPE   H5R14474   4.324   1.679   9.937  0.7445  0.0055  0.1374
  134SAPE   C2614475   4.306   1.712   9.727  0.2086  0.1669 -0.1438
  134SAPE   H6R14476   4.298   1.603   9.709  0.3706  0.1310 -0.0043
  134SAPE   C2714477   4.306   1.800   9.604  0.5262  0.2781  0.2695
  134SAPE   H7R14478   4.266   1.900   9.632 -1.0681 -0.4404  0.6423
  134SAPE   H7S14479   4.228   1.776   9.529  0.0088  0.5514  0.7154
  134SAPE   C2814480   4.440   1.809   9.542 -1.3420  0.3188  0.2631
  134SAPE   H8R14481   4.504   1.721   9.557 -0.1498  1.3205  1.1231
  134SAPE   C2914482   4.479   1.907   9.460  0.4274  0.4569  1.1425
  134SAPE   H9R14483   4.582   1.893   9.424  1.0007  4.3684  1.0938
  134SAPE  C21014484   4.393   2.027   9.423  0.4660  0.5022 -1.0867
  134SAPE  H10R14485   4.435   2.110   9.482  0.4670 -0.2279 -0.0584
  134SAPE  H10S14486   4.287   2.023   9.454  0.4502 -0.1423 -1.2005
  134SAPE  C21114487   4.394   2.062   9.278 -0.2323 -0.0156 -0.3246
  134SAPE  H11R14488   4.441   2.159   9.253 -0.8819 -0.2947 -2.7216
  134SAPE  C21214489   4.328   1.996   9.183  0.4264  0.3023  0.0741
  134SAPE  H12R14490   4.335   2.030   9.079  2.8550 -3.7253 -1.1776
  134SAPE  C21314491   4.245   1.868   9.197 -0.4856 -0.3692  0.1217
  134SAPE  H13R14492   4.137   1.893   9.188 -0.6886 -1.1971  0.2391
  134SAPE  H13S14493   4.257   1.823   9.298 -0.8055  0.5633  0.5780
  134SAPE  C21414494   4.259   1.768   9.086 -0.1244  0.1746  0.4400
  134SAPE  H14R14495   4.241   1.816   8.989 -0.9921 -1.7341 -0.3625
  134SAPE  C21514496   4.291   1.638   9.085  0.1157 -0.3503 -0.4754
  134SAPE  H15R14497   4.290   1.583   8.990  1.9420 -1.0978 -0.0889
  134SAPE  C21614498   4.329   1.555   9.208 -0.3036 -0.3982 -0.7238
  134SAPE  H16R14499   4.258   1.473   9.233 -0.2798 -0.7790 -1.8589
  134SAPE  H16S14500   4.320   1.604   9.307 -1.4182 -1.3397 -0.3444
  134SAPE  C21714501   4.474   1.488   9.222  0.7364  0.0004 -0.6259
  134SAPE  H17R14502   4.536   1.578   9.200  1.6625 -0.9985 -2.1665
  134SAPE  H17S14503   4.499   1.411   9.146  0.6024  0.1268 -0.7982
  134SAPE  C21814504   4.495   1.424   9.365 -0.4967  0.4421 -0.2980
  134SAPE  H18R14505   4.426   1.337   9.367  0.0554 -0.0650 -2.1355
  134SAPE  H18S14506   4.473   1.492   9.450 -3.4379 -0.1409 -0.5321
  134SAPE  C21914507   4.626   1.352   9.399  0.0030  0.1780 -0.5982
  134SAPE  H19R14508   4.710   1.424   9.394 -0.9784  1.5580  2.0521
  134SAPE  H19S14509   4.634   1.283   9.312 -0.5726 -1.2399  0.4635
  134SAPE  C22014510   4.620   1.274   9.526 -0.2917 -0.1658  0.9567
  134SAPE  H20R14511   4.562   1.180   9.526  0.0006 -0.3475  0.1013
  134SAPE  H20S14512   4.594   1.337   9.614 -0.7105 -0.2678  0.9054
  134SAPE  H20T14513   4.709   1.211   9.551 -0.6583 -1.0812 -0.0466
  134SAPE   C3314514   4.853   1.461   9.835 -0.0744  0.1294 -0.4107
  134SAPE   H3X14515   4.830   1.359   9.796 -0.0407  0.7059 -1.9809
  134SAPE   H3Y14516   4.963   1.462   9.848 -0.1369  1.1263  0.0463
  134SAPE   C3414517   4.802   1.556   9.720  0.4180  0.4952  0.6495
  134SAPE   H4X14518   4.820   1.660   9.756  1.6723  0.2971  0.6098
  134SAPE   H4Y14519   4.694   1.540   9.699  0.8245 -0.5167 -0.7523
  134SAPE   C3514520   4.888   1.538   9.591  0.0935  0.6267 -0.0546
  134SAPE   H5X14521   4.858   1.437   9.554  0.5887  0.8455 -1.0696
  134SAPE   H5Y14522   4.991   1.532   9.632  0.5963  0.4182 -1.3150
  134SAPE   C3614523   4.863   1.640   9.488  0.3474  0.4746 -0.0942
  134SAPE   H6X14524   4.885   1.744   9.523  2.4269 -0.4492  1.4701
  134SAPE   H6Y14525   4.756   1.640   9.462  0.2843 -1.7790  0.1345
  134SAPE   C3714526   4.952   1.616   9.363  1.0634 -0.5784  0.3796
  134SAPE   H7X14527   4.936   1.509   9.337 -0.4760 -0.5409  1.1236
  134SAPE   H7Y14528   5.060   1.625   9.390  0.8413 -0.9873  1.4417
  134SAPE   C3814529   4.929   1.702   9.238  0.4771  0.0825  0.0501
  134SAPE   H8X14530   5.004   1.675   9.160  0.8628  1.9387 -0.2421
  134SAPE   H8Y14531   4.934   1.806   9.276  1.9206  0.4013 -0.9664
  134SAPE   C3914532   4.794   1.684   9.177  0.7006 -0.1636  0.6407
  134SAPE   H9X14533   4.711   1.698   9.250  0.0309  0.0619 -0.1453
  134SAPE   H9Y14534   4.783   1.576   9.151 -2.2976  0.0965  0.6092
  134SAPE  C31014535   4.772   1.778   9.056 -0.9160  0.3418 -0.1197
  134SAPE  H10X14536   4.843   1.758   8.973 -4.0813 -3.5148 -2.0646
  134SAPE  H10Y14537   4.787   1.884   9.084 -0.0024  0.1939 -0.0543
  134SAPE  C31114538   4.641   1.746   8.974  0.1452  0.3720 -1.3120
  134SAPE  H11X14539   4.545   1.753   9.030  0.7570 -0.5927 -0.1050
  134SAPE  H11Y14540   4.642   1.637   8.951 -2.2580  0.6156 -2.7312
  134SAPE  C31214541   4.632   1.816   8.842  0.0074  0.2259  1.1091
  134SAPE  H12X14542   4.573   1.750   8.775  1.2132  1.0494 -0.7942
  134SAPE  H12Y14543   4.729   1.833   8.792 -1.7859  0.0591 -2.5694
  134SAPE  C31314544   4.555   1.943   8.843  0.4556 -0.3166 -0.0674
  134SAPE  H13X14545   4.458   1.929   8.896  0.6639  0.4312  0.5094
  134SAPE  H13Y14546   4.534   1.984   8.743  1.2319  0.5367  0.1126
  134SAPE  C31414547   4.623   2.064   8.912 -0.0658 -0.4162 -0.3555
  134SAPE  H14X14548   4.725   2.080   8.870 -0.1250  0.3628 -0.2055
  134SAPE  H14Y14549   4.644   2.047   9.020 -2.0834  0.1680  0.1550
  134SAPE  C31514550   4.546   2.193   8.895  0.2981  0.1310  0.7136
  134SAPE  H15X14551   4.451   2.186   8.952 -0.4906  0.5359 -0.5299
  134SAPE  H15Y14552   4.499   2.202   8.795 -1.2978 -0.3624  1.3982
  134SAPE  C31614553   4.627   2.313   8.938 -0.1849 -0.9072 -0.0410
  134SAPE  H16X14554   4.708   2.290   9.011 -0.8539 -1.7978  0.4362
  134SAPE  H16Y14555   4.566   2.390   8.989  1.1886 -0.2297  0.6062
  134SAPE  C31714556   4.682   2.374   8.805 -0.5783  0.6738  0.0835
  134SAPE  H17X14557   4.598   2.368   8.733  0.8922  1.8405 -1.8092
  134SAPE  H17Y14558   4.761   2.310   8.759  0.5374  0.6804  1.9213
  134SAPE  C31814559   4.724   2.518   8.807  0.5182  0.2337 -1.1453
  134SAPE  H18X14560   4.799   2.527   8.888 -0.5684 -0.2647 -0.0714
  134SAPE  H18Y14561   4.639   2.581   8.841  0.7164 -0.7398  1.2748
  134SAPE  H18Z14562   4.760   2.549   8.707 -0.2841  1.9892 -0.9036
  135SAPE     N14563   4.598   0.387  10.896 -0.1806 -0.3019 -0.5620
  135SAPE   HN114564   4.676   0.318  10.893  1.3728  1.4030 -0.5797
  135SAPE   HN214565   4.548   0.388  10.805 -1.6714 -0.6761  0.2370
  135SAPE   HN314566   4.657   0.473  10.889  0.6804 -1.0396 -2.8902
  135SAPE   C1214567   4.517   0.368  11.014  0.2893  1.0412 -0.5042
  135SAPE  H12A14568   4.443   0.451  11.010 -1.7875 -0.7937 -1.2472
  135SAPE  H12B14569   4.575   0.385  11.108  0.5251 -0.3396 -0.3795
  135SAPE   C1114570   4.438   0.242  11.030 -0.0582  0.1199 -0.1706
  135SAPE  H11A14571   4.373   0.259  11.119 -1.9195  0.6904 -1.6050
  135SAPE  H11B14572   4.498   0.150  11.046 -2.1217 -1.1908  0.2598
  135SAPE     P14573   4.309   0.084  10.869  0.1302  0.1829 -0.4986
  135SAPE   O1314574   4.431   0.026  10.804 -0.4065 -0.2538  0.0477
  135SAPE   O1414575   4.237   0.010  10.973 -0.4733 -0.6651 -0.4118
  135SAPE   O1214576   4.349   0.232  10.925  0.0444 -0.1862 -0.0245
  135SAPE   O1114577   4.217   0.123  10.750 -0.2558 -0.2907 -1.0194
  135SAPE    C114578   4.254   0.197  10.633 -0.2711  0.2730 -0.6081
  135SAPE    HA14579   4.194   0.289  10.626 -0.0554  0.2539 -3.7791
  135SAPE    HB14580   4.361   0.225  10.622 -0.2783  0.2815 -0.6605
  135SAPE    C214581   4.214   0.136  10.495 -0.0338 -0.1691  0.3877
  135SAPE    HS14582   4.110   0.101  10.513  0.3436 -1.5010  0.0844
  135SAPE   O2114583   4.297   0.025  10.462 -0.3082 -0.2441 -0.3943
  135SAPE   C2114584   4.261  -0.059  10.367  0.7683  0.2018 -0.5193
  135SAPE   O2214585   4.148  -0.073  10.329  0.5429 -0.2024  0.3194
  135SAPE   C2214586   4.371  -0.146  10.307 -0.1352 -0.2433  0.2860
  135SAPE   H2R14587   4.454  -0.078  10.278 -0.7196  0.4056  0.1116
  135SAPE   H2S14588   4.420  -0.193  10.395 -0.3556  1.7327  1.4988
  135SAPE    C314589   4.214   0.243  10.374  0.4274  0.7460 -0.0796
  135SAPE    HX14590   4.318   0.276  10.353  0.4651  0.9289  0.4058
  135SAPE    HY14591   4.163   0.338  10.401  1.1499  1.3385 -0.7558
  135SAPE   O3114592   4.170   0.195  10.243 -0.2840  0.3149 -0.0849
  135SAPE   C3114593   4.039   0.191  10.233 -0.1685 -0.6508  0.1880
  135SAPE   O3214594   3.959   0.227  10.314 -0.7783  0.1689 -0.3024
  135SAPE   C3214595   3.996   0.142  10.098 -0.2603 -0.3159 -0.1473
  135SAPE   H2X14596   3.973   0.034  10.108 -0.2257 -0.4625 -1.5667
  135SAPE   H2Y14597   4.067   0.160  10.015  0.0728 -0.3534  0.1286
  135SAPE   C2314598   4.337  -0.253  10.199  0.4351 -0.1532  0.0212
  135SAPE   H3R14599   4.239  -0.298  10.225  0.5899 -0.2585  0.4220
  135SAPE   H3S14600   4.408  -0.338  10.210  0.6947  0.2437  1.4869
  135SAPE   C2414601   4.346  -0.195  10.055  0.0296  0.2577  0.5518
  135SAPE   H4R14602   4.375  -0.273   9.981  1.3308  0.6829  0.5899
  135SAPE   H4S14603   4.424  -0.116  10.061  0.3618 -0.1056  1.1108
  135SAPE   C2514604   4.216  -0.130  10.017  0.5208 -0.7296  0.3058
  135SAPE   H5R14605   4.200  -0.036  10.071  1.6849  0.7965 -1.9023
  135SAPE   C2614606   4.133  -0.167   9.919 -0.2114  0.2540  0.1228
  135SAPE   H6R14607   4.042  -0.108   9.901 -0.2805 -0.1511 -0.9128
  135SAPE   C2714608   4.150  -0.275   9.818  0.2322  0.3742 -0.4825
  135SAPE   H7R14609   4.081  -0.358   9.843  1.6404  0.7252  5.5233
  135SAPE   H7S14610   4.258  -0.303   9.812  0.5548  1.9930 -2.5941
  135SAPE   C2814611   4.115  -0.219   9.676 -0.0018 -0.1272 -0.1614
  135SAPE   H8R14612   4.117  -0.110   9.669  0.6566 -0.2603 -2.1535
  135SAPE   C2914613   4.072  -0.296   9.568  0.4192  0.2959 -0.0394
  135SAPE   H9R14614   4.038  -0.238   9.481  2.3739 -0.5731 -1.4231
  135SAPE  C21014615   4.054  -0.444   9.564 -0.0512 -0.4796 -0.9610
  135SAPE  H10R14616   3.955  -0.458   9.516 -1.2086  1.0233  0.9480
  135SAPE  H10S14617   4.054  -0.488   9.666 -0.4110 -1.1684 -1.2547
  135SAPE  C21114618   4.173  -0.516   9.501  0.1230 -0.0902 -0.5473
  135SAPE  H11R14619   4.270  -0.482   9.542 -1.3391  2.0564  1.2502
  135SAPE  C21214620   4.166  -0.608   9.401  0.2532 -0.4661  0.1873
  135SAPE  H12R14621   4.261  -0.645   9.360  0.8712 -0.5673  1.6837
  135SAPE  C21314622   4.040  -0.662   9.335  0.4679 -0.8082 -0.4239
  135SAPE  H13R14623   4.002  -0.597   9.253  0.0181  0.8856  1.1153
  135SAPE  H13S14624   3.963  -0.672   9.414  0.0339 -1.0979 -0.8829
  135SAPE  C21414625   4.074  -0.795   9.270  0.1250 -0.3062  0.1907
  135SAPE  H14R14626   4.106  -0.876   9.337  1.0334 -0.9085 -0.9652
  135SAPE  C21514627   4.073  -0.817   9.138  0.0321  1.1362  0.2526
  135SAPE  H15R14628   4.106  -0.917   9.106  1.7267  1.2184  1.7156
  135SAPE  C21614629   4.042  -0.722   9.029  0.0175  0.3522 -0.2055
  135SAPE  H16R14630   4.054  -0.616   9.061  1.4485  0.3896 -0.8475
  135SAPE  H16S14631   3.940  -0.741   8.989  0.3053 -0.7073 -0.4595
  135SAPE  C21714632   4.146  -0.749   8.921  0.3265 -0.8694 -0.0425
  135SAPE  H17R14633   4.122  -0.843   8.867  1.1586 -0.1915 -1.6512
  135SAPE  H17S14634   4.250  -0.757   8.957  0.3000 -0.0290  0.2289
  135SAPE  C21814635   4.162  -0.639   8.806 -0.2301  0.1016  0.3597
  135SAPE  H18R14636   4.213  -0.548   8.843  2.0982 -0.8314 -0.5014
  135SAPE  H18S14637   4.060  -0.606   8.775  1.3296  1.9634 -3.0451
  135SAPE  C21914638   4.233  -0.698   8.684  0.0693 -0.4965 -0.1389
  135SAPE  H19R14639   4.253  -0.625   8.603 -0.6053 -1.5757 -1.2897
  135SAPE  H19S14640   4.166  -0.773   8.639 -0.9185  1.3225 -1.7768
  135SAPE  C22014641   4.375  -0.756   8.707 -0.1193  0.1897  0.1314
  135SAPE  H20R14642   4.374  -0.849   8.768  2.4289 -0.1685 -0.2871
  135SAPE  H20S14643   4.442  -0.675   8.745 -0.4821  0.3955  0.3303
  135SAPE  H20T14644   4.417  -0.808   8.618  2.3136  0.3621  1.1412
  135SAPE   C3314645   3.867   0.222  10.065 -0.1058  0.3731  0.1591
  135SAPE   H3X14646   3.899   0.327  10.084  1.8371  0.0963 -1.3891
  135SAPE   H3Y14647   3.782   0.187  10.126 -0.2858  0.0129 -0.3005
  135SAPE   C3414648   3.823   0.211   9.920 -0.1406  0.6009 -0.0911
  135SAPE   H4X14649   3.712   0.218   9.910 -0.0196  2.0971 -0.6410
  135SAPE   H4Y14650   3.840   0.105   9.894  0.3377 -0.1205  3.0247
  135SAPE   C3514651   3.898   0.309   9.832  0.2474  0.5403 -0.0780
  135SAPE   H5X14652   4.001   0.327   9.868  0.4685 -0.7654 -0.0494
  135SAPE   H5Y14653   3.840   0.404   9.838  0.7499  0.9721 -1.8256
  135SAPE   C3614654   3.910   0.257   9.684  1.2973  0.0151  0.1342
  135SAPE   H6X14655   3.807   0.234   9.651  0.4210  2.5594  0.9421
  135SAPE   H6Y14656   3.984   0.174   9.676  3.6926  2.0164  0.7037
  135SAPE   C3714657   3.980   0.373   9.613 -0.4387  0.3692  0.7310
  135SAPE   H7X14658   4.076   0.399   9.662 -0.5805 -2.0507  2.3522
  135SAPE   H7Y14659   3.921   0.467   9.618 -2.4669 -0.8503  0.2207
  135SAPE   C3814660   4.017   0.330   9.472  0.1755  0.2710  0.4946
  135SAPE   H8X14661   3.926   0.322   9.409 -0.3327 -1.2199  1.3990
  135SAPE   H8Y14662   4.071   0.234   9.481 -0.4946 -0.0083  1.7213
  135SAPE   C3914663   4.111   0.430   9.407 -0.0132 -0.2734  0.6140
  135SAPE   H9X14664   4.216   0.423   9.443  0.0480 -0.7057  0.3624
  135SAPE   H9Y14665   4.075   0.529   9.443 -1.3336 -0.4240 -0.2769
  135SAPE  C31014666   4.087   0.436   9.260 -0.8215  0.2463  0.3954
  135SAPE  H10X14667   3.985   0.465   9.228 -0.8381  0.6935  0.8437
  135SAPE  H10Y14668   4.108   0.338   9.212  0.3896  0.2525  0.8764
  135SAPE  C31114669   4.184   0.531   9.190  0.1570 -0.2368 -0.2778
  135SAPE  H11X14670   4.290   0.507   9.217  0.0077 -0.4219  0.1433
  135SAPE  H11Y14671   4.154   0.632   9.224 -0.6929 -0.7717  0.5943
  135SAPE  C31214672   4.154   0.528   9.042 -0.0076 -0.3851  0.0214
  135SAPE  H12X14673   4.045   0.543   9.028 -0.1558 -1.1671  0.3041
  135SAPE  H12Y14674   4.173   0.424   9.008  1.0421 -0.1611 -0.0860
  135SAPE  C31314675   4.221   0.646   8.964 -0.6158  0.2631 -0.0286
  135SAPE  H13X14676   4.330   0.647   8.984 -0.2990 -1.8432 -1.4766
  135SAPE  H13Y14677   4.173   0.741   8.998  0.0603  0.4070  0.5123
  135SAPE  C31414678   4.209   0.620   8.811  0.2422 -0.8557 -0.0704
  135SAPE  H14X14679   4.111   0.577   8.779 -0.6846  0.2660  1.2440
  135SAPE  H14Y14680   4.289   0.549   8.781 -2.0406 -3.6438  0.2138
  135SAPE  C31514681   4.226   0.750   8.726 -0.1939  0.1966 -0.4918
  135SAPE  H15X14682   4.314   0.805   8.765 -0.3446 -0.8569  1.3939
  135SAPE  H15Y14683   4.149   0.824   8.757 -0.0689 -0.5529  1.6798
  135SAPE  C31614684   4.204   0.729   8.572  0.7403 -0.3571 -0.3806
  135SAPE  H16X14685   4.097   0.704   8.557  1.0946 -2.3713  0.3106
  135SAPE  H16Y14686   4.269   0.653   8.524 -1.9830 -1.3785 -2.5695
  135SAPE  C31714687   4.233   0.847   8.474  0.3126 -0.3046 -0.3496
  135SAPE  H17X14688   4.248   0.809   8.371  2.8114  2.0221 -0.8910
  135SAPE  H17Y14689   4.330   0.888   8.507 -0.5534 -0.2803  2.3076
  135SAPE  C31814690   4.130   0.961   8.481  0.1984  0.1833 -0.6138
  135SAPE  H18X14691   4.121   0.998   8.585 -1.1092 -2.8769  0.4135
  135SAPE  H18Y14692   4.024   0.933   8.463  0.5078 -0.5762 -1.3260
  135SAPE  H18Z14693   4.162   1.040   8.410  2.8306  1.3043  1.7773
  136SAPE     N14694   0.035   0.625  11.011  0.2231 -0.4382  0.4808
  136SAPE   HN114695   0.138   0.615  11.024  0.3230 -0.4263 -0.2790
  136SAPE   HN214696   0.014   0.592  10.915  2.0863  0.5084 -0.2932
  136SAPE   HN314697   0.007   0.724  11.029  1.3887  0.0819 -0.4987
  136SAPE   C1214698  -0.032   0.523  11.085  1.2582  0.1134 -0.5919
  136SAPE  H12A14699  -0.142   0.541  11.077  0.8485 -1.8087  0.4663
  136SAPE  H12B14700   0.001   0.534  11.191 -0.2986  1.0278 -0.1862
  136SAPE   C1114701   0.012   0.380  11.039 -0.4187  1.2313 -0.2378
  136SAPE  H11A14702  -0.032   0.358  10.939  2.1070 -2.5834 -0.6096
  136SAPE  H11B14703  -0.025   0.322  11.125 -0.7521  0.3732 -0.9521
  136SAPE     P14704   0.215   0.235  10.993 -0.6546 -0.4930 -0.0264
  136SAPE   O1314705   0.354   0.230  11.046  0.0505  0.9763 -0.0287
  136SAPE   O1414706   0.120   0.130  11.043 -0.3276 -0.7522  0.2337
  136SAPE   O1214707   0.150   0.376  11.026 -0.0585  0.0197 -0.0134
  136SAPE   O1114708   0.228   0.220  10.834  0.4922 -0.1260  0.0705
  136SAPE    C114709   0.209   0.322  10.738 -0.3251 -0.2356  0.2869
  136SAPE    HA14710   0.103   0.336  10.709 -0.0181 -0.3288 -0.8799
  136SAPE    HB14711   0.243   0.421  10.777  0.0606  0.5302 -1.9361
  136SAPE    C214712   0.278   0.298  10.597 -0.4557 -0.1792 -0.3420
  136SAPE    HS14713   0.252   0.193  10.572 -1.0219 -0.3578  0.9141
  136SAPE   O2114714   0.425   0.319  10.607  0.6296 -0.2718 -0.4093
  136SAPE   C2114715   0.501   0.254  10.511 -0.1619 -0.0509 -0.5286
  136SAPE   O2214716   0.458   0.167  10.439 -0.3102  0.0458 -0.3718
  136SAPE   C2214717   0.648   0.304  10.520 -0.3351  0.2949 -0.0751
  136SAPE   H2R14718   0.675   0.309  10.628  0.5221 -0.6059 -0.2341
  136SAPE   H2S14719   0.710   0.231  10.463 -2.3900  0.2774 -2.3485
  136SAPE    C314720   0.207   0.389  10.499  0.0340  0.4815  0.4810
  136SAPE    HX14721   0.218   0.490  10.545  0.2418  0.9544 -0.6066
  136SAPE    HY14722   0.098   0.382  10.479  0.5984  0.5570 -2.8663
  136SAPE   O3114723   0.273   0.384  10.367  0.2598 -0.0923 -0.7777
  136SAPE   C3114724   0.232   0.280  10.290 -0.2353  0.1286 -0.3653
  136SAPE   O3214725   0.137   0.208  10.314 -0.1168 -0.4498  0.1116
  136SAPE   C3214726   0.302   0.284  10.156 -0.0625  0.3613  0.4637
  136SAPE   H2X14727   0.406   0.252  10.182 -0.4997 -0.1103  1.6686
  136SAPE   H2Y14728   0.313   0.389  10.120 -1.2689 -0.6176 -3.0346
  136SAPE   C2314729   0.663   0.440  10.458  0.1728 -0.1944 -0.3453
  136SAPE   H3R14730   0.764   0.468  10.495 -0.4271  2.4906 -0.6077
  136SAPE   H3S14731   0.598   0.520  10.499  1.3325  0.5606  0.0592
  136SAPE   C2414732   0.675   0.447  10.303 -0.1407 -0.1852  0.3056
  136SAPE   H4R14733   0.598   0.379  10.261  0.2826  0.0968 -0.9459
  136SAPE   H4S14734   0.774   0.407  10.273  0.1683 -0.3234  1.4833
  136SAPE   C2514735   0.659   0.587  10.257 -0.2932  0.1791 -0.1117
  136SAPE   H5R14736   0.613   0.655  10.330 -0.4653  0.3449 -0.3709
  136SAPE   C2614737   0.684   0.627  10.133  0.1828  0.7382  0.2762
  136SAPE   H6R14738   0.668   0.735  10.121  0.0038  0.6368 -0.4117
  136SAPE   C2714739   0.732   0.550  10.006 -0.0091  0.1393 -0.6425
  136SAPE   H7R14740   0.824   0.502  10.044 -0.1924  0.2371 -0.0747
  136SAPE   H7S14741   0.772   0.628   9.937  0.4561 -0.0469 -0.5825
  136SAPE   C2814742   0.626   0.467   9.943  0.5819 -0.6160  1.4813
  136SAPE   H8R14743   0.591   0.386  10.009 -0.0459  0.5116  2.5386
  136SAPE   C2914744   0.590   0.465   9.809 -0.0423 -0.3990  0.6856
  136SAPE   H9R14745   0.512   0.394   9.777  0.8497 -0.9747 -0.2125
  136SAPE  C21014746   0.642   0.546   9.696  0.4169  0.2163  0.3111
  136SAPE  H10R14747   0.690   0.640   9.733 -0.4163  0.8011 -0.0810
  136SAPE  H10S14748   0.550   0.568   9.638  0.4565 -0.3286  0.0448
  136SAPE  C21114749   0.747   0.474   9.627 -0.2583  0.5626 -0.0966
  136SAPE  H11R14750   0.837   0.469   9.691 -0.7726  0.5440  0.6221
  136SAPE  C21214751   0.744   0.417   9.505 -0.5025  0.6057  0.1456
  136SAPE  H12R14752   0.829   0.371   9.451  0.1211 -0.5553  2.0605
  136SAPE  C21314753   0.627   0.426   9.413 -0.2162 -0.2921 -0.0385
  136SAPE  H13R14754   0.583   0.527   9.427  1.2243  0.3401 -0.0638
  136SAPE  H13S14755   0.545   0.356   9.442 -0.9180  0.4157 -0.2976
  136SAPE  C21414756   0.659   0.404   9.265 -0.1762 -0.2364  0.1842
  136SAPE  H14R14757   0.752   0.347   9.250 -0.7095 -0.4115 -2.7271
  136SAPE  C21514758   0.605   0.469   9.157 -0.3677  0.0737  0.1315
  136SAPE  H15R14759   0.643   0.436   9.060  0.1283 -2.2582  1.0728
  136SAPE  C21614760   0.501   0.574   9.147  0.3083  0.9765  0.4865
  136SAPE  H16R14761   0.465   0.594   9.250  1.2507  0.0527  1.0125
  136SAPE  H16S14762   0.408   0.541   9.095  1.0722  1.0318 -0.9506
  136SAPE  C21714763   0.542   0.706   9.073  0.3433 -0.0743 -0.0956
  136SAPE  H17R14764   0.634   0.736   9.128  0.9793 -1.1637 -0.5594
  136SAPE  H17S14765   0.459   0.777   9.094  2.2163  1.8383  0.9920
  136SAPE  C21814766   0.561   0.685   8.915  0.0036 -0.2145  0.0489
  136SAPE  H18R14767   0.627   0.600   8.889  0.6376 -0.3898  2.0911
  136SAPE  H18S14768   0.593   0.777   8.863 -0.8536  0.2778  0.3721
  136SAPE  C21914769   0.428   0.647   8.857  0.8926 -0.6108  0.0531
  136SAPE  H19R14770   0.366   0.739   8.866 -1.6369 -2.2593 -0.1684
  136SAPE  H19S14771   0.372   0.566   8.908  1.0001  0.2898  1.6629
  136SAPE  C22014772   0.421   0.608   8.710 -0.8742 -0.1776 -0.7590
  136SAPE  H20R14773   0.450   0.501   8.696 -0.4049 -0.5815  2.7496
  136SAPE  H20S14774   0.500   0.671   8.663  0.7923 -0.6206  1.3619
  136SAPE  H20T14775   0.325   0.639   8.664 -0.5579  0.0866 -1.2439
  136SAPE   C3314776   0.249   0.209  10.035 -0.0428 -0.1696 -0.1831
  136SAPE   H3X14777   0.143   0.240  10.041  0.1358  0.8205 -1.7251
  136SAPE   H3Y14778   0.251   0.099  10.046  1.4463  0.0666  2.1704
  136SAPE   C3414779   0.316   0.250   9.908  0.2443 -0.0259  0.0524
  136SAPE   H4X14780   0.417   0.206   9.906 -0.1811 -1.2072  2.5242
  136SAPE   H4Y14781   0.330   0.360   9.901  1.3851 -0.0171  2.2667
  136SAPE   C3514782   0.242   0.188   9.793 -0.0760 -0.2656 -0.5985
  136SAPE   H5X14783   0.131   0.191   9.801 -0.1524 -1.0745 -1.2319
  136SAPE   H5Y14784   0.267   0.080   9.785  1.6638 -0.1128  2.3010
  136SAPE   C3614785   0.258   0.266   9.657 -0.3366 -0.1206  0.4499
  136SAPE   H6X14786   0.361   0.296   9.629  0.2042 -1.4950  0.9618
  136SAPE   H6Y14787   0.190   0.353   9.673  1.0428  1.1026 -0.2869
  136SAPE   C3714788   0.197   0.180   9.543  0.1815  0.7329  0.4310
  136SAPE   H7X14789   0.096   0.147   9.574  1.1957  0.0306  3.1746
  136SAPE   H7Y14790   0.250   0.082   9.542 -0.7679  0.2128 -0.7839
  136SAPE   C3814791   0.193   0.254   9.411 -0.8006  0.5242 -0.0898
  136SAPE   H8X14792   0.299   0.271   9.379 -0.8209 -1.8105 -1.5831
  136SAPE   H8Y14793   0.148   0.355   9.411  0.1928  0.9756 -0.6134
  136SAPE   C3914794   0.128   0.186   9.291  0.0979 -0.0137 -0.2802
  136SAPE   H9X14795   0.034   0.135   9.324  0.7698  1.1473  3.7185
  136SAPE   H9Y14796   0.196   0.106   9.256  0.6666  0.5540 -0.4817
  136SAPE  C31014797   0.103   0.278   9.166 -0.0588  0.4377  0.7762
  136SAPE  H10X14798   0.195   0.340   9.156 -0.1377  0.5152  0.5283
  136SAPE  H10Y14799   0.021   0.347   9.195 -1.1777 -1.3431  1.9072
  136SAPE  C31114800   0.084   0.202   9.035 -0.7261  0.3306  0.0143
  136SAPE  H11X14801  -0.011   0.144   9.038 -1.7780  1.9703 -0.6145
  136SAPE  H11Y14802   0.162   0.123   9.026 -1.6862 -0.6541  0.2193
  136SAPE  C31214803   0.100   0.288   8.907 -0.7355  0.2022  0.5512
  136SAPE  H12X14804   0.201   0.326   8.880 -0.7998  1.1688  1.6309
  136SAPE  H12Y14805   0.039   0.380   8.906  0.5229  1.0481 -0.8228
  136SAPE  C31314806   0.061   0.209   8.787  0.7710  0.4417  1.0388
  136SAPE  H13X14807  -0.048   0.188   8.774  1.2895 -1.5589 -0.1774
  136SAPE  H13Y14808   0.105   0.108   8.777  0.1043  0.2332  0.1211
  136SAPE  C31414809   0.111   0.282   8.657  0.3737 -0.3414  0.1426
  136SAPE  H14X14810   0.105   0.207   8.575  1.1300  0.5805 -0.7616
  136SAPE  H14Y14811   0.216   0.308   8.684  0.4510  0.4897 -0.9710
  136SAPE  C31514812   0.014   0.401   8.613 -0.3193  0.9516 -0.0862
  136SAPE  H15X14813  -0.028   0.456   8.701 -1.6791 -1.2618  0.6843
  136SAPE  H15Y14814  -0.077   0.356   8.567  0.7900 -1.3986 -0.0417
  136SAPE  C31614815   0.084   0.510   8.524 -0.6144 -0.2339 -0.2323
  136SAPE  H16X14816   0.185   0.531   8.565 -1.5874 -0.9320  2.6336
  136SAPE  H16Y14817   0.024   0.603   8.536 -0.5882  0.1071 -2.4601
  136SAPE  C31714818   0.094   0.469   8.376 -0.2219  0.1390  0.6095
  136SAPE  H17X14819   0.090   0.564   8.319 -0.3124  0.4996  1.2119
  136SAPE  H17Y14820  -0.004   0.421   8.355 -0.3587  0.8435 -0.3651
  136SAPE  C31814821   0.216   0.386   8.332 -0.1005  0.5412  0.1993
  136SAPE  H18X14822   0.221   0.388   8.221 -0.3606  0.4686  0.1858
  136SAPE  H18Y14823   0.222   0.282   8.372  2.0784  0.1035 -1.1581
  136SAPE  H18Z14824   0.316   0.418   8.370  0.7528 -0.2602 -1.2885
  137SAPE     N14825   5.198   3.827  11.026 -0.6786  0.1044 -0.0611
  137SAPE   HN114826   5.109   3.854  11.072  0.1144  2.9879 -0.1501
  137SAPE   HN214827   5.249   3.774  11.099 -0.1079  0.2793 -0.3279
  137SAPE   HN314828   5.239   3.920  11.004 -2.0664  0.4984 -1.0521
  137SAPE   C1214829   5.184   3.750  10.901  0.0425 -0.3433  0.5164
  137SAPE  H12A14830   5.277   3.695  10.879 -0.1448 -0.2378 -0.5854
  137SAPE  H12B14831   5.165   3.824  10.819 -1.8602 -0.4717  0.8201
  137SAPE   C1114832   5.066   3.646  10.901  0.1594  0.1009 -0.0530
  137SAPE  H11A14833   5.030   3.629  10.797  0.9407 -2.0397  0.0094
  137SAPE  H11B14834   4.979   3.684  10.959 -1.9822  1.1113 -3.7896
  137SAPE     P14835   5.156   3.402  10.873  0.6928 -0.3525 -0.4519
  137SAPE   O1314836   5.243   3.460  10.771  0.9640 -0.0364  0.5047
  137SAPE   O1414837   5.219   3.303  10.960  0.0506 -0.0935  0.1313
  137SAPE   O1214838   5.096   3.519  10.958  0.7266 -0.4681  0.1703
  137SAPE   O1114839   5.024   3.344  10.812 -0.6249 -0.2505 -0.0403
  137SAPE    C114840   5.019   3.213  10.756  0.4283  0.5345 -0.1619
  137SAPE    HA14841   5.059   3.138  10.827  1.7648  2.1926  0.8774
  137SAPE    HB14842   4.911   3.192  10.744  1.1510 -1.8689 -3.3871
  137SAPE    C214843   5.090   3.204  10.615  0.3645 -0.0902  0.0769
  137SAPE    HS14844   5.199   3.223  10.626  0.4425  0.3842 -1.4891
  137SAPE   O2114845   5.019   3.303  10.534  0.2281  0.6108 -0.0952
  137SAPE   C2114846   5.090   3.377  10.448  0.4327 -0.5738 -0.9220
  137SAPE   O2214847   5.205   3.413  10.463  0.2445  0.0075  0.4498
  137SAPE   C2214848   4.997   3.407  10.333 -0.2200 -0.4247  0.1445
  137SAPE   H2R14849   4.969   3.313  10.281  1.1270 -0.4571 -0.5484
  137SAPE   H2S14850   4.903   3.456  10.365 -1.4231 -0.5808 -2.9718
  137SAPE    C314851   5.078   3.067  10.547  0.2469  0.7724  0.5436
  137SAPE    HX14852   4.975   3.026  10.548  0.9917 -1.1738 -0.2001
  137SAPE    HY14853   5.144   2.998  10.605  0.4976  0.3114 -0.2725
  137SAPE   O3114854   5.113   3.077  10.408 -0.0876  0.0307 -0.2446
  137SAPE   C3114855   5.244   3.078  10.379 -0.2343 -0.1500 -0.6771
  137SAPE   O3214856   5.330   3.072  10.462  0.2577  0.2471 -0.4239
  137SAPE   C3214857   5.265   3.111  10.231  0.6620  0.4054  0.6287
  137SAPE   H2X14858   5.254   3.221  10.215  1.3065  0.5881  1.4087
  137SAPE   H2Y14859   5.183   3.054  10.182 -1.1628  4.4463 -1.3078
  137SAPE   C2314860   5.058   3.507  10.225 -0.7670 -0.3371 -0.3609
  137SAPE   H3R14861   5.156   3.468  10.189 -0.6773  0.2823 -0.7852
  137SAPE   H3S14862   5.077   3.603  10.278 -1.5937 -1.0826  1.3357
  137SAPE   C2414863   4.957   3.548  10.113  0.0020  1.0147 -0.1855
  137SAPE   H4R14864   4.992   3.644  10.070  2.8388 -0.0455 -0.3575
  137SAPE   H4S14865   4.857   3.566  10.156  0.6255 -0.2284  1.8503
  137SAPE   C2514866   4.953   3.441  10.003  0.4981  0.1652 -0.4024
  137SAPE   H5R14867   4.957   3.336  10.035 -0.0099 -0.0354 -0.9680
  137SAPE   C2614868   4.926   3.460   9.872 -0.2826 -0.7640 -0.1404
  137SAPE   H6R14869   4.919   3.374   9.804  0.8725 -1.4449  0.5967
  137SAPE   C2714870   4.892   3.595   9.809 -0.8496  0.5192  0.2426
  137SAPE   H7R14871   4.973   3.665   9.837  2.9603 -3.6640  0.2880
  137SAPE   H7S14872   4.806   3.635   9.866  0.0717  0.1082  1.9542
  137SAPE   C2814873   4.864   3.592   9.658 -0.3541 -0.3756  0.1768
  137SAPE   H8R14874   4.833   3.494   9.620 -0.2816  0.4351 -2.0086
  137SAPE   C2914875   4.872   3.682   9.562  0.0129  0.1495 -0.3995
  137SAPE   H9R14876   4.859   3.654   9.456 -1.9912 -0.4874 -0.0108
  137SAPE  C21014877   4.902   3.826   9.574  0.6561  0.1758 -0.0842
  137SAPE  H10R14878   4.861   3.870   9.668  2.4027  1.9441 -0.1143
  137SAPE  H10S14879   4.839   3.881   9.501  0.8717  0.6257  0.0665
  137SAPE  C21114880   5.050   3.848   9.561  0.9555 -0.0516 -0.6669
  137SAPE  H11R14881   5.108   3.850   9.654  0.8167  0.9544 -0.5969
  137SAPE  C21214882   5.108   3.888   9.445  0.1808  0.0697  0.2271
  137SAPE  H12R14883   5.213   3.919   9.455 -0.2876  1.6579  0.3457
  137SAPE  C21314884   5.047   3.923   9.316 -0.4524 -0.4056 -0.3760
  137SAPE  H13R14885   5.068   4.025   9.278 -2.5388 -0.3846 -1.5699
  137SAPE  H13S14886   4.936   3.914   9.317 -0.5285  0.1949 -1.8958
  137SAPE  C21414887   5.097   3.817   9.219 -0.4973 -0.0350  0.4163
  137SAPE  H14R14888   5.142   3.729   9.266  0.7925  0.5316  0.2789
  137SAPE  C21514889   5.096   3.830   9.083  0.3168 -0.2040 -0.1462
  137SAPE  H15R14890   5.118   3.739   9.024  0.1830  0.6250 -1.5027
  137SAPE  C21614891   5.036   3.945   9.008  0.8324 -0.6677  0.2010
  137SAPE  H16R14892   4.969   4.012   9.066  0.5659 -0.8321  0.0787
  137SAPE  H16S14893   4.972   3.911   8.924 -2.0686 -0.4182  2.2187
  137SAPE  C21714894   5.143   4.040   8.954  0.2139  1.1917 -0.3572
  137SAPE  H17R14895   5.215   4.069   9.035  0.2798 -1.0925  0.4368
  137SAPE  H17S14896   5.104   4.137   8.918 -1.6592  0.5012 -0.2029
  137SAPE  C21814897   5.226   3.970   8.838  0.1567  0.1852 -0.2818
  137SAPE  H18R14898   5.153   3.908   8.782  2.9845 -2.4713 -1.1721
  137SAPE  H18S14899   5.302   3.896   8.875  0.3680 -0.9903 -2.9710
  137SAPE  C21914900   5.293   4.059   8.737 -0.6281  0.2725 -0.2596
  137SAPE  H19R14901   5.221   4.127   8.687 -0.3317  0.4790 -0.4065
  137SAPE  H19S14902   5.340   3.991   8.663  0.9991  0.6541  0.4160
  137SAPE  C22014903   5.415   4.137   8.789 -0.2519  0.6989  0.7807
  137SAPE  H20R14904   5.478   4.172   8.705 -1.7776 -1.1059 -1.1648
  137SAPE  H20S14905   5.475   4.090   8.870 -2.5481 -4.9124 -0.5329
  137SAPE  H20T14906   5.370   4.229   8.833 -1.1922  1.0326 -0.8457
  137SAPE   C3314907   5.396   3.060  10.184 -0.4121  0.0269 -0.1914
  137SAPE   H3X14908   5.448   2.983  10.246  0.0161  0.0777 -0.4851
  137SAPE   H3Y14909   5.467   3.145  10.193 -1.9187  1.3744 -0.9664
  137SAPE   C3414910   5.382   3.007  10.044  0.4604  0.5288 -0.0341
  137SAPE   H4X14911   5.313   3.063   9.977 -0.5210 -0.1134  0.4386
  137SAPE   H4Y14912   5.347   2.902  10.037  0.0141  0.6627  0.1973
  137SAPE   C3514913   5.527   3.000   9.984 -0.2320 -0.4045  0.0739
  137SAPE   H5X14914   5.588   2.917  10.026 -0.2044 -2.0395 -3.0384
  137SAPE   H5Y14915   5.577   3.091  10.023 -1.4544 -0.8427  2.8094
  137SAPE   C3614916   5.525   2.990   9.827 -0.3883 -0.6875 -0.5791
  137SAPE   H6X14917   5.437   3.047   9.790 -0.2524 -0.3830 -0.4312
  137SAPE   H6Y14918   5.500   2.885   9.799 -0.0763 -0.4709 -1.7139
  137SAPE   C3714919   5.658   3.041   9.764 -0.5098 -0.3437 -0.2709
  137SAPE   H7X14920   5.737   2.980   9.814  0.9992  1.5385 -0.3113
  137SAPE   H7Y14921   5.686   3.147   9.782  0.5419 -0.4739 -1.0882
  137SAPE   C3814922   5.667   3.018   9.616 -0.2901  0.0799 -0.0306
  137SAPE   H8X14923   5.646   2.910   9.604  1.0179 -0.2590  0.6284
  137SAPE   H8Y14924   5.763   3.033   9.563  1.3215 -0.1525  2.7524
  137SAPE   C3914925   5.556   3.106   9.542  0.1201 -0.1087 -0.6454
  137SAPE   H9X14926   5.583   3.213   9.550 -1.2969  0.2642 -0.7987
  137SAPE   H9Y14927   5.457   3.099   9.591 -0.6442  2.6281 -1.7493
  137SAPE  C31014928   5.542   3.066   9.393 -0.0089 -0.0946  0.6029
  137SAPE  H10X14929   5.448   3.117   9.364 -0.4394 -3.0723 -3.6633
  137SAPE  H10Y14930   5.517   2.958   9.387 -1.1234  0.2475 -1.2191
  137SAPE  C31114931   5.649   3.104   9.291 -0.1685  0.4084 -0.5258
  137SAPE  H11X14932   5.740   3.042   9.306 -1.1398 -0.9301 -0.1247
  137SAPE  H11Y14933   5.681   3.210   9.308 -0.4269  0.2667  0.9034
  137SAPE  C31214934   5.609   3.086   9.143 -0.0517  0.6557  0.5362
  137SAPE  H12X14935   5.701   3.092   9.080 -1.0709 -1.6760 -1.2469
  137SAPE  H12Y14936   5.550   3.170   9.102  1.1993  1.1696 -0.2435
  137SAPE  C31314937   5.539   2.950   9.107  0.1446 -0.6638  0.0716
  137SAPE  H13X14938   5.446   2.932   9.165  0.5468  0.6162  1.1527
  137SAPE  H13Y14939   5.601   2.867   9.148  2.3813  1.3719  0.9844
  137SAPE  C31414940   5.521   2.942   8.956  0.1305  0.8985  0.4286
  137SAPE  H14X14941   5.618   2.959   8.904  1.0991 -2.1330  1.1430
  137SAPE  H14Y14942   5.441   3.009   8.918 -2.4791 -2.1270  0.3494
  137SAPE  C31514943   5.474   2.801   8.921  0.0385 -0.6219  0.0103
  137SAPE  H15X14944   5.375   2.785   8.969  0.5564  0.9511  1.6732
  137SAPE  H15Y14945   5.550   2.721   8.934  2.4668  1.2903 -1.8191
  137SAPE  C31614946   5.441   2.790   8.776  0.0079  0.5538 -0.3478
  137SAPE  H16X14947   5.384   2.879   8.743 -0.2983  0.7239  0.6505
  137SAPE  H16Y14948   5.392   2.691   8.761  0.4676  0.2985 -0.1905
  137SAPE  C31714949   5.568   2.783   8.684  0.2395 -0.9860  0.6128
  137SAPE  H17X14950   5.636   2.700   8.711 -0.0790 -1.7512 -0.8878
  137SAPE  H17Y14951   5.624   2.874   8.713 -0.6523 -0.2585  0.0857
  137SAPE  C31814952   5.543   2.775   8.534 -0.5028  0.1358 -0.8527
  137SAPE  H18X14953   5.461   2.703   8.515  0.6644 -1.6084  0.5615
  137SAPE  H18Y14954   5.636   2.743   8.482  0.1044 -1.3146  1.0528
  137SAPE  H18Z14955   5.536   2.878   8.493  0.1662  0.9831  1.0664
  138SAPE     N14956   1.556   3.587  10.764  0.2805  0.0724  0.4451
  138SAPE   HN114957   1.487   3.592  10.842  0.1176 -1.5247  0.4207
  138SAPE   HN214958   1.633   3.644  10.803  0.6330 -0.7435  0.9355
  138SAPE   HN314959   1.519   3.629  10.676 -2.2038 -2.6258  0.1297
  138SAPE   C1214960   1.609   3.444  10.748  0.0824 -0.1469 -0.6282
  138SAPE  H12A14961   1.528   3.389  10.695 -1.4983  0.9545  0.5747
  138SAPE  H12B14962   1.600   3.390  10.845 -0.6083 -1.2517 -1.2921
  138SAPE   C1114963   1.750   3.441  10.696  0.2012 -0.4284 -0.7390
  138SAPE  H11A14964   1.755   3.481  10.592  0.8980  1.5978  0.0350
  138SAPE  H11B14965   1.785   3.336  10.701 -0.0286 -0.4184  2.5341
  138SAPE     P14966   1.880   3.675  10.772  0.0186 -0.3061  0.0751
  138SAPE   O1314967   1.763   3.764  10.809 -0.2980  0.3093  0.4339
  138SAPE   O1414968   2.008   3.697  10.847  0.0573 -0.0444 -0.4923
  138SAPE   O1214969   1.833   3.524  10.782  0.3927 -0.2536 -0.5760
  138SAPE   O1114970   1.915   3.696  10.615 -0.5973 -0.6237 -0.3146
  138SAPE    C114971   1.932   3.828  10.569 -0.0200 -0.0345 -0.1128
  138SAPE    HA14972   1.853   3.899  10.600  1.0636  0.4001  1.7214
  138SAPE    HB14973   2.034   3.866  10.592 -0.8780  2.2235  0.0288
  138SAPE    C214974   1.924   3.820  10.418  0.4779 -0.2540  0.3900
  138SAPE    HS14975   2.015   3.763  10.392  0.2754 -0.8944  1.0702
  138SAPE   O2114976   1.922   3.957  10.374  0.0453 -0.4267  0.0687
  138SAPE   C2114977   2.025   4.033  10.394 -0.0539  0.1088 -0.6748
  138SAPE   O2214978   2.137   4.004  10.437  0.1865 -0.3502  0.1746
  138SAPE   C2214979   1.989   4.175  10.346 -0.0634 -0.6207 -0.5117
  138SAPE   H2R14980   1.907   4.179  10.271 -0.9860 -1.5175  0.4310
  138SAPE   H2S14981   1.944   4.228  10.433 -0.3463 -0.5511 -0.6978
  138SAPE    C314982   1.796   3.758  10.362 -0.2768 -0.2188 -0.1697
  138SAPE    HX14983   1.719   3.838  10.348 -0.6020 -0.6669 -0.9856
  138SAPE    HY14984   1.750   3.688  10.435 -2.3264  0.8238 -0.3979
  138SAPE   O3114985   1.828   3.681  10.245  0.1346  0.8359 -0.0506
  138SAPE   C3114986   1.726   3.639  10.180 -0.0348  0.4043 -0.2889
  138SAPE   O3214987   1.611   3.656  10.210 -0.1461 -0.0289 -0.5441
  138SAPE   C3214988   1.780   3.573  10.051  0.1089 -0.6819 -0.1443
  138SAPE   H2X14989   1.737   3.471  10.043 -1.4269 -0.0568 -0.0116
  138SAPE   H2Y14990   1.891   3.567  10.053  0.2496  0.1039 -2.7380
  138SAPE   C2314991   2.104   4.258  10.296 -0.2612 -0.4472 -0.2220
  138SAPE   H3R14992   2.200   4.258  10.352  0.9436 -1.2513 -2.2191
  138SAPE   H3S14993   2.064   4.361  10.300 -0.6006 -0.5689 -0.4757
  138SAPE   C2414994   2.135   4.237  10.150 -0.0396  0.0188 -0.1867
  138SAPE   H4R14995   2.198   4.326  10.129 -0.2615  0.7922  2.2740
  138SAPE   H4S14996   2.044   4.238  10.085  0.1061  0.2574 -0.3901
  138SAPE   C2514997   2.222   4.115  10.126 -0.0429 -0.0771  1.1040
  138SAPE   H5R14998   2.308   4.088  10.189  3.1066 -0.1070 -2.9868
  138SAPE   C2614999   2.209   4.028  10.020 -0.4383 -0.1373  0.8023
  138SAPE   H6R15000   2.266   3.935  10.038  0.1727 -0.1424 -1.0331
  138SAPE   C2715001   2.109   4.032   9.912  0.0358 -0.0070  0.2624
  138SAPE   H7R15002   2.105   4.139   9.885  0.9284  0.5039  2.1110
  138SAPE   H7S15003   2.010   3.991   9.940 -0.4526  0.3267 -0.9720
  138SAPE   C2815004   2.151   3.966   9.779  0.0486  0.0659 -0.3391
  138SAPE   H8R15005   2.256   3.934   9.764 -0.6551 -2.4809  0.0744
  138SAPE   C2915006   2.067   3.955   9.673 -0.0762  0.0940 -0.7935
  138SAPE   H9R15007   2.104   3.912   9.579  1.4661 -1.3344  0.4348
  138SAPE  C21015008   1.925   4.016   9.665 -0.1265 -0.7705  0.7729
  138SAPE  H10R15009   1.915   4.092   9.746 -1.0001  0.3140 -0.3442
  138SAPE  H10S15010   1.853   3.936   9.689  2.4083 -3.4112 -0.1374
  138SAPE  C21115011   1.879   4.078   9.540 -0.0277 -0.0584  0.8470
  138SAPE  H11R15012   1.801   4.020   9.490  2.3498 -1.0581 -1.8816
  138SAPE  C21215013   1.925   4.188   9.479 -0.4579 -0.6290 -0.6507
  138SAPE  H12R15014   1.887   4.227   9.383  0.7022  1.4967 -0.2753
  138SAPE  C21315015   2.044   4.271   9.525  0.0074  0.1380  0.6833
  138SAPE  H13R15016   2.140   4.217   9.508  0.0168 -0.0563  1.3196
  138SAPE  H13S15017   2.033   4.286   9.635 -1.5316 -1.6326  0.7913
  138SAPE  C21415018   2.052   4.408   9.456 -0.0428 -0.1738  0.1831
  138SAPE  H14R15019   2.001   4.491   9.508  0.9622  0.6389 -0.1093
  138SAPE  C21515020   2.100   4.430   9.332 -1.2166  0.1298  0.1647
  138SAPE  H15R15021   2.094   4.530   9.285 -1.0346 -0.3369 -0.8582
  138SAPE  C21615022   2.160   4.325   9.244 -0.2182  0.4506  0.4745
  138SAPE  H16R15023   2.165   4.226   9.295  3.0162  0.4816  0.3287
  138SAPE  H16S15024   2.263   4.349   9.208  0.3721  0.1251  1.9273
  138SAPE  C21715025   2.074   4.297   9.110 -0.5848 -0.7475  0.9111
  138SAPE  H17R15026   1.967   4.286   9.134 -0.5239 -3.2813  0.1798
  138SAPE  H17S15027   2.112   4.200   9.070  1.1465 -0.2175  1.2010
  138SAPE  C21815028   2.087   4.402   9.001 -0.4005  0.1575 -0.4913
  138SAPE  H18R15029   2.182   4.395   8.944  0.0719  0.8710  0.1965
  138SAPE  H18S15030   2.078   4.500   9.052 -0.9186  1.3881 -2.8525
  138SAPE  C21915031   1.970   4.373   8.900 -0.0457 -0.4474  0.2432
  138SAPE  H19R15032   1.877   4.406   8.952 -0.8349 -0.4861 -1.1383
  138SAPE  H19S15033   1.955   4.265   8.881 -0.1651 -0.3753 -0.0603
  138SAPE  C22015034   1.975   4.467   8.773  0.5910  0.2218  0.1946
  138SAPE  H20R15035   1.886   4.461   8.707  0.6173 -1.8050  0.3093
  138SAPE  H20S15036   2.064   4.427   8.719  0.7443  0.9833 -0.1185
  138SAPE  H20T15037   1.990   4.572   8.805 -0.1094  0.7049 -1.0261
  138SAPE   C3315038   1.747   3.655   9.928  0.0122 -0.0799 -0.2306
  138SAPE   H3X15039   1.789   3.758   9.928  0.6040 -0.3173 -0.1870
  138SAPE   H3Y15040   1.636   3.655   9.923  0.0977 -1.2001 -3.3242
  138SAPE   C3415041   1.783   3.582   9.797  0.0944  0.2191 -0.5306
  138SAPE   H4X15042   1.754   3.647   9.712 -0.4481  1.4589  0.6043
  138SAPE   H4Y15043   1.722   3.489   9.806  2.2002 -1.1156  0.6370
  138SAPE   C3515044   1.921   3.532   9.762 -1.1791 -0.6046 -0.6278
  138SAPE   H5X15045   1.962   3.468   9.842 -0.9638 -2.0247 -1.8577
  138SAPE   H5Y15046   1.993   3.616   9.766 -2.3240  0.4615 -1.7564
  138SAPE   C3615047   1.942   3.459   9.631  0.2556  0.4156 -0.5520
  138SAPE   H6X15048   1.858   3.389   9.610  0.0365  1.1051 -2.0763
  138SAPE   H6Y15049   2.034   3.399   9.648 -0.1814  0.6421  2.8952
  138SAPE   C3715050   1.954   3.554   9.508 -0.0469  0.5408 -0.0335
  138SAPE   H7X15051   2.027   3.634   9.535  0.8821 -0.3246  0.0427
  138SAPE   H7Y15052   1.858   3.599   9.476 -0.4985  1.0977  2.0615
  138SAPE   C3815053   2.005   3.495   9.379 -0.2586  0.5311 -0.7225
  138SAPE   H8X15054   2.111   3.468   9.400  0.2090 -1.3365 -4.8770
  138SAPE   H8Y15055   1.997   3.569   9.297 -0.1044  1.6556  0.2590
  138SAPE   C3915056   1.929   3.364   9.340 -0.1530  0.7920 -0.6380
  138SAPE   H9X15057   1.826   3.402   9.320 -0.9594 -1.2340 -0.4831
  138SAPE   H9Y15058   1.928   3.291   9.424 -0.8328  1.4583 -0.0613
  138SAPE  C31015059   1.980   3.294   9.210  0.2610  0.7081 -0.0724
  138SAPE  H10X15060   1.950   3.187   9.203 -0.2257  0.7632  1.0831
  138SAPE  H10Y15061   2.091   3.303   9.216  0.2724  0.5380 -0.0238
  138SAPE  C31115062   1.923   3.363   9.090 -0.6153 -0.2092 -0.6170
  138SAPE  H11X15063   1.977   3.460   9.076  0.4562 -0.6242  0.5431
  138SAPE  H11Y15064   1.813   3.373   9.100 -0.5925  2.0255 -2.1288
  138SAPE  C31215065   1.975   3.288   8.963 -0.4753  0.4372  0.9548
  138SAPE  H12X15066   1.973   3.179   8.984  0.6816  0.6342  2.1675
  138SAPE  H12Y15067   2.084   3.306   8.947 -0.5346 -0.6370 -0.6999
  138SAPE  C31315068   1.907   3.318   8.834  0.3515 -0.2585 -0.5859
  138SAPE  H13X15069   1.961   3.270   8.749  3.1277 -0.4856  1.2312
  138SAPE  H13Y15070   1.901   3.427   8.815 -1.4155 -0.2405  0.0335
  138SAPE  C31415071   1.765   3.270   8.837 -0.3017 -0.5214 -0.5361
  138SAPE  H14X15072   1.717   3.339   8.911  1.6627  1.4647 -1.0560
  138SAPE  H14Y15073   1.746   3.168   8.875  1.2305 -0.3122  0.8477
  138SAPE  C31515074   1.693   3.298   8.706 -0.0852  0.5732 -0.1898
  138SAPE  H15X15075   1.590   3.257   8.717 -0.1020  1.1691  2.2866
  138SAPE  H15Y15076   1.747   3.251   8.621 -1.3159 -0.6440 -0.3218
  138SAPE  C31615077   1.685   3.448   8.662 -0.2162  0.4826  0.3630
  138SAPE  H16X15078   1.783   3.476   8.617  0.1912  2.4087  2.3516
  138SAPE  H16Y15079   1.678   3.515   8.750  0.7588 -1.0648  1.6391
  138SAPE  C31715080   1.588   3.490   8.549 -0.3479 -0.2157 -0.2452
  138SAPE  H17X15081   1.585   3.413   8.469 -1.3324 -0.3668 -0.0605
  138SAPE  H17Y15082   1.632   3.584   8.508 -1.4329  0.5927  0.4262
  138SAPE  C31815083   1.454   3.507   8.607  0.4673  0.0770  0.3312
  138SAPE  H18X15084   1.380   3.543   8.532  0.2132 -1.7635 -0.3295
  138SAPE  H18Y15085   1.449   3.588   8.682  0.1176  1.4770 -1.1819
  138SAPE  H18Z15086   1.413   3.414   8.653 -0.2707 -0.2277 -0.9216
  139SAPE     N15087   1.992   1.929  10.748  0.5875 -0.1365  0.0888
  139SAPE   HN115088   1.997   1.926  10.852  1.7603 -0.8886  0.0223
  139SAPE   HN215089   1.893   1.914  10.718  1.0832 -2.2396 -0.6025
  139SAPE   HN315090   2.041   1.853  10.697 -2.7014 -2.9961  0.9622
  139SAPE   C1215091   2.039   2.047  10.676  0.1291  0.7136  0.4711
  139SAPE  H12A15092   2.150   2.044  10.672  0.0726 -2.6516 -0.1347
  139SAPE  H12B15093   2.008   2.131  10.742  1.1947  0.6487  1.0635
  139SAPE   C1115094   1.955   2.068  10.543  0.3839  1.1581 -0.0995
  139SAPE  H11A15095   1.979   1.986  10.472  0.9935 -0.1398  1.5599
  139SAPE  H11B15096   1.968   2.167  10.494  0.4406  1.0404 -0.3244
  139SAPE     P15097   1.694   2.079  10.499  0.1789  0.0307  0.2759
  139SAPE   O1315098   1.623   1.947  10.483  0.2532  0.4698 -0.5825
  139SAPE   O1415099   1.609   2.182  10.565  0.3691  0.4503  0.0262
  139SAPE   O1215100   1.818   2.048  10.585 -0.0925 -0.2503 -0.0772
  139SAPE   O1115101   1.757   2.128  10.359 -0.5264 -0.1345  0.6104
  139SAPE    C115102   1.720   2.079  10.236 -0.7975  0.0678  0.1826
  139SAPE    HA15103   1.808   2.091  10.169 -0.3965 -2.4301  0.2196
  139SAPE    HB15104   1.706   1.969  10.235  1.0259 -0.1882  0.6725
  139SAPE    C215105   1.597   2.143  10.166  0.5359 -0.0886 -0.6428
  139SAPE    HS15106   1.551   2.076  10.091 -1.0285  0.7792 -0.4840
  139SAPE   O2115107   1.629   2.270  10.104 -0.5886  0.2674 -0.0499
  139SAPE   C2115108   1.703   2.262  10.002 -0.2530 -0.8360 -0.3452
  139SAPE   O2215109   1.745   2.167   9.941 -1.0204 -0.7396  1.1138
  139SAPE   C2215110   1.739   2.418   9.974 -0.2712  0.2658  0.3618
  139SAPE   H2R15111   1.773   2.457  10.072 -0.0260  0.4406  0.2077
  139SAPE   H2S15112   1.816   2.424   9.894  0.5793 -0.8476  1.0937
  139SAPE    C315113   1.471   2.160  10.261  0.4757  0.0579  0.0156
  139SAPE    HX15114   1.494   2.234  10.340 -0.9795  2.4304 -1.7118
  139SAPE    HY15115   1.448   2.070  10.323 -2.6275  0.2895 -0.6867
  139SAPE   O3115116   1.350   2.200  10.190 -0.5049  0.0913 -0.5477
  139SAPE   C3115117   1.332   2.328  10.178 -0.1853 -0.5151 -0.6196
  139SAPE   O3215118   1.408   2.419  10.209  0.6620 -1.2751 -0.4544
  139SAPE   C3215119   1.203   2.349  10.096 -0.0673  0.3968 -0.3822
  139SAPE   H2X15120   1.153   2.435  10.146 -1.9536 -1.1116  0.3841
  139SAPE   H2Y15121   1.138   2.258  10.101  2.4235 -1.6015 -2.7812
  139SAPE   C2315122   1.618   2.506   9.944 -0.4020 -0.0567  0.2517
  139SAPE   H3R15123   1.556   2.494  10.034 -0.7955 -0.4118 -0.0656
  139SAPE   H3S15124   1.564   2.469   9.854  0.7205 -1.1560  0.0173
  139SAPE   C2415125   1.657   2.649   9.916  0.3084 -0.3037 -0.1901
  139SAPE   H4R15126   1.558   2.693   9.892  0.3484 -0.5678 -0.8554
  139SAPE   H4S15127   1.724   2.653   9.828 -0.3602  0.5773 -0.6673
  139SAPE   C2515128   1.711   2.714  10.037  0.1081  0.6859  0.6160
  139SAPE   H5R15129   1.688   2.669  10.134 -0.2239 -0.8181 -0.1407
  139SAPE   C2615130   1.791   2.826  10.037 -0.4152  0.2460 -0.4746
  139SAPE   H6R15131   1.816   2.876  10.132 -0.0899  4.4670 -2.6930
  139SAPE   C2715132   1.832   2.907   9.906  0.3637  0.0111 -0.2474
  139SAPE   H7R15133   1.778   2.881   9.812  0.3151 -3.1337  0.6048
  139SAPE   H7S15134   1.941   2.901   9.884  0.1412  1.0359 -1.7784
  139SAPE   C2815135   1.807   3.049   9.934  0.3076  0.5438 -0.0554
  139SAPE   H8R15136   1.710   3.073   9.979 -0.4879 -0.7016 -1.0663
  139SAPE   C2915137   1.894   3.152   9.936 -0.0611 -0.3053 -0.1375
  139SAPE   H9R15138   1.855   3.244   9.982 -0.2348 -2.0035  3.2772
  139SAPE  C21015139   2.046   3.159   9.919  1.0204  0.1127 -0.1087
  139SAPE  H10R15140   2.067   3.245   9.852  1.6389  0.6525  0.7651
  139SAPE  H10S15141   2.082   3.060   9.884  2.7641  0.2326  1.2154
  139SAPE  C21115142   2.113   3.176  10.053 -0.4123  0.3068  0.0160
  139SAPE  H11R15143   2.077   3.113  10.135  0.9301 -0.6659 -0.1209
  139SAPE  C21215144   2.218   3.259  10.073  0.5915 -0.3732  0.1335
  139SAPE  H12R15145   2.265   3.242  10.171 -3.3286 -2.0703  1.8229
  139SAPE  C21315146   2.288   3.357   9.978  0.3055 -0.4281 -0.3582
  139SAPE  H13R15147   2.290   3.327   9.871  1.6211  2.5516 -1.2025
  139SAPE  H13S15148   2.397   3.359   9.998  0.3867 -2.6352 -0.4478
  139SAPE  C21415149   2.225   3.499   9.966 -0.0418 -0.6151  0.8504
  139SAPE  H14R15150   2.135   3.525  10.024 -0.6938 -1.3362  0.1636
  139SAPE  C21515151   2.279   3.594   9.881  0.0172  0.3710  0.2872
  139SAPE  H15R15152   2.226   3.688   9.861 -1.8643 -0.9248 -0.9157
  139SAPE  C21615153   2.398   3.572   9.785  0.1614 -0.2788  0.1344
  139SAPE  H16R15154   2.468   3.494   9.824  2.5751  1.6866 -0.1730
  139SAPE  H16S15155   2.455   3.664   9.763 -0.4531  0.1839  0.4386
  139SAPE  C21715156   2.347   3.522   9.651  0.8993  0.5993  0.3208
  139SAPE  H17R15157   2.292   3.600   9.594 -1.1600 -0.2169  1.1488
  139SAPE  H17S15158   2.281   3.435   9.673  0.9555 -0.5735 -3.7190
  139SAPE  C21815159   2.447   3.466   9.556 -0.3186 -0.0854  0.2937
  139SAPE  H18R15160   2.519   3.392   9.597  0.9553  1.1169  0.2685
  139SAPE  H18S15161   2.514   3.553   9.535 -1.1760 -0.3041 -3.8376
  139SAPE  C21915162   2.391   3.399   9.433 -0.5779 -0.2104 -0.0370
  139SAPE  H19R15163   2.360   3.478   9.362 -2.5938  0.4164  1.4954
  139SAPE  H19S15164   2.305   3.329   9.448 -0.5017 -0.2462  0.2451
  139SAPE  C22015165   2.496   3.321   9.354 -0.0785 -0.6724 -0.8096
  139SAPE  H20R15166   2.525   3.228   9.409  0.5476  0.2611  0.4682
  139SAPE  H20S15167   2.581   3.389   9.335 -1.7094  1.8086  0.5107
  139SAPE  H20T15168   2.452   3.286   9.258 -1.5312  1.0807 -0.8134
  139SAPE   C3315169   1.231   2.374   9.948 -0.8253 -0.1734  0.9796
  139SAPE   H3X15170   1.300   2.461   9.946 -1.3555  0.2490  0.9467
  139SAPE   H3Y15171   1.137   2.408   9.899  1.2553 -0.6515 -3.5726
  139SAPE   C3415172   1.290   2.259   9.863  0.8435  0.1020  0.1708
  139SAPE   H4X15173   1.229   2.166   9.855  0.3654  0.2835  1.5228
  139SAPE   H4Y15174   1.389   2.233   9.906 -0.4889 -1.6995  2.3048
  139SAPE   C3515175   1.325   2.314   9.721  0.5110  0.1884  0.8884
  139SAPE   H5X15176   1.372   2.412   9.746  1.6937 -0.2840  0.5601
  139SAPE   H5Y15177   1.232   2.336   9.663  0.4978 -1.9745  0.0466
  139SAPE   C3615178   1.437   2.239   9.635 -0.2744  0.1832  1.0102
  139SAPE   H6X15179   1.390   2.138   9.624  1.6996 -0.8931  2.1729
  139SAPE   H6Y15180   1.527   2.229   9.699 -0.6336  0.4899  1.5705
  139SAPE   C3715181   1.477   2.303   9.499  0.5051  0.0357  0.5326
  139SAPE   H7X15182   1.515   2.405   9.520  1.1662 -0.5768  2.4456
  139SAPE   H7Y15183   1.384   2.328   9.443 -0.8822 -2.6350  1.5237
  139SAPE   C3815184   1.577   2.210   9.431 -0.5881 -0.9449  0.4373
  139SAPE   H8X15185   1.514   2.133   9.382  1.0390 -1.9592 -0.1048
  139SAPE   H8Y15186   1.650   2.162   9.500  0.9410 -0.3790 -0.7540
  139SAPE   C3915187   1.655   2.283   9.317 -0.0204 -0.1571 -0.0232
  139SAPE   H9X15188   1.753   2.234   9.301  0.1206 -0.6942  2.2643
  139SAPE   H9Y15189   1.684   2.388   9.343 -2.2878  0.4936  0.0175
  139SAPE  C31015190   1.572   2.299   9.183  0.7014  1.1995 -0.7437
  139SAPE  H10X15191   1.484   2.365   9.202  0.1496  0.0283  0.9160
  139SAPE  H10Y15192   1.532   2.198   9.162  0.3589  1.8870 -3.6295
  139SAPE  C31115193   1.646   2.351   9.061 -0.2137 -0.4488  0.4987
  139SAPE  H11X15194   1.732   2.285   9.035  0.1329  1.1893 -2.7626
  139SAPE  H11Y15195   1.701   2.446   9.075 -0.2086  0.0156 -2.4555
  139SAPE  C31215196   1.566   2.362   8.927  0.4706  0.3540 -0.2067
  139SAPE  H12X15197   1.486   2.437   8.943  1.4930  1.2665  0.6984
  139SAPE  H12Y15198   1.527   2.261   8.901 -0.7054  1.3629 -2.5211
  139SAPE  C31315199   1.664   2.411   8.821  0.0559  0.2302 -0.1178
  139SAPE  H13X15200   1.746   2.336   8.811 -0.2505 -0.2106  0.6514
  139SAPE  H13Y15201   1.706   2.509   8.850  1.5215 -0.6513  0.8405
  139SAPE  C31415202   1.614   2.417   8.676  0.1928  0.5851  0.7996
  139SAPE  H14X15203   1.693   2.463   8.614  0.3494 -0.8233 -0.0582
  139SAPE  H14Y15204   1.525   2.483   8.669 -1.5089 -1.7791 -0.5056
  139SAPE  C31515205   1.582   2.277   8.626 -0.2833  0.1944 -0.0822
  139SAPE  H15X15206   1.490   2.240   8.676 -0.9359  0.4771 -1.0718
  139SAPE  H15Y15207   1.648   2.206   8.680 -0.8105  1.6597  2.5898
  139SAPE  C31615208   1.589   2.254   8.476  0.4098 -0.5506  0.2157
  139SAPE  H16X15209   1.538   2.334   8.419  2.3984  1.5508  1.3313
  139SAPE  H16Y15210   1.697   2.257   8.452  0.0358 -0.2491 -1.5073
  139SAPE  C31715211   1.534   2.121   8.432  0.0916  0.5610 -0.1723
  139SAPE  H17X15212   1.424   2.120   8.448 -0.1395  1.5966 -1.6160
  139SAPE  H17Y15213   1.575   2.041   8.497 -0.5719  0.1750 -0.2223
  139SAPE  C31815214   1.580   2.088   8.290  0.3672  0.6705 -0.0226
  139SAPE  H18X15215   1.543   1.989   8.257  0.2754 -0.2251  2.6452
  139SAPE  H18Y15216   1.690   2.075   8.293  0.2757 -0.0319  0.4590
  139SAPE  H18Z15217   1.543   2.168   8.222 -0.0198  3.0301  2.8685
  140SAPE     N15218   4.229   6.552  10.970 -0.2883  0.0254 -0.0496
  140SAPE   HN115219   4.319   6.526  11.014 -0.0151 -1.0424 -1.2383
  140SAPE   HN215220   4.236   6.568  10.867 -0.2674 -1.1503 -0.2306
  140SAPE   HN315221   4.204   6.649  11.000  2.5464  0.4384  1.1554
  140SAPE   C1215222   4.113   6.461  11.006  0.3244  0.0184  0.5568
  140SAPE  H12A15223   4.026   6.500  10.950  0.6067 -0.5975 -0.3273
  140SAPE  H12B15224   4.102   6.447  11.116 -3.3143 -0.0386  0.2338
  140SAPE   C1115225   4.150   6.318  10.952  0.9775  0.1457  0.0874
  140SAPE  H11A15226   4.178   6.311  10.845 -3.0729 -0.2586 -1.0306
  140SAPE  H11B15227   4.060   6.252  10.948  0.6332  0.6726 -1.2540
  140SAPE     P15228   4.232   6.149  11.130 -0.1079  0.4725  0.3716
  140SAPE   O1315229   4.355   6.114  11.204  0.0990  0.2535  0.6739
  140SAPE   O1415230   4.113   6.193  11.210  0.0443 -0.4645  0.1822
  140SAPE   O1215231   4.258   6.264  11.025  0.1147  0.6520  0.5238
  140SAPE   O1115232   4.188   6.032  11.029  0.0651  0.0489  0.0456
  140SAPE    C115233   4.271   5.955  10.944 -0.1431  0.0956  0.0055
  140SAPE    HA15234   4.377   5.968  10.976 -0.9531  3.7470  1.4541
  140SAPE    HB15235   4.257   5.852  10.984 -0.5781  0.8363  1.8351
  140SAPE    C215236   4.245   5.965  10.790  0.7086  0.2662 -1.0423
  140SAPE    HS15237   4.310   5.889  10.742 -1.9555 -2.2651 -0.8127
  140SAPE   O2115238   4.288   6.100  10.736  0.0013 -0.4347  0.0079
  140SAPE   C2115239   4.414   6.121  10.742 -0.3421  0.7800 -0.3511
  140SAPE   O2215240   4.501   6.047  10.783 -0.3939  0.6098 -0.2935
  140SAPE   C2215241   4.446   6.261  10.681 -0.8146 -0.1840 -0.4784
  140SAPE   H2R15242   4.414   6.338  10.755  1.0760  0.3396 -0.1777
  140SAPE   H2S15243   4.556   6.270  10.667 -0.9191 -0.1753 -1.3009
  140SAPE    C315244   4.100   5.928  10.750  0.2425 -0.3118  0.4510
  140SAPE    HX15245   4.038   5.998  10.809 -0.2886 -2.1307  2.1108
  140SAPE    HY15246   4.077   5.828  10.792 -0.6044 -0.1101  0.4701
  140SAPE   O3115247   4.073   5.928  10.606 -0.6548  0.0418  0.1137
  140SAPE   C3115248   4.033   6.047  10.555 -0.1059  0.3085 -0.5347
  140SAPE   O3215249   4.036   6.156  10.611 -0.9822  0.1158  0.8688
  140SAPE   C3215250   4.005   6.037  10.408  0.4479  0.6055  0.2541
  140SAPE   H2X15251   3.910   5.982  10.394  0.3522  0.8041  0.1238
  140SAPE   H2Y15252   4.075   5.966  10.359  0.6933  0.0983  1.3373
  140SAPE   C2315253   4.372   6.286  10.546  0.5783  0.6048  0.6103
  140SAPE   H3R15254   4.378   6.396  10.536  1.2500  0.4665 -0.4925
  140SAPE   H3S15255   4.263   6.263  10.541  0.7008  0.5976 -2.7324
  140SAPE   C2415256   4.434   6.238  10.412 -0.7357 -0.3271 -0.0424
  140SAPE   H4R15257   4.540   6.225  10.443 -0.6121 -1.3436 -0.8844
  140SAPE   H4S15258   4.428   6.305  10.324  0.1266  0.7018  0.6677
  140SAPE   C2515259   4.391   6.097  10.382 -0.4130  0.5239 -0.7851
  140SAPE   H5R15260   4.349   6.037  10.465  0.5460  0.8496 -0.0556
  140SAPE   C2615261   4.381   6.039  10.259 -0.2232 -0.4071  0.2714
  140SAPE   H6R15262   4.353   5.935  10.237  1.6620 -0.5479 -1.6039
  140SAPE   C2715263   4.406   6.113  10.130 -0.8469 -0.1019 -0.5667
  140SAPE   H7R15264   4.434   6.041  10.051 -0.7294  0.9662 -1.5203
  140SAPE   H7S15265   4.502   6.170  10.135 -1.1130  0.3465 -0.5022
  140SAPE   C2815266   4.302   6.204  10.076 -0.0796  0.6155  0.0908
  140SAPE   H8R15267   4.227   6.227  10.153 -1.5898 -2.0276 -0.5300
  140SAPE   C2915268   4.289   6.242   9.951  0.1696  0.3380 -0.6596
  140SAPE   H9R15269   4.200   6.305   9.931 -0.8060 -0.7610  0.1243
  140SAPE  C21015270   4.384   6.222   9.836  0.3858 -0.0619 -0.2508
  140SAPE  H10R15271   4.333   6.255   9.742 -1.3791  1.4925  1.2032
  140SAPE  H10S15272   4.403   6.113   9.831  1.3534  0.1326 -0.9964
  140SAPE  C21115273   4.517   6.285   9.855  0.0122  0.1852  0.6755
  140SAPE  H11R15274   4.547   6.298   9.960 -0.5578 -2.5317  1.2333
  140SAPE  C21215275   4.604   6.323   9.758  0.8893 -0.3014  1.2715
  140SAPE  H12R15276   4.690   6.386   9.785  1.5385 -1.2885  1.5169
  140SAPE  C21315277   4.581   6.304   9.604  0.5563 -0.2715  0.1258
  140SAPE  H13R15278   4.520   6.393   9.578 -0.6408 -1.0406  0.2620
  140SAPE  H13S15279   4.518   6.214   9.587 -0.1832 -0.2010  2.3480
  140SAPE  C21415280   4.704   6.310   9.521  0.3263 -0.3478  0.0228
  140SAPE  H14R15281   4.769   6.229   9.556 -0.6420 -1.6407 -1.1042
  140SAPE  C21515282   4.751   6.406   9.434  1.0384 -0.6506  0.3743
  140SAPE  H15R15283   4.851   6.397   9.388 -1.5696 -0.4769 -5.7064
  140SAPE  C21615284   4.681   6.530   9.381  0.3591  0.0406  0.4654
  140SAPE  H16R15285   4.756   6.612   9.369 -0.2663  0.8548  2.0461
  140SAPE  H16S15286   4.611   6.555   9.463 -1.2100 -0.6204 -0.6539
  140SAPE  C21715287   4.605   6.510   9.250  0.1306  0.1572  0.4799
  140SAPE  H17R15288   4.664   6.450   9.177 -0.7954  0.0673 -0.2113
  140SAPE  H17S15289   4.582   6.607   9.201  2.8698  1.0073  0.7901
  140SAPE  C21815290   4.472   6.432   9.280  0.0190  0.0439  0.0166
  140SAPE  H18R15291   4.422   6.486   9.364 -1.1535  0.6975 -1.0827
  140SAPE  H18S15292   4.492   6.331   9.322 -0.3354 -0.0287  0.0138
  140SAPE  C21915293   4.380   6.411   9.167  0.4214  0.2022 -0.8086
  140SAPE  H19R15294   4.332   6.508   9.143  0.7974 -0.2439 -3.5743
  140SAPE  H19S15295   4.307   6.331   9.193 -0.1727  0.3440 -1.9948
  140SAPE  C22015296   4.437   6.363   9.037 -0.2860 -0.0069 -0.0211
  140SAPE  H20R15297   4.367   6.368   8.951  1.0924  0.2160 -1.1322
  140SAPE  H20S15298   4.461   6.254   9.035  2.8992  0.6594 -0.2936
  140SAPE  H20T15299   4.526   6.423   9.012  0.8003 -1.4698  0.3026
  140SAPE   C3315300   4.007   6.176  10.333 -0.0013 -0.4216  0.1790
  140SAPE   H3X15301   4.103   6.231  10.333 -0.5660  0.5860 -0.5059
  140SAPE   H3Y15302   3.927   6.233  10.384  0.8049 -0.5018  1.5608
  140SAPE   C3415303   3.954   6.163  10.185  0.0002  1.0896  0.3116
  140SAPE   H4X15304   3.868   6.094  10.194 -0.1607  1.1410 -0.7235
  140SAPE   H4Y15305   4.031   6.125  10.114 -0.1058  1.2241  0.1238
  140SAPE   C3515306   3.919   6.291  10.109 -0.2735  0.7346 -0.1401
  140SAPE   H5X15307   3.995   6.366  10.141 -0.9253  0.6082  1.7679
  140SAPE   H5Y15308   3.824   6.324  10.156 -0.4774  3.0561 -2.1171
  140SAPE   C3615309   3.909   6.270   9.952  0.4780 -0.0464  0.6935
  140SAPE   H6X15310   3.999   6.218   9.910  1.9009  2.9254 -0.0674
  140SAPE   H6Y15311   3.925   6.372   9.912  2.5949 -0.6223 -0.0172
  140SAPE   C3715312   3.773   6.215   9.896 -0.7550 -0.9618  0.1620
  140SAPE   H7X15313   3.702   6.298   9.911 -0.6616 -0.8420 -0.0646
  140SAPE   H7Y15314   3.756   6.121   9.954 -0.1264 -0.1391  1.7073
  140SAPE   C3815315   3.787   6.186   9.753 -0.6552 -0.3054  0.4890
  140SAPE   H8X15316   3.847   6.095   9.732 -0.9452 -0.5392  0.6691
  140SAPE   H8Y15317   3.842   6.273   9.711 -0.7699 -0.0101  0.9464
  140SAPE   C3915318   3.652   6.153   9.683 -0.3575 -0.1008 -0.6542
  140SAPE   H9X15319   3.577   6.234   9.694  0.8411  1.2236 -2.1058
  140SAPE   H9Y15320   3.612   6.058   9.725  0.3354  0.9218  2.4447
  140SAPE  C31015321   3.669   6.108   9.540 -0.5299  0.4910 -0.2472
  140SAPE  H10X15322   3.747   6.030   9.531 -0.5332  0.4289  0.2612
  140SAPE  H10Y15323   3.713   6.191   9.480  0.9308  0.8316  1.2535
  140SAPE  C31115324   3.537   6.065   9.481 -0.6051  0.3922 -0.4211
  140SAPE  H11X15325   3.462   6.146   9.470 -0.8623  0.2193  0.0849
  140SAPE  H11Y15326   3.491   5.993   9.551 -1.4448  0.1784 -1.1916
  140SAPE  C31215327   3.555   6.003   9.342 -0.2995 -0.2949  0.2176
  140SAPE  H12X15328   3.455   5.964   9.314 -1.4035  3.0829 -0.8311
  140SAPE  H12Y15329   3.629   5.921   9.352  0.8789  0.6250 -0.6781
  140SAPE  C31315330   3.616   6.092   9.237 -0.5381 -0.7823 -0.5254
  140SAPE  H13X15331   3.726   6.102   9.251 -0.2451  0.2793 -3.1374
  140SAPE  H13Y15332   3.583   6.197   9.250  2.6933  0.1436  0.7759
  140SAPE  C31415333   3.593   6.032   9.093 -0.1994  0.1284 -0.4355
  140SAPE  H14X15334   3.482   6.024   9.082 -0.5478 -1.2601  3.2152
  140SAPE  H14Y15335   3.643   5.933   9.087  1.0583  0.8578 -2.3838
  140SAPE  C31515336   3.646   6.138   8.986 -0.5378 -0.0416 -0.1176
  140SAPE  H15X15337   3.750   6.158   9.019  0.0712 -1.4086 -1.1705
  140SAPE  H15Y15338   3.583   6.229   8.986  1.2703  1.2275  0.4168
  140SAPE  C31615339   3.644   6.084   8.842 -0.8113  0.2040 -0.0953
  140SAPE  H16X15340   3.540   6.061   8.814 -1.2079  2.2316 -0.3831
  140SAPE  H16Y15341   3.690   5.983   8.836 -1.2388  0.0223 -0.3511
  140SAPE  C31715342   3.704   6.184   8.735  0.2614 -0.9313  0.4810
  140SAPE  H17X15343   3.754   6.122   8.658  1.1488  0.9610 -0.4989
  140SAPE  H17Y15344   3.772   6.257   8.785  0.2380 -0.7788  0.2896
  140SAPE  C31815345   3.606   6.270   8.655  0.1003  0.0951  0.2480
  140SAPE  H18X15346   3.659   6.322   8.573  1.0231  0.4498  1.0666
  140SAPE  H18Y15347   3.570   6.352   8.721 -0.0146 -0.2232  0.5833
  140SAPE  H18Z15348   3.520   6.212   8.614  0.2046 -1.1835  1.7560
  141SAPE     N15349   4.636   6.153  11.198 -0.3111 -0.0806 -0.1738
  141SAPE   HN115350   4.532   6.148  11.200 -0.3401  0.2296 -0.8109
  141SAPE   HN215351   4.674   6.067  11.241 -2.0582 -0.3458  0.9209
  141SAPE   HN315352   4.664   6.236  11.254  1.5663 -0.9132  0.1512
  141SAPE   C1215353   4.676   6.160  11.053  0.2873 -0.3293  0.1861
  141SAPE  H12A15354   4.625   6.075  11.002 -1.6076  1.7880 -1.5545
  141SAPE  H12B15355   4.786   6.150  11.044  0.3546 -0.2659  0.9368
  141SAPE   C1115356   4.628   6.297  11.000 -0.2487 -0.9967  0.0334
  141SAPE  H11A15357   4.519   6.304  11.021  0.2022  0.4991  1.9919
  141SAPE  H11B15358   4.646   6.285  10.891 -1.9443 -0.8557 -0.2820
  141SAPE     P15359   4.646   6.549  10.989  0.0078  0.2517 -0.3537
  141SAPE   O1315360   4.503   6.555  11.018 -0.0925 -0.0026  0.2553
  141SAPE   O1415361   4.727   6.663  11.039  0.0307 -0.7652  0.2172
  141SAPE   O1215362   4.698   6.412  11.055 -0.0609  0.0219 -0.6308
  141SAPE   O1115363   4.669   6.529  10.833  0.0822  0.0424 -0.6046
  141SAPE    C115364   4.800   6.514  10.784 -1.1052  0.3871 -0.2292
  141SAPE    HA15365   4.865   6.589  10.834  1.2863 -1.3778 -0.6076
  141SAPE    HB15366   4.845   6.413  10.796 -1.3590  0.4196  1.0706
  141SAPE    C215367   4.806   6.570  10.635  0.3118 -0.2938  0.4200
  141SAPE    HS15368   4.911   6.569  10.598 -0.2176  2.7360 -1.3811
  141SAPE   O2115369   4.757   6.700  10.633 -0.1464  0.7396 -0.0215
  141SAPE   C2115370   4.800   6.766  10.515  0.3694 -0.0089  0.5482
  141SAPE   O2215371   4.889   6.727  10.441 -0.2689  0.0495 -0.3836
  141SAPE   C2215372   4.734   6.904  10.517 -0.6443  0.0403  0.4815
  141SAPE   H2R15373   4.624   6.890  10.511 -0.6390  0.2082 -0.0461
  141SAPE   H2S15374   4.747   6.941  10.621  2.8824  0.9289 -0.2195
  141SAPE    C315375   4.714   6.475  10.547  0.5574 -0.8493 -0.6651
  141SAPE    HX15376   4.616   6.478  10.600  1.4994  2.2592  1.0346
  141SAPE    HY15377   4.745   6.369  10.562  2.4760 -0.1570  0.3203
  141SAPE   O3115378   4.700   6.511  10.406  0.0946 -0.0084  0.1461
  141SAPE   C3115379   4.805   6.472  10.330 -0.1248  0.4283  0.3428
  141SAPE   O3215380   4.905   6.425  10.381  0.5058 -0.3178  0.0233
  141SAPE   C3215381   4.773   6.496  10.183 -0.1761  0.1466 -0.6091
  141SAPE   H2X15382   4.680   6.557  10.177 -0.2671  0.0559 -0.1028
  141SAPE   H2Y15383   4.749   6.395  10.144  2.0055  0.6833 -3.5622
  141SAPE   C2315384   4.782   7.016  10.430  0.0173  0.0628  0.3410
  141SAPE   H3R15385   4.889   7.001  10.405  0.4955  0.5988  2.0195
  141SAPE   H3S15386   4.771   7.116  10.477 -1.2752  1.0103 -1.8825
  141SAPE   C2415387   4.700   7.031  10.296  0.0996  0.0378 -0.5188
  141SAPE   H4R15388   4.708   7.138  10.268  1.4861  0.1203  0.1596
  141SAPE   H4S15389   4.597   7.023  10.335  1.1234  0.5182  2.4669
  141SAPE   C2515390   4.733   6.947  10.177  0.3202  0.1448  0.3060
  141SAPE   H5R15391   4.774   6.848  10.203 -0.1802 -1.1585 -3.5907
  141SAPE   C2615392   4.715   6.978  10.043  0.4767  0.6334 -1.1305
  141SAPE   H6R15393   4.747   6.906   9.967  1.3599 -1.1778  0.9304
  141SAPE   C2715394   4.656   7.105   9.999  0.6174  0.2976  0.1652
  141SAPE   H7R15395   4.674   7.125   9.891  0.2171 -0.8853 -0.1346
  141SAPE   H7S15396   4.719   7.181  10.049  1.6115  0.5736 -1.4787
  141SAPE   C2815397   4.508   7.119  10.031  0.1368  0.2181  0.4050
  141SAPE   H8R15398   4.477   7.175  10.121 -0.8660 -0.7651  0.6899
  141SAPE   C2915399   4.403   7.064   9.967 -0.2225 -0.6651  0.2840
  141SAPE   H9R15400   4.301   7.098   9.987 -0.4974 -0.9049 -0.6958
  141SAPE  C21015401   4.426   6.982   9.845  0.7956  0.0382  0.1885
  141SAPE  H10R15402   4.367   6.888   9.845 -0.7385  0.9666 -1.6540
  141SAPE  H10S15403   4.533   6.958   9.828  0.8682 -0.6840  1.5912
  141SAPE  C21115404   4.379   7.062   9.727 -0.3367 -0.6777  0.4418
  141SAPE  H11R15405   4.333   7.160   9.746  1.4835  0.6413 -1.5803
  141SAPE  C21215406   4.391   7.022   9.602 -0.3242  0.3448 -0.3236
  141SAPE  H12R15407   4.351   7.090   9.526  0.6924  0.0853 -1.0954
  141SAPE  C21315408   4.449   6.892   9.560  0.2666  0.6165  1.1404
  141SAPE  H13R15409   4.361   6.827   9.542  0.8682  0.3388 -0.8402
  141SAPE  H13S15410   4.519   6.846   9.632  2.1001 -0.7462 -1.4563
  141SAPE  C21415411   4.534   6.918   9.440  0.0521  0.4830 -0.3029
  141SAPE  H14R15412   4.641   6.927   9.465  0.3163 -0.2075 -1.1693
  141SAPE  C21515413   4.478   6.928   9.316 -0.7783  0.4870  0.2157
  141SAPE  H15R15414   4.538   6.939   9.224 -1.4084 -2.2536 -0.5604
  141SAPE  C21615415   4.329   6.937   9.283 -0.2766 -0.1630 -0.1401
  141SAPE  H16R15416   4.323   7.015   9.204 -2.1042  0.4006  0.5199
  141SAPE  H16S15417   4.258   6.960   9.365  0.2925 -0.1531  0.3576
  141SAPE  C21715418   4.278   6.813   9.212 -0.4190 -0.3735  0.5052
  141SAPE  H17R15419   4.168   6.804   9.217 -0.4665 -0.0270  0.1150
  141SAPE  H17S15420   4.320   6.718   9.253  0.3067 -0.6125 -0.7573
  141SAPE  C21815421   4.325   6.805   9.062  0.6108  0.0340 -0.3927
  141SAPE  H18R15422   4.358   6.700   9.051 -2.2677 -1.0822  1.0756
  141SAPE  H18S15423   4.406   6.879   9.043  1.5777 -0.6115  1.0960
  141SAPE  C21915424   4.204   6.810   8.961  0.2373  0.1159  0.6016
  141SAPE  H19R15425   4.145   6.721   8.991  2.0183 -1.7766 -1.3882
  141SAPE  H19S15426   4.244   6.802   8.858  3.0966  1.7716  1.5236
  141SAPE  C22015427   4.121   6.937   8.964  0.0269  0.2664  0.2772
  141SAPE  H20R15428   4.021   6.911   8.923  0.3786  1.0457 -1.1189
  141SAPE  H20S15429   4.157   7.022   8.902 -0.5405  0.2090 -0.1414
  141SAPE  H20T15430   4.102   6.979   9.065 -0.9752  1.3255 -0.3321
  141SAPE   C3315431   4.886   6.555  10.104 -0.1634  0.9010 -0.3725
  141SAPE   H3X15432   4.978   6.493  10.112 -0.9841 -0.2608  0.2557
  141SAPE   H3Y15433   4.904   6.659  10.137  0.1785  0.7120  0.0473
  141SAPE   C3415434   4.838   6.568   9.958 -0.2579  0.1175 -0.0309
  141SAPE   H4X15435   4.735   6.608   9.967 -0.3530 -0.1579  0.1129
  141SAPE   H4Y15436   4.843   6.467   9.913 -2.9008 -0.2156  0.3598
  141SAPE   C3515437   4.912   6.669   9.875 -0.2336 -0.5906 -0.9116
  141SAPE   H5X15438   5.020   6.646   9.862 -0.3362 -1.0824 -0.8814
  141SAPE   H5Y15439   4.904   6.765   9.931 -0.0114 -1.2393  0.2556
  141SAPE   C3615440   4.829   6.698   9.743  0.3921  0.1626  0.6065
  141SAPE   H6X15441   4.727   6.741   9.755  0.3027  0.7757 -2.1325
  141SAPE   H6Y15442   4.807   6.598   9.701 -3.3741  1.5409 -0.9014
  141SAPE   C3715443   4.910   6.789   9.649  0.3901  0.2828  0.1687
  141SAPE   H7X15444   4.928   6.887   9.697 -2.2265  0.6357  0.5391
  141SAPE   H7Y15445   4.849   6.813   9.559  1.2003 -2.7748 -1.2715
  141SAPE   C3815446   5.043   6.730   9.595  0.0593 -0.4551  0.5145
  141SAPE   H8X15447   5.108   6.698   9.679 -0.7372 -1.2619  0.8325
  141SAPE   H8Y15448   5.091   6.812   9.537  0.7254 -0.6837  0.7323
  141SAPE   C3915449   5.026   6.613   9.502  0.6925 -0.3453  0.0965
  141SAPE   H9X15450   4.944   6.643   9.434  0.9120  2.2533  0.9294
  141SAPE   H9Y15451   4.992   6.523   9.558 -0.4324  0.4166  0.6677
  141SAPE  C31015452   5.154   6.604   9.419  1.0364 -0.2973 -0.3721
  141SAPE  H10X15453   5.235   6.609   9.494  1.2587  3.7210 -0.7712
  141SAPE  H10Y15454   5.158   6.692   9.351  0.2293  0.8319  1.0055
  141SAPE  C31115455   5.154   6.483   9.323 -0.1697 -0.2081  0.4492
  141SAPE  H11X15456   5.060   6.492   9.265 -0.7365  1.3920  1.5824
  141SAPE  H11Y15457   5.149   6.387   9.379 -1.4391 -0.8079 -0.6596
  141SAPE  C31215458   5.258   6.489   9.215 -0.8307 -0.1782 -0.5153
  141SAPE  H12X15459   5.349   6.437   9.252 -0.4115  0.4216 -0.6882
  141SAPE  H12Y15460   5.293   6.589   9.180 -1.3254  0.3394  0.4542
  141SAPE  C31315461   5.213   6.403   9.084 -0.2655 -0.1618  0.2002
  141SAPE  H13X15462   5.142   6.469   9.030  0.4410 -0.0780 -0.6470
  141SAPE  H13Y15463   5.157   6.316   9.124  1.1986 -0.5830  1.3775
  141SAPE  C31415464   5.328   6.364   8.989  0.3231  0.2177 -0.4051
  141SAPE  H14X15465   5.379   6.274   9.031 -0.8163 -2.1280 -3.8111
  141SAPE  H14Y15466   5.391   6.455   8.993 -0.7365  0.9596 -0.4229
  141SAPE  C31515467   5.281   6.328   8.852 -0.0991 -0.0532 -0.0779
  141SAPE  H15X15468   5.376   6.322   8.795  0.2389  1.0054  0.3684
  141SAPE  H15Y15469   5.225   6.413   8.808 -2.6250 -1.7112 -0.1920
  141SAPE  C31615470   5.187   6.205   8.837 -0.1341 -1.1025  0.4898
  141SAPE  H16X15471   5.092   6.216   8.893 -1.7678 -0.0629 -2.3477
  141SAPE  H16Y15472   5.246   6.119   8.875  2.0317  0.2204  0.2209
  141SAPE  C31715473   5.166   6.182   8.686 -0.1842 -0.1343 -0.1743
  141SAPE  H17X15474   5.161   6.284   8.643 -1.7225 -1.5635 -3.5376
  141SAPE  H17Y15475   5.069   6.137   8.656  0.2552  0.0890 -1.9681
  141SAPE  C31815476   5.274   6.105   8.615 -0.0676 -0.0821  0.1533
  141SAPE  H18X15477   5.370   6.159   8.631  0.3228 -0.7329  0.0386
  141SAPE  H18Y15478   5.250   6.099   8.507 -0.9930  0.1840  0.3465
  141SAPE  H18Z15479   5.306   6.002   8.643  1.1791  0.1394 -0.3948
  142SAPE     N15480   5.770   5.925  11.006  0.0241 -0.2095 -0.5411
  142SAPE   HN115481   5.700   6.002  11.005  0.4374  0.1790 -0.0266
  142SAPE   HN215482   5.862   5.961  11.038 -2.0197  2.9938  1.9804
  142SAPE   HN315483   5.782   5.888  10.910 -0.8334 -0.5528 -0.5135
  142SAPE   C1215484   5.709   5.809  11.081  0.4085  0.0011  0.2559
  142SAPE  H12A15485   5.718   5.827  11.190 -2.1151 -2.7950  1.0066
  142SAPE  H12B15486   5.761   5.713  11.057 -1.3699 -0.5083 -1.7027
  142SAPE   C1115487   5.556   5.778  11.040 -0.4627  0.8826 -0.2361
  142SAPE  H11A15488   5.542   5.676  11.080  1.2367 -0.2779 -2.5043
  142SAPE  H11B15489   5.537   5.762  10.932 -3.4538  2.0309  0.0786
  142SAPE     P15490   5.314   5.887  11.094 -0.0599 -0.6843  0.2214
  142SAPE   O1315491   5.264   5.756  11.127  0.1233  0.2710  0.6925
  142SAPE   O1415492   5.264   5.997  11.181  0.5214 -0.0179 -0.3334
  142SAPE   O1215493   5.470   5.879  11.093 -1.1567  1.0210  0.1939
  142SAPE   O1115494   5.288   5.918  10.946  0.0590 -0.3597  0.6562
  142SAPE    C115495   5.310   6.055  10.904 -0.1374 -0.3855 -0.3954
  142SAPE    HA15496   5.225   6.121  10.933  0.2583 -0.5582  1.1887
  142SAPE    HB15497   5.404   6.091  10.951  0.3205 -3.0282  0.7531
  142SAPE    C215498   5.306   6.076  10.750 -0.1194 -0.0245 -0.8348
  142SAPE    HS15499   5.303   6.182  10.717  2.0133  0.2566 -0.2055
  142SAPE   O2115500   5.198   6.007  10.694  1.1069  0.1084 -0.0104
  142SAPE   C2115501   5.082   6.070  10.702  0.2895 -0.4181 -0.0910
  142SAPE   O2215502   5.056   6.173  10.767 -0.0874 -0.1983  0.0874
  142SAPE   C2215503   4.974   5.991  10.637 -0.2496  0.4254  0.3630
  142SAPE   H2R15504   5.031   5.927  10.567 -0.6030  0.4747  0.0343
  142SAPE   H2S15505   4.933   5.923  10.715 -0.9301  1.9644  1.3636
  142SAPE    C315506   5.436   6.019  10.689 -0.1262 -0.0887  0.0075
  142SAPE    HX15507   5.457   5.921  10.736  0.6521 -0.5349 -1.2524
  142SAPE    HY15508   5.522   6.082  10.720  0.1367 -0.1182 -0.6739
  142SAPE   O3115509   5.433   5.993  10.551 -0.9694 -0.2386  0.0779
  142SAPE   C3115510   5.553   5.973  10.492 -0.5051 -0.4108 -0.4942
  142SAPE   O3215511   5.661   5.966  10.554  0.2279 -0.7040 -0.5517
  142SAPE   C3215512   5.547   5.945  10.343  0.0649  0.6844  0.1148
  142SAPE   H2X15513   5.604   6.027  10.296 -0.5354  1.5023  0.8173
  142SAPE   H2Y15514   5.446   5.957  10.297 -0.0943  0.0197  0.2843
  142SAPE   C2315515   4.866   6.076  10.563  0.5244 -0.4062 -0.0218
  142SAPE   H3R15516   4.909   6.160  10.504 -0.8632  0.8135  0.6739
  142SAPE   H3S15517   4.808   6.124  10.645 -0.2971 -2.7710  0.8113
  142SAPE   C2415518   4.766   5.989  10.487 -0.7379 -0.2942 -0.0012
  142SAPE   H4R15519   4.679   6.049  10.450 -1.4448  1.1567  3.8166
  142SAPE   H4S15520   4.725   5.903  10.543  1.1028 -1.5397 -0.5347
  142SAPE   C2515521   4.857   5.922  10.377  0.1376 -0.1485 -0.8263
  142SAPE   H5R15522   4.928   5.846  10.413 -0.2063 -0.4555 -0.7992
  142SAPE   C2615523   4.865   5.954  10.246  0.4561 -0.3738  0.0284
  142SAPE   H6R15524   4.942   5.902  10.187 -0.2935 -0.7087 -0.6759
  142SAPE   C2715525   4.783   6.055  10.169  0.4400 -0.3512 -0.7539
  142SAPE   H7R15526   4.711   6.108  10.234  0.2173  0.1347 -1.3946
  142SAPE   H7S15527   4.712   5.995  10.110  0.5647 -0.6643 -0.5900
  142SAPE   C2815528   4.866   6.155  10.095  0.6348  0.1180  0.5608
  142SAPE   H8R15529   4.919   6.229  10.157  2.2243 -0.5258 -0.0032
  142SAPE   C2915530   4.880   6.159   9.959  0.0890  0.0776  0.2671
  142SAPE   H9R15531   4.947   6.237   9.922  1.4469 -0.9806  0.4432
  142SAPE  C21015532   4.820   6.062   9.859 -0.4387  0.0751 -0.0575
  142SAPE  H10R15533   4.793   6.117   9.767  1.3613  1.0972  0.0182
  142SAPE  H10S15534   4.722   6.026   9.898 -0.0956 -0.2602  0.5093
  142SAPE  C21115535   4.921   5.947   9.832  0.2841 -0.3876 -0.8388
  142SAPE  H11R15536   4.952   5.888   9.919  0.5826 -0.8134 -1.2341
  142SAPE  C21215537   4.973   5.926   9.708  0.7045  0.1820 -0.3304
  142SAPE  H12R15538   5.044   5.842   9.702  1.0667  0.4703 -0.1100
  142SAPE  C21315539   4.943   6.005   9.585 -0.9788  0.3951 -0.1769
  142SAPE  H13R15540   5.035   6.016   9.524 -0.9704  0.6469 -0.1208
  142SAPE  H13S15541   4.928   6.112   9.612 -1.4471  0.6213 -1.3130
  142SAPE  C21415542   4.833   5.951   9.491 -0.3218  0.2145  0.2308
  142SAPE  H14R15543   4.782   5.865   9.537  0.5853 -0.4626 -0.0233
  142SAPE  C21515544   4.801   6.000   9.370 -0.0699 -0.4334  0.1597
  142SAPE  H15R15545   4.718   5.953   9.316 -1.2690  1.6067  0.1791
  142SAPE  C21615546   4.882   6.109   9.301  0.1789 -0.2498 -0.5271
  142SAPE  H16R15547   4.986   6.079   9.278  1.0901  0.6372  2.1979
  142SAPE  H16S15548   4.904   6.192   9.373 -1.0052 -0.1510 -0.2613
  142SAPE  C21715549   4.819   6.170   9.173 -0.6202  0.8147 -0.7300
  142SAPE  H17R15550   4.885   6.252   9.136  0.8895 -0.0907 -0.0860
  142SAPE  H17S15551   4.713   6.199   9.189 -0.8505  1.1776 -2.7281
  142SAPE  C21815552   4.819   6.072   9.049 -0.0157  0.3841 -0.8284
  142SAPE  H18R15553   4.774   5.978   9.088  0.5700  0.4336 -0.0266
  142SAPE  H18S15554   4.926   6.047   9.036 -0.4937 -3.1833  1.4880
  142SAPE  C21915555   4.762   6.123   8.919 -0.4187 -0.4399  0.0402
  142SAPE  H19R15556   4.807   6.222   8.895 -2.1225  1.0845  2.9361
  142SAPE  H19S15557   4.653   6.133   8.937  0.1117  2.5998  1.8813
  142SAPE  C22015558   4.794   6.019   8.809  0.1851  0.1214  0.0850
  142SAPE  H20R15559   4.793   5.916   8.852 -0.9100 -0.0619 -0.3661
  142SAPE  H20S15560   4.898   6.016   8.772  0.8078  2.1474  1.5826
  142SAPE  H20T15561   4.726   6.030   8.721 -1.0506  1.3809  1.1750
  142SAPE   C3315562   5.618   5.814  10.306 -0.1741 -0.0286 -0.4367
  142SAPE   H3X15563   5.559   5.729  10.348  0.2432  0.0595  0.3357
  142SAPE   H3Y15564   5.718   5.808  10.353 -0.6178 -0.9020  0.4178
  142SAPE   C3415565   5.641   5.795  10.155  0.3542 -0.9157  0.4543
  142SAPE   H4X15566   5.667   5.691  10.129  0.5781 -0.6566 -0.3532
  142SAPE   H4Y15567   5.722   5.867  10.131 -0.8625  0.0666 -0.7737
  142SAPE   C3515568   5.521   5.827  10.060  0.2160  0.3431  0.0207
  142SAPE   H5X15569   5.527   5.930  10.019  0.2252  0.4768  0.3579
  142SAPE   H5Y15570   5.434   5.807  10.127 -0.1401 -1.3560 -0.9433
  142SAPE   C3615571   5.509   5.724   9.946  0.3284 -0.0756 -0.5663
  142SAPE   H6X15572   5.487   5.626   9.995  0.7057  0.9283  1.7051
  142SAPE   H6Y15573   5.607   5.726   9.894 -0.3836 -2.0579 -2.0702
  142SAPE   C3715574   5.401   5.746   9.837  0.6673 -0.1698 -0.4113
  142SAPE   H7X15575   5.413   5.846   9.792  0.8054 -0.1057 -0.2338
  142SAPE   H7Y15576   5.307   5.721   9.892  1.8188 -1.7321  0.9307
  142SAPE   C3815577   5.413   5.642   9.720 -0.0653 -0.1511  0.1012
  142SAPE   H8X15578   5.435   5.544   9.767 -0.2789 -0.5204 -0.5560
  142SAPE   H8Y15579   5.501   5.662   9.656 -0.8382 -1.6069 -1.4704
  142SAPE   C3915580   5.278   5.627   9.647 -0.2329 -0.2109  0.6598
  142SAPE   H9X15581   5.187   5.641   9.709 -0.7923 -2.5783  0.4094
  142SAPE   H9Y15582   5.269   5.533   9.589 -3.9840  1.4175 -1.6655
  142SAPE  C31015583   5.272   5.734   9.538 -0.1036 -0.0453  0.2161
  142SAPE  H10X15584   5.320   5.821   9.588 -1.0998  0.3173  0.5532
  142SAPE  H10Y15585   5.167   5.753   9.507 -0.4734 -2.5642 -0.1391
  142SAPE  C31115586   5.355   5.704   9.415 -0.1350 -0.2879  0.0681
  142SAPE  H11X15587   5.453   5.667   9.451  1.0741 -0.2470 -2.9905
  142SAPE  H11Y15588   5.370   5.796   9.354  0.5742 -0.6915 -0.3807
  142SAPE  C31215589   5.301   5.592   9.324  0.6718 -0.0672  0.3428
  142SAPE  H12X15590   5.196   5.612   9.293  0.0955 -2.8994  0.3899
  142SAPE  H12Y15591   5.306   5.490   9.367 -2.7888 -0.9244 -1.1389
  142SAPE  C31315592   5.383   5.592   9.187  1.0487  0.1825 -0.4698
  142SAPE  H13X15593   5.407   5.696   9.158  2.0650 -0.0680 -0.5580
  142SAPE  H13Y15594   5.327   5.533   9.110  0.3650  2.5736 -1.8728
  142SAPE  C31415595   5.509   5.521   9.213 -0.2367  0.4000  0.5568
  142SAPE  H14X15596   5.486   5.424   9.262  0.4366  0.1720  0.4319
  142SAPE  H14Y15597   5.572   5.574   9.287 -1.6508  2.2991  0.4380
  142SAPE  C31515598   5.582   5.486   9.082  0.0340  0.5769 -0.7727
  142SAPE  H15X15599   5.514   5.416   9.030  2.0868 -3.4760  1.6675
  142SAPE  H15Y15600   5.677   5.431   9.100  0.0880  0.9016 -0.0101
  142SAPE  C31615601   5.593   5.599   8.980 -0.2728 -0.0157 -0.2581
  142SAPE  H16X15602   5.648   5.687   9.018  0.3403  0.0514 -1.2837
  142SAPE  H16Y15603   5.490   5.628   8.950 -0.6885 -1.6366 -0.4386
  142SAPE  C31715604   5.660   5.553   8.852 -0.1849 -0.5360 -0.1449
  142SAPE  H17X15605   5.604   5.468   8.806  1.2296 -1.3446 -0.4116
  142SAPE  H17Y15606   5.764   5.520   8.873 -0.9522 -3.3292 -0.4678
  142SAPE  C31815607   5.661   5.677   8.754  0.0239  0.2133 -0.7312
  142SAPE  H18X15608   5.714   5.764   8.799  0.8097  0.0601 -1.3335
  142SAPE  H18Y15609   5.560   5.705   8.718 -0.7718 -0.3375  1.0309
  142SAPE  H18Z15610   5.730   5.658   8.669  0.8543 -1.1759  0.2337
  143SAPE     N15611   0.765   6.117  10.864 -0.2608  0.6508 -0.4043
  143SAPE   HN115612   0.852   6.099  10.918  1.5622  2.6889 -2.4966
  143SAPE   HN215613   0.794   6.191  10.797 -1.4955  1.5632  0.0337
  143SAPE   HN315614   0.689   6.147  10.928 -0.1149 -0.9062  0.5161
  143SAPE   C1215615   0.713   5.995  10.800 -0.8237  0.7145  0.1482
  143SAPE  H12A15616   0.780   5.968  10.716 -0.6212  2.4321 -0.2572
  143SAPE  H12B15617   0.610   6.010  10.761 -0.4459 -0.0584 -1.1738
  143SAPE   C1115618   0.728   5.881  10.908  1.0724 -0.8940 -0.0525
  143SAPE  H11A15619   0.676   5.788  10.877  1.0578 -1.0853  0.5459
  143SAPE  H11B15620   0.692   5.906  11.010  0.5702 -0.1156 -0.4167
  143SAPE     P15621   0.930   5.720  10.982  0.6419 -0.3340 -0.1691
  143SAPE   O1315622   1.078   5.739  10.978 -0.0573  0.4814  0.4431
  143SAPE   O1415623   0.866   5.701  11.114 -0.1361 -0.0539 -0.0897
  143SAPE   O1215624   0.865   5.848  10.911 -0.1293  0.3659 -0.4096
  143SAPE   O1115625   0.885   5.609  10.890  0.2891  0.0214  0.1758
  143SAPE    C115626   0.934   5.597  10.756  0.1005  0.1045  0.0969
  143SAPE    HA15627   0.950   5.698  10.711 -0.9504 -0.6325 -2.0313
  143SAPE    HB15628   1.031   5.543  10.748  0.1393 -0.0325  1.4543
  143SAPE    C215629   0.831   5.528  10.660  0.4782  0.5031 -0.2732
  143SAPE    HS15630   0.854   5.552  10.554  0.4092  0.0771 -0.3846
  143SAPE   O2115631   0.691   5.556  10.693 -0.8701  0.4544  0.2344
  143SAPE   C2115632   0.662   5.673  10.647  0.3559  0.6749 -0.3618
  143SAPE   O2215633   0.750   5.749  10.598 -0.2950 -0.2571  0.1152
  143SAPE   C2215634   0.515   5.707  10.654 -0.5333 -0.0637  0.0087
  143SAPE   H2R15635   0.474   5.625  10.717  1.7793 -0.8780  0.5248
  143SAPE   H2S15636   0.504   5.810  10.692 -2.6674 -0.5571  0.8035
  143SAPE    C315637   0.853   5.365  10.655 -0.1571  0.3098  0.6568
  143SAPE    HX15638   0.846   5.318  10.756 -2.5683 -1.4811 -0.2741
  143SAPE    HY15639   0.953   5.352  10.610  0.5920 -0.4221  2.4595
  143SAPE   O3115640   0.755   5.293  10.575 -0.0877  0.3028  0.2488
  143SAPE   C3115641   0.777   5.299  10.443 -0.8474 -0.2022 -0.1404
  143SAPE   O3215642   0.869   5.349  10.384 -0.2418 -0.6119 -0.2023
  143SAPE   C3215643   0.679   5.212  10.371  0.5411 -0.1185  0.7980
  143SAPE   H2X15644   0.600   5.175  10.441  1.7338 -2.6157  0.8769
  143SAPE   H2Y15645   0.736   5.124  10.334  0.3577 -0.3298  1.0164
  143SAPE   C2315646   0.447   5.713  10.507 -0.4103 -0.6007 -0.0861
  143SAPE   H3R15647   0.495   5.794  10.449  1.4705 -1.2758  0.4920
  143SAPE   H3S15648   0.342   5.737  10.534 -0.7632 -1.5232 -0.6422
  143SAPE   C2415649   0.447   5.582  10.428  0.2448 -0.3596 -0.4563
  143SAPE   H4R15650   0.399   5.503  10.489 -0.5197  0.6511  0.2637
  143SAPE   H4S15651   0.547   5.537  10.410  0.6811  0.2051  0.5412
  143SAPE   C2515652   0.385   5.586  10.293 -0.4017 -0.2111  0.3437
  143SAPE   H5R15653   0.284   5.542  10.288  0.1963 -1.6307  0.4667
  143SAPE   C2615654   0.428   5.630  10.175  0.4074 -0.3836 -0.0980
  143SAPE   H6R15655   0.359   5.615  10.090  1.2223 -0.3795 -0.7741
  143SAPE   C2715656   0.566   5.694  10.155 -0.3854 -0.0074  0.6012
  143SAPE   H7R15657   0.609   5.723  10.253 -0.0311  0.6693  0.2469
  143SAPE   H7S15658   0.558   5.792  10.102  0.1783 -0.4032 -0.2235
  143SAPE   C2815659   0.655   5.591  10.094 -0.4723 -0.3484 -0.4293
  143SAPE   H8R15660   0.710   5.531  10.168  0.0442  0.1765 -0.3914
  143SAPE   C2915661   0.698   5.590   9.967  0.4717  0.5927 -0.3134
  143SAPE   H9R15662   0.746   5.496   9.934  1.5957  0.8879  0.4487
  143SAPE  C21015663   0.634   5.679   9.867 -0.0545  0.1678  0.2881
  143SAPE  H10R15664   0.527   5.701   9.887 -0.2643 -0.1124 -0.4946
  143SAPE  H10S15665   0.634   5.620   9.773  1.7328  0.4703  0.0732
  143SAPE  C21115666   0.698   5.819   9.844  0.1506  0.4806 -0.2210
  143SAPE  H11R15667   0.739   5.863   9.937 -0.9567  2.7860 -0.8006
  143SAPE  C21215668   0.706   5.882   9.729  0.2102 -0.2544  0.0369
  143SAPE  H12R15669   0.751   5.982   9.732 -2.3780  0.9253  0.6605
  143SAPE  C21315670   0.652   5.836   9.591 -0.4073  0.4793 -0.8973
  143SAPE  H13R15671   0.560   5.896   9.572 -2.1578 -2.0941 -0.9857
  143SAPE  H13S15672   0.624   5.728   9.590 -2.9141  1.0297  1.6882
  143SAPE  C21415673   0.749   5.849   9.478  0.2228 -0.1892 -0.0690
  143SAPE  H14R15674   0.847   5.876   9.520 -0.2385  1.3679  0.0448
  143SAPE  C21515675   0.720   5.851   9.352 -0.1814  0.5497 -1.2392
  143SAPE  H15R15676   0.788   5.867   9.267  0.3676  1.1679 -0.6777
  143SAPE  C21615677   0.576   5.847   9.301 -0.0883  0.0949 -0.0610
  143SAPE  H16R15678   0.532   5.935   9.251  0.6333 -0.2664 -1.3635
  143SAPE  H16S15679   0.505   5.820   9.381 -2.1994  1.5830 -1.3866
  143SAPE  C21715680   0.561   5.743   9.177  0.6448 -0.2426  0.4234
  143SAPE  H17R15681   0.450   5.737   9.178  0.4648  2.5793  0.9049
  143SAPE  H17S15682   0.604   5.645   9.208  1.3559 -0.5545 -1.5068
  143SAPE  C21815683   0.612   5.779   9.040  0.1702 -0.0836  0.4430
  143SAPE  H18R15684   0.716   5.815   9.057  0.4499  0.1900 -1.6904
  143SAPE  H18S15685   0.543   5.861   9.010 -1.5726 -1.3103  1.0105
  143SAPE  C21915686   0.607   5.666   8.935 -0.0046  0.3982 -0.6162
  143SAPE  H19R15687   0.508   5.615   8.933  1.5052 -2.6182 -2.9511
  143SAPE  H19S15688   0.682   5.598   8.981  0.3382  1.5036  0.4737
  143SAPE  C22015689   0.649   5.698   8.797 -0.7407  0.3438  0.1055
  143SAPE  H20R15690   0.643   5.609   8.731 -0.4471  1.7271 -1.8110
  143SAPE  H20S15691   0.747   5.748   8.786 -0.7903  0.0849 -1.6886
  143SAPE  H20T15692   0.588   5.772   8.742  2.1615  0.1391 -3.5595
  143SAPE   C3315693   0.612   5.288  10.252 -0.5825  0.2768  0.7228
  143SAPE   H3X15694   0.683   5.328  10.176 -1.5654  0.1147 -0.2944
  143SAPE   H3Y15695   0.559   5.374  10.297  0.1134  0.3783  1.3532
  143SAPE   C3415696   0.506   5.200  10.175  0.3753  0.6362  0.0742
  143SAPE   H4X15697   0.413   5.184  10.234  0.5348 -2.7505 -0.4948
  143SAPE   H4Y15698   0.546   5.100  10.149  0.6400  0.3455  1.5866
  143SAPE   C3515699   0.474   5.264  10.033 -0.3154 -0.4632  0.3999
  143SAPE   H5X15700   0.572   5.304   9.997 -0.9824  0.4440 -0.4505
  143SAPE   H5Y15701   0.407   5.347  10.065 -1.4156 -1.4503  0.6584
  143SAPE   C3615702   0.412   5.154   9.942  0.4191 -0.2337  0.1594
  143SAPE   H6X15703   0.328   5.115  10.003 -0.8440  1.8403 -0.2200
  143SAPE   H6Y15704   0.488   5.076   9.919 -0.3402 -1.1150  0.5672
  143SAPE   C3715705   0.342   5.206   9.818 -0.2206  0.4076 -0.0725
  143SAPE   H7X15706   0.411   5.258   9.748 -0.3730  0.4341 -0.2047
  143SAPE   H7Y15707   0.275   5.292   9.840  1.0254  1.3861 -0.0310
  143SAPE   C3815708   0.265   5.111   9.726  0.5707  0.7183  0.5819
  143SAPE   H8X15709   0.199   5.038   9.778  0.0685 -0.8736 -2.1786
  143SAPE   H8Y15710   0.351   5.050   9.691  1.4257  2.1414  0.1565
  143SAPE   C3915711   0.207   5.178   9.602 -0.3718  0.1854  0.1776
  143SAPE   H9X15712   0.292   5.243   9.575 -0.9003 -0.2509 -2.6008
  143SAPE   H9Y15713   0.133   5.249   9.645 -0.7106  0.5795 -1.0589
  143SAPE  C31015714   0.159   5.092   9.485 -0.1267  0.2049  0.3782
  143SAPE  H10X15715   0.094   5.018   9.537 -0.9762  1.1826  0.7128
  143SAPE  H10Y15716   0.247   5.037   9.446  3.2663  3.8939  2.4767
  143SAPE  C31115717   0.098   5.174   9.374 -0.0833 -0.2248  0.7645
  143SAPE  H11X15718   0.174   5.244   9.335  2.2427 -1.6943  2.5094
  143SAPE  H11Y15719   0.013   5.237   9.408 -1.2251 -1.9985  1.2525
  143SAPE  C31215720   0.050   5.090   9.256 -0.9149 -0.3635 -0.1139
  143SAPE  H12X15721   0.009   5.162   9.182  0.8281  1.7849  0.9536
  143SAPE  H12Y15722  -0.024   5.010   9.277 -1.3522  0.2030  0.5369
  143SAPE  C31315723   0.163   5.010   9.186  1.0895 -0.1636  0.1330
  143SAPE  H13X15724   0.185   4.926   9.256 -0.3199 -0.2476  0.5092
  143SAPE  H13Y15725   0.252   5.075   9.182  1.0549 -0.1357 -0.1627
  143SAPE  C31415726   0.124   4.947   9.054 -0.0795 -0.7191 -0.4197
  143SAPE  H14X15727   0.214   4.911   9.000 -0.3023 -1.5577 -0.2408
  143SAPE  H14Y15728   0.075   5.019   8.985  1.1939 -2.1564 -2.9071
  143SAPE  C31515729   0.020   4.831   9.057  0.2870 -0.2831 -0.2225
  143SAPE  H15X15730  -0.054   4.839   9.140  0.6816  2.4733 -0.0813
  143SAPE  H15Y15731   0.093   4.753   9.088  1.2533  1.3872  1.8633
  143SAPE  C31615732  -0.040   4.788   8.922 -0.0051  0.0728 -0.3097
  143SAPE  H16X15733   0.032   4.825   8.845  1.0710 -1.3035  0.0065
  143SAPE  H16Y15734  -0.137   4.841   8.918  0.5916  1.2149  0.3191
  143SAPE  C31715735  -0.057   4.633   8.915 -0.3562 -0.4767  0.7268
  143SAPE  H17X15736   0.043   4.584   8.912  0.2032  0.6419  0.5556
  143SAPE  H17Y15737  -0.117   4.601   8.827 -0.1458  3.4429 -0.9653
  143SAPE  C31815738  -0.128   4.572   9.035  0.0343  0.3146 -0.0667
  143SAPE  H18X15739  -0.155   4.469   9.005  1.6472  0.3855 -1.8315
  143SAPE  H18Y15740  -0.212   4.641   9.061 -1.0612 -2.3364  3.8543
  143SAPE  H18Z15741  -0.063   4.562   9.124  1.8656 -2.3009 -1.6663
  144SAPE     N15742   3.972   3.858  11.170 -0.4765  0.0847  0.0654
  144SAPE   HN115743   4.035   3.939  11.187 -0.7982  0.0761  1.3159
  144SAPE   HN215744   3.872   3.866  11.196 -0.8892 -1.0203 -1.1734
  144SAPE   HN315745   4.003   3.791  11.244 -1.4447  1.0082  1.3215
  144SAPE   C1215746   3.988   3.782  11.045  1.1063 -0.1348  0.7841
  144SAPE  H12A15747   4.029   3.681  11.066  1.4693  0.1089  1.2576
  144SAPE  H12B15748   4.054   3.832  10.971 -1.1966 -2.0136 -2.7241
  144SAPE   C1115749   3.861   3.778  10.965  0.3914  0.0576 -0.4842
  144SAPE  H11A15750   3.867   3.720  10.871  3.3014  2.1151 -1.6346
  144SAPE  H11B15751   3.835   3.882  10.936  0.9891  0.2049 -0.4982
  144SAPE     P15752   3.639   3.801  11.114 -0.1684 -0.2111 -0.1904
  144SAPE   O1315753   3.525   3.710  11.154  0.2011  0.7584 -0.0431
  144SAPE   O1415754   3.716   3.863  11.221 -0.3459 -0.3684 -0.5966
  144SAPE   O1215755   3.752   3.718  11.046  0.1665  0.1040  0.1634
  144SAPE   O1115756   3.588   3.896  11.001  0.2833  0.0380 -0.1246
  144SAPE    C115757   3.481   3.869  10.917  0.1612 -0.5880 -0.0967
  144SAPE    HA15758   3.398   3.818  10.970 -0.4684  0.0975 -0.3987
  144SAPE    HB15759   3.440   3.970  10.894  1.6117  0.1402  0.4316
  144SAPE    C215760   3.520   3.797  10.783  0.7247 -0.7814  0.0597
  144SAPE    HS15761   3.584   3.711  10.812 -1.2594 -1.6005  2.2645
  144SAPE   O2115762   3.598   3.887  10.701 -0.6311 -0.0604  0.3045
  144SAPE   C2115763   3.547   3.982  10.629  0.2118  0.1011  0.3732
  144SAPE   O2215764   3.429   4.014  10.625  0.5292 -0.4242 -0.4887
  144SAPE   C2215765   3.652   4.055  10.540 -0.4770  0.2594  0.3730
  144SAPE   H2R15766   3.596   4.126  10.475 -0.1857 -0.2486 -0.4411
  144SAPE   H2S15767   3.727   4.107  10.603  0.1565  0.8300 -0.8470
  144SAPE    C315768   3.399   3.737  10.701  0.1869  0.0591 -0.4686
  144SAPE    HX15769   3.321   3.816  10.695 -1.2194 -1.3117 -0.5751
  144SAPE    HY15770   3.351   3.661  10.768  1.5277 -1.6820 -1.4360
  144SAPE   O3115771   3.435   3.667  10.579 -0.3778 -0.8415  0.3097
  144SAPE   C3115772   3.366   3.706  10.470 -0.6797 -0.5010  0.2573
  144SAPE   O3215773   3.288   3.799  10.471  0.6222 -0.0865  0.1549
  144SAPE   C3215774   3.391   3.611  10.348 -0.3863 -0.3975  0.7079
  144SAPE   H2X15775   3.352   3.508  10.355  0.9344 -1.2724 -3.3905
  144SAPE   H2Y15776   3.499   3.599  10.323 -0.6833 -1.1581 -0.2503
  144SAPE   C2315777   3.720   3.954  10.453 -0.6290  0.2893 -0.7199
  144SAPE   H3R15778   3.753   3.875  10.525 -2.0934  0.2801 -0.0421
  144SAPE   H3S15779   3.803   4.012  10.407 -0.2817 -0.6039 -1.2488
  144SAPE   C2415780   3.644   3.909  10.325 -0.2671 -0.5771 -0.4887
  144SAPE   H4R15781   3.664   3.991  10.253 -0.2430 -1.4337 -1.4729
  144SAPE   H4S15782   3.537   3.907  10.353  0.0550 -1.0874  0.7170
  144SAPE   C2515783   3.701   3.775  10.275 -0.4043 -0.3624  0.1700
  144SAPE   H5R15784   3.700   3.698  10.353  0.8623 -1.1443 -0.5774
  144SAPE   C2615785   3.763   3.755  10.157 -0.0802  0.2664  0.1173
  144SAPE   H6R15786   3.813   3.659  10.142 -0.8326  0.0893 -1.2860
  144SAPE   C2715787   3.792   3.862  10.048 -0.0980  0.4145  0.3219
  144SAPE   H7R15788   3.891   3.908  10.066  0.1476  0.1321 -0.2910
  144SAPE   H7S15789   3.719   3.944  10.065 -0.3013 -0.1489  2.3141
  144SAPE   C2815790   3.793   3.803   9.907  0.7530 -0.2601  0.6219
  144SAPE   H8R15791   3.825   3.698   9.904  0.5607 -0.3133  0.4111
  144SAPE   C2915792   3.759   3.859   9.796  0.7184  0.2004  0.4022
  144SAPE   H9R15793   3.779   3.809   9.701 -2.7635 -0.3036 -0.1335
  144SAPE  C21015794   3.710   4.002   9.791  0.1108 -0.5150  0.4518
  144SAPE  H10R15795   3.779   4.063   9.728 -0.3218 -2.0633 -1.6006
  144SAPE  H10S15796   3.720   4.055   9.888 -3.1963 -0.6603  0.9257
  144SAPE  C21115797   3.574   4.029   9.737 -0.8280  0.3727  1.1169
  144SAPE  H11R15798   3.503   4.069   9.810 -1.0540 -1.4244  1.9104
  144SAPE  C21215799   3.535   4.009   9.605  1.0522  0.3562 -0.5565
  144SAPE  H12R15800   3.441   4.056   9.574  0.3412  0.2741  1.3671
  144SAPE  C21315801   3.619   3.961   9.491 -0.3202 -0.8449  0.2022
  144SAPE  H13R15802   3.567   3.878   9.440  1.1512 -1.6372 -0.0309
  144SAPE  H13S15803   3.715   3.925   9.534 -1.1594 -1.5808  1.4695
  144SAPE  C21415804   3.658   4.067   9.390 -0.4066  0.2848 -0.7227
  144SAPE  H14R15805   3.611   4.167   9.395 -2.2723 -0.5370 -1.2965
  144SAPE  C21515806   3.729   4.042   9.277 -0.1768  0.2343 -0.9909
  144SAPE  H15R15807   3.751   4.126   9.210  2.7859  0.6281  0.3942
  144SAPE  C21615808   3.795   3.912   9.239  0.1861  0.2869  0.0852
  144SAPE  H16R15809   3.749   3.824   9.289 -0.1192 -0.3364 -1.2845
  144SAPE  H16S15810   3.902   3.915   9.270 -0.1004  1.8531  0.9663
  144SAPE  C21715811   3.785   3.890   9.085 -0.3869  0.3591  0.2458
  144SAPE  H17R15812   3.822   3.786   9.081 -0.3080  0.3775  0.5021
  144SAPE  H17S15813   3.852   3.961   9.032  2.5814 -1.8681  0.8759
  144SAPE  C21815814   3.650   3.886   9.019  0.0323  0.5884 -0.2183
  144SAPE  H18R15815   3.610   3.987   9.044 -0.9073 -0.0351  0.8268
  144SAPE  H18S15816   3.593   3.810   9.076 -1.6135  0.2131 -2.3346
  144SAPE  C21915817   3.641   3.853   8.867  0.3533 -0.2452 -0.1434
  144SAPE  H19R15818   3.703   3.765   8.842 -1.4039 -0.9457 -2.1139
  144SAPE  H19S15819   3.699   3.936   8.820  2.1853 -0.1218  2.2492
  144SAPE  C22015820   3.499   3.835   8.811  0.6694  0.5716  0.9681
  144SAPE  H20R15821   3.504   3.836   8.700  2.6231  1.5463  1.0352
  144SAPE  H20S15822   3.431   3.919   8.836 -0.9302 -0.2437 -0.5539
  144SAPE  H20T15823   3.460   3.734   8.835  2.0719 -0.3383 -0.4378
  144SAPE   C3315824   3.323   3.681  10.227 -0.0508 -0.2541  0.3042
  144SAPE   H3X15825   3.369   3.781  10.211 -2.6428  0.8483 -0.6466
  144SAPE   H3Y15826   3.218   3.715  10.238 -0.6592 -1.9302 -0.2469
  144SAPE   C3415827   3.333   3.602  10.096 -0.3069 -0.3346  0.3137
  144SAPE   H4X15828   3.261   3.517  10.098 -0.7633 -0.0733 -3.2432
  144SAPE   H4Y15829   3.438   3.568  10.081 -0.2507 -0.4944  1.0343
  144SAPE   C3515830   3.302   3.691   9.983  0.5967 -0.2661 -1.1074
  144SAPE   H5X15831   3.384   3.765   9.971  1.0810 -0.2882  1.7227
  144SAPE   H5Y15832   3.211   3.752  10.002  1.6448  0.6706  1.0805
  144SAPE   C3615833   3.283   3.616   9.847  0.2567 -0.0931 -0.5958
  144SAPE   H6X15834   3.197   3.545   9.853 -0.2125  0.5746  0.9850
  144SAPE   H6Y15835   3.386   3.587   9.820  0.1038 -1.0738 -0.1452
  144SAPE   C3715836   3.244   3.719   9.736  0.8026  0.5134  0.3144
  144SAPE   H7X15837   3.327   3.794   9.738  2.9434 -1.7412 -0.8337
  144SAPE   H7Y15838   3.144   3.763   9.755  0.2516 -0.2459 -0.8064
  144SAPE   C3815839   3.238   3.650   9.595  0.6339  0.8763 -0.1992
  144SAPE   H8X15840   3.138   3.603   9.594  1.5757 -1.1980 -0.0330
  144SAPE   H8Y15841   3.308   3.563   9.588 -0.4482 -0.0453  0.2356
  144SAPE   C3915842   3.250   3.742   9.482  0.6618 -0.8077 -0.6890
  144SAPE   H9X15843   3.354   3.778   9.461  1.8140 -2.5550  1.8169
  144SAPE   H9Y15844   3.187   3.833   9.496  0.7156 -0.5402 -2.0554
  144SAPE  C31015845   3.198   3.683   9.357 -0.3936 -0.2605  0.4196
  144SAPE  H10X15846   3.109   3.618   9.371 -1.3010  0.7216 -0.6613
  144SAPE  H10Y15847   3.267   3.599   9.336 -0.0036 -0.7612  3.4744
  144SAPE  C31115848   3.181   3.791   9.260 -0.2027 -0.5791 -0.3051
  144SAPE  H11X15849   3.277   3.845   9.250  0.2454 -1.0507  1.3947
  144SAPE  H11Y15850   3.101   3.858   9.298  0.2855 -0.7664  1.0725
  144SAPE  C31215851   3.162   3.737   9.118  0.5326 -0.7107  0.1391
  144SAPE  H12X15852   3.052   3.723   9.108  0.2470  0.4485  1.5810
  144SAPE  H12Y15853   3.225   3.646   9.106  2.2859  0.3492  1.1826
  144SAPE  C31315854   3.193   3.845   9.011  0.3039 -0.0882  0.0428
  144SAPE  H13X15855   3.211   3.796   8.913  0.3310 -1.9574  0.9659
  144SAPE  H13Y15856   3.275   3.918   9.033  0.2265 -0.1024  0.3823
  144SAPE  C31415857   3.074   3.940   8.992 -0.0325  0.1179 -0.2122
  144SAPE  H14X15858   3.096   4.044   9.022  0.1429 -0.0867  0.3772
  144SAPE  H14Y15859   2.990   3.907   9.057 -0.7784  1.5256 -0.4442
  144SAPE  C31515860   3.024   3.949   8.843  0.2818  0.1041 -0.7760
  144SAPE  H15X15861   3.010   3.840   8.825  2.4289 -0.3268  0.0288
  144SAPE  H15Y15862   3.093   4.003   8.774 -0.5849 -0.0459 -1.7789
  144SAPE  C31615863   2.883   4.017   8.831 -0.6945  0.8451  0.0721
  144SAPE  H16X15864   2.910   4.124   8.823 -2.1663  1.0816 -2.1319
  144SAPE  H16Y15865   2.828   4.005   8.927  0.8310 -3.1494  0.5580
  144SAPE  C31715866   2.801   3.984   8.706 -0.3908 -0.8473 -0.6114
  144SAPE  H17X15867   2.858   4.012   8.614  0.6902  0.8399  0.5592
  144SAPE  H17Y15868   2.711   4.047   8.695 -2.2156 -2.9020  2.0154
  144SAPE  C31815869   2.748   3.839   8.688 -0.3956  0.7120 -0.6732
  144SAPE  H18X15870   2.838   3.774   8.683 -1.3015 -0.6456  0.4880
  144SAPE  H18Y15871   2.685   3.827   8.597  0.5695  2.1874 -1.5613
  144SAPE  H18Z15872   2.690   3.811   8.778 -0.0797  2.1685 -0.0055
  145SAPE     N15873   6.745   4.573  11.032  0.0295  0.0641  0.4516
  145SAPE   HN115874   6.682   4.502  10.991  0.1578 -1.6003  3.0207
  145SAPE   HN215875   6.797   4.527  11.110  1.6883  0.0325 -0.6535
  145SAPE   HN315876   6.683   4.640  11.082  2.3750  2.8638 -0.2448
  145SAPE   C1215877   6.833   4.635  10.931  0.2981 -0.1798  1.1790
  145SAPE  H12A15878   6.776   4.643  10.836  0.1728  0.1748  1.2849
  145SAPE  H12B15879   6.916   4.564  10.913 -1.2028 -1.3411 -1.3899
  145SAPE   C1115880   6.881   4.766  11.005 -0.2409  0.0699  0.6460
  145SAPE  H11A15881   6.944   4.825  10.935 -0.2929 -0.2103  0.3604
  145SAPE  H11B15882   6.945   4.742  11.093  1.5713 -0.3727 -0.7454
  145SAPE     P15883   6.775   4.966  11.139 -0.2155 -0.0718 -0.3129
  145SAPE   O1315884   6.652   5.043  11.134 -0.4603 -0.7023 -0.1973
  145SAPE   O1415885   6.824   4.907  11.265 -0.1365  0.2946  0.7722
  145SAPE   O1215886   6.766   4.843  11.037  0.0885 -0.1466 -0.3872
  145SAPE   O1115887   6.899   5.039  11.071 -0.1943 -0.4799 -0.5623
  145SAPE    C115888   6.877   5.106  10.945  0.0950 -0.3327  0.1016
  145SAPE    HA15889   6.976   5.086  10.898 -0.1079 -1.6118  0.1971
  145SAPE    HB15890   6.803   5.051  10.883  1.7717 -1.3009 -1.0888
  145SAPE    C215891   6.867   5.259  10.967  0.1056  0.2930 -0.0945
  145SAPE    HS15892   6.782   5.274  11.036 -0.2782 -1.6991 -0.0980
  145SAPE   O2115893   6.838   5.305  10.835 -0.1427 -0.4118  0.1513
  145SAPE   C2115894   6.796   5.428  10.818  0.3151  0.0834 -0.3346
  145SAPE   O2215895   6.779   5.513  10.906 -0.1023  0.7860  0.4866
  145SAPE   C2215896   6.753   5.446  10.673 -0.3345  0.4311 -0.1713
  145SAPE   H2R15897   6.797   5.363  10.613  1.8395  0.6971  1.0040
  145SAPE   H2S15898   6.642   5.437  10.670 -0.3638 -0.7411  2.5009
  145SAPE    C315899   6.999   5.320  11.020 -0.2762  0.3310  0.4603
  145SAPE    HX15900   7.020   5.283  11.122 -0.2599  1.0869  0.7318
  145SAPE    HY15901   6.996   5.431  11.019  0.6800  0.3593 -0.4973
  145SAPE   O3115902   7.113   5.270  10.944 -0.1750 -0.0232 -0.0738
  145SAPE   C3115903   7.137   5.343  10.841 -0.2327  0.0269  0.7408
  145SAPE   O3215904   7.085   5.452  10.808 -0.0749  0.1642 -0.3385
  145SAPE   C3215905   7.245   5.273  10.758 -0.1683  0.4808  0.2044
  145SAPE   H2X15906   7.342   5.289  10.809 -0.3249 -0.4175  0.8033
  145SAPE   H2Y15907   7.258   5.330  10.664 -1.0532  1.7916  0.8599
  145SAPE   C2315908   6.788   5.581  10.617  0.1738  0.6992 -0.4503
  145SAPE   H3R15909   6.895   5.587  10.586  0.1815  3.8082 -0.0265
  145SAPE   H3S15910   6.773   5.659  10.695 -0.6269 -0.3780  0.4746
  145SAPE   C2415911   6.711   5.599  10.481 -0.1405 -0.1495  0.2363
  145SAPE   H4R15912   6.600   5.601  10.488 -0.1868  1.7337 -0.5802
  145SAPE   H4S15913   6.722   5.505  10.422  1.4746 -0.4419  0.9775
  145SAPE   C2515914   6.758   5.722  10.402 -0.5374  0.2064  0.3481
  145SAPE   H5R15915   6.767   5.814  10.462  0.2822 -0.8273  1.8229
  145SAPE   C2615916   6.819   5.723  10.285  0.6797  0.5047  0.5857
  145SAPE   H6R15917   6.852   5.825  10.259 -0.7347  0.5137 -1.3546
  145SAPE   C2715918   6.846   5.619  10.183 -0.6595  0.0961 -0.0532
  145SAPE   H7R15919   6.850   5.523  10.239  1.6589 -0.2858 -0.8234
  145SAPE   H7S15920   6.949   5.625  10.144 -0.9498  2.7223 -0.5015
  145SAPE   C2815921   6.748   5.612  10.070  0.1073 -1.0676 -0.5713
  145SAPE   H8R15922   6.647   5.637  10.106  1.7143  1.4323  2.4409
  145SAPE   C2915923   6.776   5.577   9.942 -0.1976  0.1532  0.5209
  145SAPE   H9R15924   6.694   5.590   9.870 -0.8717  2.3433  1.6429
  145SAPE  C21015925   6.906   5.542   9.877 -0.3528  0.0031 -0.2422
  145SAPE  H10R15926   6.895   5.457   9.806  1.6442 -1.0373  0.6377
  145SAPE  H10S15927   6.970   5.496   9.957 -0.3738 -0.6312 -0.5869
  145SAPE  C21115928   6.981   5.664   9.824 -1.0279  0.1351  0.4006
  145SAPE  H11R15929   6.962   5.750   9.890  0.1163  0.1098  0.7823
  145SAPE  C21215930   7.065   5.665   9.719 -0.4833  0.7503  0.3375
  145SAPE  H12R15931   7.116   5.757   9.689  0.0767 -0.3361 -2.0883
  145SAPE  C21315932   7.087   5.542   9.635 -0.7292  0.4577 -0.3137
  145SAPE  H13R15933   6.993   5.482   9.633  0.6633 -1.7646  0.0264
  145SAPE  H13S15934   7.175   5.484   9.670 -1.9968 -0.4700  1.4071
  145SAPE  C21415935   7.128   5.585   9.501 -0.4775  0.0065 -0.1597
  145SAPE  H14R15936   7.065   5.661   9.452  0.4649  0.4305 -0.7107
  145SAPE  C21515937   7.227   5.522   9.427 -0.3004 -0.3514 -0.1226
  145SAPE  H15R15938   7.234   5.565   9.326  0.8371 -0.0635  0.0666
  145SAPE  C21615939   7.316   5.408   9.465 -0.3868  0.0122 -0.3420
  145SAPE  H16R15940   7.294   5.358   9.562  0.4469  0.2564 -0.0190
  145SAPE  H16S15941   7.414   5.459   9.472 -0.8812  1.0503 -0.9630
  145SAPE  C21715942   7.324   5.293   9.357 -0.1783  1.0181 -0.3460
  145SAPE  H17R15943   7.225   5.248   9.333  0.7243 -2.0243  1.4081
  145SAPE  H17S15944   7.382   5.211   9.402 -1.7392 -0.9455 -1.8197
  145SAPE  C21815945   7.396   5.354   9.232  0.2583  0.6022  0.0417
  145SAPE  H18R15946   7.486   5.409   9.265  0.0440  0.4793  0.8377
  145SAPE  H18S15947   7.329   5.435   9.193  1.0304  0.7228 -1.0676
  145SAPE  C21915948   7.436   5.245   9.127  0.6216 -0.4946 -0.6056
  145SAPE  H19R15949   7.350   5.180   9.099 -0.3333 -0.1648  1.5289
  145SAPE  H19S15950   7.515   5.177   9.166  0.2619 -0.2684  0.5052
  145SAPE  C22015951   7.485   5.306   8.991 -0.5324  0.5932  0.5169
  145SAPE  H20R15952   7.585   5.352   8.997  0.0745 -0.7979  1.2714
  145SAPE  H20S15953   7.416   5.386   8.956  0.2464  1.0921  0.1084
  145SAPE  H20T15954   7.496   5.226   8.915 -1.2640 -1.4830  2.5484
  145SAPE   C3315955   7.213   5.127  10.722 -0.4683  0.7523 -0.6888
  145SAPE   H3X15956   7.197   5.065  10.813  1.8378 -0.1542 -0.8844
  145SAPE   H3Y15957   7.302   5.081  10.675 -0.6084 -0.6510  0.3867
  145SAPE   C3415958   7.088   5.108  10.636 -0.4721 -0.4589  0.5299
  145SAPE   H4X15959   7.002   5.162  10.681  0.5766  1.4360  0.2985
  145SAPE   H4Y15960   7.065   5.001  10.617  2.8727 -0.8662 -1.7776
  145SAPE   C3515961   7.096   5.157  10.488 -0.2178 -0.0124  0.0931
  145SAPE   H5X15962   7.178   5.115  10.426  0.9952  3.3552 -0.7333
  145SAPE   H5Y15963   7.082   5.267  10.492 -1.5560 -0.0446 -2.5017
  145SAPE   C3615964   6.977   5.099  10.408 -0.5166 -0.4596  0.3427
  145SAPE   H6X15965   6.890   5.083  10.475  0.2276  1.9573  1.9620
  145SAPE   H6Y15966   6.999   4.997  10.371  0.7473 -0.8596  2.1436
  145SAPE   C3715967   6.934   5.188  10.286  0.0983 -0.0531 -0.1334
  145SAPE   H7X15968   7.023   5.202  10.222 -0.1046  0.1063 -0.3787
  145SAPE   H7Y15969   6.911   5.290  10.325  1.5042  1.2677 -2.6867
  145SAPE   C3815970   6.826   5.119  10.210 -1.2245  0.1855  0.8338
  145SAPE   H8X15971   6.736   5.098  10.273 -0.5690 -0.0610  1.6917
  145SAPE   H8Y15972   6.865   5.021  10.175 -2.0365 -0.3547  1.3902
  145SAPE   C3915973   6.769   5.221  10.097  0.1621 -0.5834 -0.5940
  145SAPE   H9X15974   6.857   5.252  10.037  1.5061 -0.0556  1.6006
  145SAPE   H9Y15975   6.729   5.313  10.145  1.8864 -0.6244  0.9990
  145SAPE  C31015976   6.669   5.156  10.004 -0.2059 -0.5997 -0.4701
  145SAPE  H10X15977   6.583   5.133  10.069  0.1922  4.1584  1.8905
  145SAPE  H10Y15978   6.695   5.059   9.954 -0.6604 -0.8449 -0.2298
  145SAPE  C31115979   6.621   5.246   9.890 -0.7196 -0.1993  0.3532
  145SAPE  H11X15980   6.708   5.295   9.842 -2.0065  1.5570 -0.2472
  145SAPE  H11Y15981   6.555   5.321   9.939  0.3792  1.1323 -0.1954
  145SAPE  C31215982   6.552   5.164   9.781 -0.3219  0.3522  0.7778
  145SAPE  H12X15983   6.481   5.087   9.819 -0.9600  0.3019 -0.4610
  145SAPE  H12Y15984   6.623   5.105   9.719 -0.7104 -0.6801  1.3080
  145SAPE  C31315985   6.486   5.252   9.678 -0.7024  0.1621 -0.3899
  145SAPE  H13X15986   6.554   5.306   9.609  0.1290  1.9283  1.7247
  145SAPE  H13Y15987   6.431   5.331   9.735 -0.6350 -1.7652  2.4557
  145SAPE  C31415988   6.376   5.177   9.601 -0.3473  0.1345  0.0789
  145SAPE  H14X15989   6.304   5.124   9.667 -2.3319 -0.6707 -2.6390
  145SAPE  H14Y15990   6.421   5.101   9.534  0.0773 -0.0458  0.5640
  145SAPE  C31515991   6.293   5.269   9.514  0.4444 -0.0032 -0.0605
  145SAPE  H15X15992   6.280   5.368   9.564  0.8438 -0.5325  1.1053
  145SAPE  H15Y15993   6.190   5.232   9.496 -0.1005  1.0280  0.8412
  145SAPE  C31615994   6.350   5.296   9.375  0.2523  0.0642  0.1592
  145SAPE  H16X15995   6.461   5.291   9.379  0.1911 -0.1619  2.2374
  145SAPE  H16Y15996   6.323   5.402   9.355 -1.3224 -0.4602 -0.5566
  145SAPE  C31715997   6.296   5.206   9.269 -0.0780 -1.0651  0.6274
  145SAPE  H17X15998   6.188   5.228   9.251  0.6929  0.3450 -2.5979
  145SAPE  H17Y15999   6.290   5.098   9.294 -0.3031 -0.6917  2.2756
  145SAPE  C31816000   6.379   5.207   9.141  0.0085  0.9362  0.2513
  145SAPE  H18X16001   6.307   5.187   9.058  1.5992  0.6465 -1.0895
  145SAPE  H18Y16002   6.457   5.128   9.147  2.8119  3.5611 -0.8263
  145SAPE  H18Z16003   6.426   5.299   9.101  2.4962 -0.8558 -1.0467
  146SAPE     N16004   5.088   5.158  11.071 -0.2529  0.8871 -0.0188
  146SAPE   HN116005   5.154   5.203  11.005 -0.3444  1.5318  0.3175
  146SAPE   HN216006   4.993   5.162  11.030  0.2796  0.2498 -1.3416
  146SAPE   HN316007   5.102   5.189  11.170  0.6661 -1.2263  0.5338
  146SAPE   C1216008   5.125   5.010  11.074 -0.5779  0.9986 -1.4257
  146SAPE  H12A16009   5.063   4.953  11.146  0.8050  0.0301 -0.9646
  146SAPE  H12B16010   5.228   4.993  11.112 -1.8420 -3.2486  0.4580
  146SAPE   C1116011   5.101   4.953  10.936  0.6219 -0.4811 -0.6384
  146SAPE  H11A16012   5.177   5.001  10.871  2.9641  0.6268  2.7878
  146SAPE  H11B16013   4.998   4.982  10.905  1.3237  3.1024  0.1867
  146SAPE     P16014   5.213   4.731  10.849  0.2781 -0.1245  0.2456
  146SAPE   O1316015   5.338   4.729  10.931  0.0139 -0.2748  0.0592
  146SAPE   O1416016   5.146   4.603  10.819 -0.5206 -0.0638 -0.0707
  146SAPE   O1216017   5.112   4.809  10.933  0.2213  0.0861 -0.2990
  146SAPE   O1116018   5.227   4.816  10.715 -0.4846 -0.6108  0.2206
  146SAPE    C116019   5.126   4.862  10.628  0.2690  0.0402  0.1925
  146SAPE    HA16020   5.028   4.851  10.681  0.5675 -0.2934  0.6770
  146SAPE    HB16021   5.152   4.969  10.618 -1.0347  0.2735 -0.9030
  146SAPE    C216022   5.121   4.789  10.495  0.0790 -0.4581 -0.3339
  146SAPE    HS16023   5.112   4.684  10.529  0.9664 -0.8247 -1.1792
  146SAPE   O2116024   5.248   4.803  10.438  1.0667  0.2742  0.1718
  146SAPE   C2116025   5.271   4.905  10.358 -0.2835 -0.1762 -0.8954
  146SAPE   O2216026   5.192   4.989  10.319 -0.6519  0.3009 -0.0735
  146SAPE   C2216027   5.421   4.895  10.309  0.1191 -0.0403 -0.2690
  146SAPE   H2R16028   5.442   4.996  10.267 -1.7835  1.3477  1.9380
  146SAPE   H2S16029   5.490   4.876  10.394 -0.7591 -0.3800  0.3731
  146SAPE    C316030   4.990   4.827  10.415 -0.3241  0.5206  0.5359
  146SAPE    HX16031   4.996   4.784  10.313  0.2116  0.9483  0.3872
  146SAPE    HY16032   4.990   4.938  10.417  2.2000  0.5600 -0.3444
  146SAPE   O3116033   4.866   4.784  10.474  0.2828 -0.5395 -0.2869
  146SAPE   C3116034   4.841   4.654  10.453  0.6383  1.1399  0.2166
  146SAPE   O3216035   4.922   4.569  10.412 -0.3697 -0.4649 -0.2487
  146SAPE   C3216036   4.709   4.620  10.525  0.2718 -0.5569 -0.4736
  146SAPE   H2X16037   4.638   4.705  10.519  1.3620  0.5279  1.8331
  146SAPE   H2Y16038   4.756   4.613  10.625 -0.9036 -0.7938  0.0671
  146SAPE   C2316039   5.447   4.772  10.212  0.3252 -0.3048  0.6645
  146SAPE   H3R16040   5.419   4.673  10.253 -0.4773 -0.9781 -1.4022
  146SAPE   H3S16041   5.553   4.763  10.182  0.4324  2.7365 -0.0527
  146SAPE   C2416042   5.359   4.792  10.083  0.0355  1.0074 -0.6430
  146SAPE   H4R16043   5.377   4.894  10.042 -2.1302  0.4298 -3.2310
  146SAPE   H4S16044   5.253   4.788  10.117  1.0220 -0.4099  2.3878
  146SAPE   C2516045   5.389   4.678   9.986 -0.2523 -0.4970 -0.0081
  146SAPE   H5R16046   5.377   4.574  10.018  1.6927 -0.6136  0.4046
  146SAPE   C2616047   5.429   4.690   9.856  0.0766  0.1013  0.1974
  146SAPE   H6R16048   5.427   4.603   9.789  0.3764  0.5445 -0.3958
  146SAPE   C2716049   5.448   4.824   9.792  0.5203 -0.0825  0.2145
  146SAPE   H7R16050   5.557   4.839   9.776  0.8089 -2.7313 -0.5792
  146SAPE   H7S16051   5.397   4.913   9.836 -0.2882  0.6764 -2.1428
  146SAPE   C2816052   5.373   4.814   9.660  0.1750 -0.0356 -1.0854
  146SAPE   H8R16053   5.263   4.814   9.671  0.1975  1.5405 -0.7506
  146SAPE   C2916054   5.430   4.800   9.542  0.1254  0.6758  0.0412
  146SAPE   H9R16055   5.366   4.785   9.453  0.3325  0.9832 -0.1598
  146SAPE  C21016056   5.577   4.776   9.512 -0.2110 -0.1131 -0.5253
  146SAPE  H10R16057   5.625   4.728   9.600 -1.0815  1.5759  0.9063
  146SAPE  H10S16058   5.634   4.871   9.499 -1.4422  1.0843  2.4281
  146SAPE  C21116059   5.584   4.689   9.385  0.1344  0.5214  0.4989
  146SAPE  H11R16060   5.592   4.747   9.292  0.0952  0.8420  0.6930
  146SAPE  C21216061   5.575   4.559   9.380  0.1817 -0.5772 -0.0048
  146SAPE  H12R16062   5.589   4.509   9.283 -0.1171 -1.8538  0.6101
  146SAPE  C21316063   5.572   4.479   9.507 -0.3603 -0.2742  0.2946
  146SAPE  H13R16064   5.483   4.415   9.487 -0.1926  0.3799 -2.7529
  146SAPE  H13S16065   5.551   4.532   9.602  1.4606 -0.4119  0.7858
  146SAPE  C21416066   5.691   4.383   9.527 -0.2153 -1.0421 -0.3698
  146SAPE  H14R16067   5.780   4.391   9.463  0.1101 -1.0764  0.0748
  146SAPE  C21516068   5.693   4.284   9.613  0.4053 -0.0551  0.0090
  146SAPE  H15R16069   5.782   4.220   9.611  0.1791 -0.3379 -1.1857
  146SAPE  C21616070   5.580   4.242   9.704 -0.8111 -0.0197  0.3978
  146SAPE  H16R16071   5.490   4.219   9.644 -0.9759 -1.2010  1.0912
  146SAPE  H16S16072   5.541   4.321   9.771 -1.9428  0.2660 -0.5781
  146SAPE  C21716073   5.626   4.122   9.792 -0.2283 -0.6362 -0.5790
  146SAPE  H17R16074   5.561   4.087   9.875 -0.1680  1.4016  0.3659
  146SAPE  H17S16075   5.729   4.145   9.829  0.1084 -2.6972 -0.1541
  146SAPE  C21816076   5.646   3.990   9.712 -0.2264  0.0380  0.3109
  146SAPE  H18R16077   5.694   3.915   9.779 -0.9418 -1.4395 -0.8034
  146SAPE  H18S16078   5.714   3.999   9.625 -1.1572  0.7241 -0.3559
  146SAPE  C21916079   5.516   3.938   9.651 -0.4646  0.2390  0.0782
  146SAPE  H19R16080   5.481   4.027   9.595  0.0541 -0.4569 -1.3917
  146SAPE  H19S16081   5.458   3.913   9.742  0.9094 -4.0134 -0.0956
  146SAPE  C22016082   5.533   3.822   9.565  0.8197 -0.1378  0.8360
  146SAPE  H20R16083   5.575   3.739   9.625  0.1602 -0.2877  1.0913
  146SAPE  H20S16084   5.598   3.854   9.480  0.5196 -1.1992  0.2044
  146SAPE  H20T16085   5.437   3.785   9.523  0.5615  1.2421  0.1485
  146SAPE   C3316086   4.641   4.487  10.489  0.0012 -0.1861 -0.6434
  146SAPE   H3X16087   4.597   4.460  10.588  2.1948 -0.4600  0.2911
  146SAPE   H3Y16088   4.718   4.411  10.464  0.0053 -0.5723  0.4890
  146SAPE   C3416089   4.516   4.490  10.387  0.3190 -0.2341  0.5839
  146SAPE   H4X16090   4.441   4.561  10.427  1.5641  0.7640  1.1678
  146SAPE   H4Y16091   4.458   4.395  10.387 -1.0749  0.5973 -1.8424
  146SAPE   C3516092   4.555   4.545  10.251  0.2189  0.4944  1.2290
  146SAPE   H5X16093   4.578   4.653  10.248  0.2723  0.4509 -0.3983
  146SAPE   H5Y16094   4.458   4.537  10.196  0.3060  0.1385  1.1236
  146SAPE   C3616095   4.673   4.470  10.190  0.1210 -0.7475  0.6094
  146SAPE   H6X16096   4.649   4.362  10.193  1.5383 -1.1124 -0.3401
  146SAPE   H6Y16097   4.772   4.502  10.231 -0.5541  0.6625  1.1841
  146SAPE   C3716098   4.693   4.520  10.048 -0.3674 -0.0319  0.0209
  146SAPE   H7X16099   4.784   4.471  10.008 -0.4889  0.2021 -0.5495
  146SAPE   H7Y16100   4.715   4.628  10.035 -1.3528 -0.1083 -2.7637
  146SAPE   C3816101   4.586   4.476   9.944 -0.3389  0.1312 -0.0830
  146SAPE   H8X16102   4.494   4.535   9.966  0.4060  0.5124  2.1227
  146SAPE   H8Y16103   4.575   4.367   9.958 -0.0519  0.3647  2.1995
  146SAPE   C3916104   4.632   4.485   9.802  0.5404 -0.7640 -0.0269
  146SAPE   H9X16105   4.720   4.418   9.789 -0.8284 -2.5367 -0.1846
  146SAPE   H9Y16106   4.670   4.588   9.786 -0.5079 -0.5853 -1.4509
  146SAPE  C31016107   4.524   4.450   9.698 -0.0335 -0.3418  0.2811
  146SAPE  H10X16108   4.439   4.521   9.705  0.8524  0.6659  1.1593
  146SAPE  H10Y16109   4.483   4.354   9.735 -0.7445 -0.3171 -0.4391
  146SAPE  C31116110   4.580   4.444   9.558  0.2069 -0.0032  0.2102
  146SAPE  H11X16111   4.672   4.505   9.549  1.1260 -0.9437  2.7943
  146SAPE  H11Y16112   4.508   4.510   9.504  0.3363  0.5550  0.7148
  146SAPE  C31216113   4.584   4.305   9.504  0.1200  0.3889  0.4632
  146SAPE  H12X16114   4.480   4.266   9.509 -0.0291  0.7528  0.1575
  146SAPE  H12Y16115   4.653   4.230   9.550 -0.6826 -1.0718 -0.6823
  146SAPE  C31316116   4.609   4.303   9.349  0.0919  0.6253  0.2889
  146SAPE  H13X16117   4.668   4.394   9.326 -0.1403  1.3061  2.2829
  146SAPE  H13Y16118   4.510   4.320   9.302 -0.1792 -2.1116 -0.2066
  146SAPE  C31416119   4.668   4.171   9.321 -0.3238  0.1648  0.0288
  146SAPE  H14X16120   4.595   4.090   9.344 -1.7629  1.6581  0.8698
  146SAPE  H14Y16121   4.760   4.153   9.382 -0.0327 -1.1354 -0.7808
  146SAPE  C31516122   4.710   4.159   9.174 -0.4362  0.7219  0.1405
  146SAPE  H15X16123   4.724   4.051   9.151 -0.4730  1.1065 -1.7334
  146SAPE  H15Y16124   4.802   4.219   9.158 -0.7648  1.9275  2.5615
  146SAPE  C31616125   4.605   4.209   9.072  0.0460  0.0171 -1.0253
  146SAPE  H16X16126   4.619   4.318   9.059  1.8134 -0.2014 -1.0299
  146SAPE  H16Y16127   4.506   4.194   9.120  0.3681  0.5108 -0.1933
  146SAPE  C31716128   4.621   4.153   8.932  0.3954 -0.4214  0.3863
  146SAPE  H17X16129   4.653   4.047   8.939 -4.5333 -1.9289  2.2082
  146SAPE  H17Y16130   4.713   4.203   8.895  1.9773 -4.0579 -0.8878
  146SAPE  C31816131   4.517   4.179   8.828 -0.0246  0.2891  0.5445
  146SAPE  H18X16132   4.498   4.287   8.817 -0.2777  0.1029 -0.9281
  146SAPE  H18Y16133   4.421   4.139   8.867 -0.0142 -1.5437 -1.2052
  146SAPE  H18Z16134   4.549   4.129   8.734 -1.8957 -0.3425  0.2311
  147SAPE     N16135   1.481   1.816   6.369  0.1377  0.1557  0.2215
  147SAPE   HN116136   1.570   1.858   6.400  0.7483  1.2259 -2.8344
  147SAPE   HN216137   1.415   1.810   6.449  0.7536  0.1563  0.7269
  147SAPE   HN316138   1.517   1.724   6.337  0.3350  1.2644 -2.8561
  147SAPE   C1216139   1.415   1.893   6.261  0.5001  0.3657  0.3896
  147SAPE  H12A16140   1.352   1.815   6.214  0.8779 -0.0187  0.5236
  147SAPE  H12B16141   1.495   1.912   6.187 -1.5482  1.4641 -1.5885
  147SAPE   C1116142   1.352   2.016   6.321 -0.6479 -0.2981  0.3880
  147SAPE  H11A16143   1.315   2.087   6.244  0.6294 -1.1094 -1.0077
  147SAPE  H11B16144   1.431   2.085   6.357  0.0743 -1.3331  0.8017
  147SAPE     P16145   1.111   1.967   6.385  0.0512 -0.1308 -0.0256
  147SAPE   O1316146   1.066   2.078   6.297 -0.0829  0.2507 -0.0414
  147SAPE   O1416147   1.089   1.827   6.332 -0.3256 -0.3203 -0.4173
  147SAPE   O1216148   1.258   1.998   6.418  0.0820 -0.1443 -0.0348
  147SAPE   O1116149   1.048   1.977   6.531  0.0017 -0.3552 -0.2360
  147SAPE    C116150   1.008   2.102   6.595  0.3359 -0.1375 -0.6603
  147SAPE    HA16151   1.056   2.187   6.540  0.1928  1.1108  1.1039
  147SAPE    HB16152   0.902   2.133   6.582  0.4418 -0.0182 -1.2749
  147SAPE    C216153   1.047   2.108   6.746  0.0816 -0.2784 -0.5332
  147SAPE    HS16154   1.158   2.110   6.755  0.0432 -2.9866  1.2414
  147SAPE   O2116155   1.002   1.985   6.808  0.1903  0.0407  0.3310
  147SAPE   C2116156   1.077   1.876   6.790 -0.3113  0.0436  0.2458
  147SAPE   O2216157   1.196   1.875   6.763  0.1084  0.2274  0.1890
  147SAPE   C2216158   1.007   1.749   6.827 -0.3910  0.4628  0.0475
  147SAPE   H2R16159   0.925   1.768   6.899 -1.3071 -0.4259 -0.7385
  147SAPE   H2S16160   0.965   1.704   6.734 -3.1165  0.2331  1.3322
  147SAPE    C316161   0.981   2.238   6.817  0.3437  0.5776  0.1345
  147SAPE    HX16162   0.872   2.220   6.810  0.4091 -0.2202  1.0194
  147SAPE    HY16163   1.009   2.328   6.759 -0.6590 -1.3962 -3.5502
  147SAPE   O3116164   1.020   2.262   6.952  0.5927 -0.3281  0.0049
  147SAPE   C3116165   1.143   2.304   6.971  0.0290  0.1608 -0.2398
  147SAPE   O3216166   1.221   2.339   6.890  0.4120 -0.0862  0.4959
  147SAPE   C3216167   1.167   2.295   7.119  0.0229 -0.2536 -0.2890
  147SAPE   H2X16168   1.147   2.196   7.164 -0.4253  0.5935  1.4343
  147SAPE   H2Y16169   1.093   2.364   7.167  0.0356 -0.7103  0.3898
  147SAPE   C2316170   1.114   1.645   6.871 -0.9405 -0.2269  0.1585
  147SAPE   H3R16171   1.207   1.641   6.812 -1.0080  0.0101  0.0323
  147SAPE   H3S16172   1.058   1.550   6.868 -0.1532 -0.7572  1.5679
  147SAPE   C2416173   1.145   1.660   7.020 -0.3348 -0.0349  0.2249
  147SAPE   H4R16174   1.199   1.756   7.031  0.9828 -0.7055 -0.2551
  147SAPE   H4S16175   1.218   1.579   7.046 -0.3329  0.3854  1.5864
  147SAPE   C2516176   1.033   1.652   7.117 -0.5068 -0.4957 -0.3266
  147SAPE   H5R16177   0.985   1.554   7.125 -0.7619 -0.4792 -1.4905
  147SAPE   C2616178   0.997   1.748   7.198  0.2285  0.4570  0.1379
  147SAPE   H6R16179   0.910   1.716   7.259 -0.7491  0.2381 -1.3466
  147SAPE   C2716180   1.048   1.891   7.201 -0.0814 -0.8847  0.5234
  147SAPE   H7R16181   1.096   1.912   7.103 -1.3439 -0.0836  0.0546
  147SAPE   H7S16182   1.129   1.905   7.276  0.3889  1.8216 -0.4075
  147SAPE   C2816183   0.931   1.985   7.225 -0.3402 -0.1995 -0.1160
  147SAPE   H8R16184   0.868   2.003   7.136  0.7078 -0.0573 -0.8343
  147SAPE   C2916185   0.910   2.066   7.333 -0.5036  1.1413  0.5170
  147SAPE   H9R16186   0.817   2.126   7.333 -0.6107  1.0095 -1.3000
  147SAPE  C21016187   0.995   2.074   7.453 -0.9480 -0.7392  0.7773
  147SAPE  H10R16188   0.981   2.172   7.504  0.7176  0.5950 -1.2365
  147SAPE  H10S16189   1.100   2.075   7.417 -1.3162 -0.3153 -0.3114
  147SAPE  C21116190   0.972   1.951   7.538  1.0724 -0.8570  0.5178
  147SAPE  H11R16191   1.033   1.863   7.511 -1.2225 -2.4025  0.2008
  147SAPE  C21216192   0.894   1.950   7.651  0.1515 -0.0373 -0.2801
  147SAPE  H12R16193   0.893   1.856   7.707  1.6055  0.0830 -0.0217
  147SAPE  C21316194   0.812   2.066   7.702 -0.4842  0.5520  0.1416
  147SAPE  H13R16195   0.756   2.124   7.626  0.1769  0.0526 -0.7373
  147SAPE  H13S16196   0.880   2.137   7.755 -1.2415 -0.4830  2.5637
  147SAPE  C21416197   0.712   2.008   7.797  0.3243  0.2427 -0.6067
  147SAPE  H14R16198   0.622   1.964   7.752  0.3105  1.0043 -1.3380
  147SAPE  C21516199   0.718   2.016   7.932 -0.0700  0.0856  0.4977
  147SAPE  H15R16200   0.636   1.965   7.984 -3.2088  2.7171 -1.6613
  147SAPE  C21616201   0.832   2.082   8.010  0.9886 -0.3604  1.0191
  147SAPE  H16R16202   0.860   2.173   7.952 -1.3697  1.1633  2.1956
  147SAPE  H16S16203   0.911   2.004   8.008  1.5432  0.2300 -1.7660
  147SAPE  C21716204   0.801   2.144   8.152 -0.3645 -0.3997  0.4738
  147SAPE  H17R16205   0.723   2.223   8.147  0.3850  0.2339 -2.0009
  147SAPE  H17S16206   0.896   2.189   8.188 -1.3245  1.9022  0.2061
  147SAPE  C21816207   0.765   2.039   8.256  0.9090  0.3285 -0.7176
  147SAPE  H18R16208   0.838   1.955   8.257 -0.6640 -1.0732 -1.3341
  147SAPE  H18S16209   0.670   1.986   8.237  1.7740 -1.1564 -1.0394
  147SAPE  C21916210   0.758   2.081   8.402 -0.2477  0.1092 -0.3259
  147SAPE  H19R16211   0.690   2.168   8.411 -1.0073 -0.7457  3.0603
  147SAPE  H19S16212   0.863   2.100   8.435 -0.2856 -1.3008  0.6551
  147SAPE  C22016213   0.710   1.966   8.491 -0.4365  0.4109  0.1277
  147SAPE  H20R16214   0.791   1.894   8.515 -2.5877 -2.3397 -0.6403
  147SAPE  H20S16215   0.619   1.916   8.453  0.7555 -2.2115  0.5802
  147SAPE  H20T16216   0.672   2.003   8.589  0.9821  0.3571  0.7184
  147SAPE   C3316217   1.302   2.349   7.156  0.8001 -0.0522  0.2169
  147SAPE   H3X16218   1.310   2.449   7.110 -0.5447  0.8307  1.8276
  147SAPE   H3Y16219   1.387   2.285   7.121  1.3273  1.0658 -0.5584
  147SAPE   C3416220   1.315   2.377   7.308  0.4959 -0.4912  0.4944
  147SAPE   H4X16221   1.222   2.414   7.356  1.0445  2.7915 -0.9001
  147SAPE   H4Y16222   1.391   2.453   7.334  1.2927 -1.2066  0.2891
  147SAPE   C3516223   1.361   2.254   7.379 -0.1115  0.4273 -0.7666
  147SAPE   H5X16224   1.459   2.212   7.349 -0.3016 -0.7458  0.1885
  147SAPE   H5Y16225   1.286   2.171   7.383  0.3220  0.0925  1.9093
  147SAPE   C3616226   1.380   2.277   7.534 -0.1304 -0.2290  1.1546
  147SAPE   H6X16227   1.423   2.378   7.547  0.5979 -0.3619 -0.2119
  147SAPE   H6Y16228   1.450   2.196   7.565 -0.2687 -0.9139 -0.3019
  147SAPE   C3716229   1.256   2.253   7.618  0.1380 -0.2114  0.6776
  147SAPE   H7X16230   1.218   2.149   7.608  0.2411  0.0214 -2.7749
  147SAPE   H7Y16231   1.175   2.309   7.567 -1.5953 -2.6288  0.7030
  147SAPE   C3816232   1.282   2.294   7.761 -0.3913  0.0652 -0.4201
  147SAPE   H8X16233   1.303   2.403   7.764  1.1262 -0.2453  1.7080
  147SAPE   H8Y16234   1.366   2.240   7.811 -1.3022  0.0609  1.1378
  147SAPE   C3916235   1.143   2.273   7.837  0.3843  0.2928  0.3717
  147SAPE   H9X16236   1.131   2.168   7.872 -1.8875  0.3114 -0.2569
  147SAPE   H9Y16237   1.064   2.271   7.758 -1.8803  2.2939  2.4916
  147SAPE  C31016238   1.101   2.378   7.945  0.1694  0.1258  0.1322
  147SAPE  H10X16239   0.994   2.359   7.971 -0.4567  1.4386 -1.4299
  147SAPE  H10Y16240   1.122   2.484   7.919  0.3823 -0.2378 -1.2128
  147SAPE  C31116241   1.189   2.351   8.069 -0.1287 -0.2361 -0.1784
  147SAPE  H11X16242   1.294   2.375   8.040 -0.1785  1.2927  0.8931
  147SAPE  H11Y16243   1.173   2.242   8.085  0.6981 -0.1497  1.2469
  147SAPE  C31216244   1.152   2.431   8.196  0.1638  0.1954 -0.3319
  147SAPE  H12X16245   1.044   2.411   8.210 -0.6074  3.4987 -1.1761
  147SAPE  H12Y16246   1.152   2.541   8.182  1.6952  0.1628 -0.6955
  147SAPE  C31316247   1.245   2.396   8.317  0.1054  0.0918  0.2067
  147SAPE  H13X16248   1.344   2.441   8.293  1.2969 -1.6099  1.7575
  147SAPE  H13Y16249   1.252   2.286   8.332  1.7661  0.1014 -0.3415
  147SAPE  C31416250   1.195   2.448   8.461 -0.2095  0.6202 -0.4485
  147SAPE  H14X16251   1.264   2.422   8.544 -0.1749 -2.7186 -1.4581
  147SAPE  H14Y16252   1.101   2.396   8.487 -0.1281  0.0114 -1.3316
  147SAPE  C31516253   1.162   2.596   8.468  0.7641  0.2740  0.6952
  147SAPE  H15X16254   1.116   2.630   8.373  0.3691  0.8786  1.1004
  147SAPE  H15Y16255   1.251   2.661   8.483  2.1957 -1.4162 -0.3504
  147SAPE  C31616256   1.077   2.630   8.592  0.5363 -0.8452  0.3416
  147SAPE  H16X16257   1.147   2.618   8.677  0.7140  0.6074  0.4063
  147SAPE  H16Y16258   0.993   2.558   8.603 -1.4997  1.9952  4.7937
  147SAPE  C31716259   1.018   2.770   8.604 -0.2127 -0.3985  0.2009
  147SAPE  H17X16260   0.915   2.786   8.565 -0.5989 -4.0101 -0.4956
  147SAPE  H17Y16261   1.080   2.846   8.552 -1.5488  0.5373 -0.0334
  147SAPE  C31816262   1.030   2.809   8.751 -0.0864 -0.5741 -0.3477
  147SAPE  H18X16263   0.981   2.728   8.809 -2.3767  0.7101 -0.4356
  147SAPE  H18Y16264   0.981   2.908   8.766  1.1730  0.0990 -0.5863
  147SAPE  H18Z16265   1.128   2.808   8.802 -1.3517 -1.6190  2.1284
  148SAPE     N16266   1.146   6.802   6.554 -0.3906 -0.1827 -0.0045
  148SAPE   HN116267   1.103   6.804   6.459 -0.3242  1.2262 -0.0060
  148SAPE   HN216268   1.233   6.745   6.560 -0.6691 -0.5191  1.0935
  148SAPE   HN316269   1.088   6.757   6.628 -0.8551  0.8441  0.2566
  148SAPE   C1216270   1.174   6.939   6.611 -0.0005  0.0417 -0.0349
  148SAPE  H12A16271   1.250   6.990   6.548  1.3583 -0.3503  1.2527
  148SAPE  H12B16272   1.216   6.922   6.712 -0.7514  1.7887  0.5835
  148SAPE   C1116273   1.047   7.025   6.629  0.6219  0.6851  0.5426
  148SAPE  H11A16274   1.058   7.118   6.689 -2.3135  0.0350  2.2192
  148SAPE  H11B16275   0.983   6.958   6.691 -2.5761  2.0846 -1.1659
  148SAPE     P16276   0.846   7.130   6.504 -0.1795 -0.3981  0.2854
  148SAPE   O1316277   0.879   7.272   6.521 -0.4170  0.5249  0.0788
  148SAPE   O1416278   0.766   7.096   6.384 -0.2091 -0.3271 -0.2225
  148SAPE   O1216279   0.983   7.054   6.504  0.2543  0.3322  0.0598
  148SAPE   O1116280   0.777   7.087   6.638  0.2904 -0.2066  0.1294
  148SAPE    C116281   0.735   7.184   6.736 -0.3360 -0.2139  0.0029
  148SAPE    HA16282   0.701   7.278   6.688 -0.7573 -0.7949 -0.8461
  148SAPE    HB16283   0.655   7.137   6.797 -0.4971 -1.4040 -1.0969
  148SAPE    C216284   0.836   7.228   6.848  0.2098  0.0892  0.7918
  148SAPE    HS16285   0.925   7.276   6.804  0.7556  0.2470  2.0438
  148SAPE   O2116286   0.869   7.107   6.917 -0.5012 -0.6717 -0.6355
  148SAPE   C2116287   0.990   7.106   6.966 -0.2322 -0.2479  0.1051
  148SAPE   O2216288   1.074   7.197   6.965 -0.2886  0.3317  0.4635
  148SAPE   C2216289   1.014   6.970   7.027  0.5428 -0.2424 -0.6470
  148SAPE   H2R16290   0.957   6.956   7.121 -0.2880 -2.0780 -1.4113
  148SAPE   H2S16291   0.986   6.889   6.957  1.0165 -0.5698 -0.4614
  148SAPE    C316292   0.768   7.335   6.938  0.0400  0.4442  0.4990
  148SAPE    HX16293   0.666   7.302   6.965 -1.1253  0.4184 -3.6821
  148SAPE    HY16294   0.757   7.432   6.885 -1.3432  1.2255  2.1850
  148SAPE   O3116295   0.845   7.337   7.061  0.6201  0.3299  0.4725
  148SAPE   C3116296   0.903   7.451   7.095  0.1124 -0.2618  0.1019
  148SAPE   O3216297   0.915   7.552   7.030  0.2499  0.1122 -0.6931
  148SAPE   C3216298   0.958   7.429   7.236 -0.2598  0.4651  0.1425
  148SAPE   H2X16299   0.978   7.532   7.272  0.0822  0.5094 -0.1739
  148SAPE   H2Y16300   1.062   7.390   7.228 -0.6649 -0.3167 -1.6491
  148SAPE   C2316301   1.163   6.943   7.047 -0.5815 -0.1401 -0.1010
  148SAPE   H3R16302   1.198   6.995   7.139 -1.9008 -0.4525  0.5954
  148SAPE   H3S16303   1.214   6.985   6.958  1.0652 -1.6023  0.1374
  148SAPE   C2416304   1.193   6.796   7.062  0.1962  0.8408  0.0317
  148SAPE   H4R16305   1.301   6.770   7.062  0.0648  0.0378 -2.9824
  148SAPE   H4S16306   1.166   6.750   6.964  0.5933 -0.3441  0.4656
  148SAPE   C2516307   1.124   6.711   7.170  0.6952 -0.6259 -0.2524
  148SAPE   H5R16308   1.026   6.672   7.142 -0.0125  0.7572  0.2502
  148SAPE   C2616309   1.163   6.683   7.294 -0.0957  0.4084  0.3091
  148SAPE   H6R16310   1.102   6.618   7.358  0.0625 -1.0011 -0.9284
  148SAPE   C2716311   1.291   6.724   7.360 -0.1554 -0.5019  0.3697
  148SAPE   H7R16312   1.260   6.787   7.446  0.4982  1.9734 -1.1548
  148SAPE   H7S16313   1.354   6.785   7.291  1.4520 -0.0205  2.2347
  148SAPE   C2816314   1.378   6.612   7.415  0.1704 -0.1943  0.1255
  148SAPE   H8R16315   1.363   6.520   7.356 -1.0154  1.1769 -1.8014
  148SAPE   C2916316   1.456   6.617   7.520  0.1372  0.1077 -0.4509
  148SAPE   H9R16317   1.513   6.524   7.536 -1.5693 -0.9087 -0.2388
  148SAPE  C21016318   1.481   6.725   7.621  0.5765  0.4584  1.2451
  148SAPE  H10R16319   1.390   6.744   7.682  0.7822  0.6126  1.5041
  148SAPE  H10S16320   1.495   6.822   7.569  0.4573 -0.2483 -0.1259
  148SAPE  C21116321   1.603   6.704   7.710 -0.5214  0.0711 -0.5659
  148SAPE  H11R16322   1.704   6.717   7.668 -0.8055  0.2160 -1.2056
  148SAPE  C21216323   1.601   6.697   7.846 -0.4982  0.2109  0.0218
  148SAPE  H12R16324   1.695   6.667   7.894  0.0343  0.6070 -0.7681
  148SAPE  C21316325   1.482   6.708   7.943  0.0478  0.5541  0.1950
  148SAPE  H13R16326   1.435   6.802   7.908  1.4100  1.0563 -0.2954
  148SAPE  H13S16327   1.508   6.729   8.049 -0.1559  0.3836  0.2795
  148SAPE  C21416328   1.380   6.593   7.950  0.3875 -0.1011 -0.7829
  148SAPE  H14R16329   1.409   6.498   7.902 -0.2525 -1.2819  1.1040
  148SAPE  C21516330   1.260   6.609   8.005  0.5000  0.4973 -0.4484
  148SAPE  H15R16331   1.186   6.529   7.989  0.0625  0.7354  0.3678
  148SAPE  C21616332   1.199   6.732   8.058 -0.2531  0.6244  0.0821
  148SAPE  H16R16333   1.267   6.820   8.052  0.6073  0.0620  1.3321
  148SAPE  H16S16334   1.178   6.723   8.167  0.9819 -0.6512  0.2283
  148SAPE  C21716335   1.065   6.776   7.986 -0.1199  0.1541 -0.6338
  148SAPE  H17R16336   1.023   6.868   8.032  0.7743  0.9695 -1.3879
  148SAPE  H17S16337   0.992   6.696   8.007  1.3872 -1.2433 -0.5963
  148SAPE  C21816338   1.087   6.785   7.834  0.2444  0.0653 -0.2353
  148SAPE  H18R16339   1.143   6.699   7.792  0.8747 -0.2788  1.2727
  148SAPE  H18S16340   1.148   6.875   7.809  0.7886  0.0251  0.9004
  148SAPE  C21916341   0.956   6.802   7.764 -0.0654 -0.2959 -0.4266
  148SAPE  H19R16342   0.901   6.893   7.797 -1.8595 -2.4092  2.7293
  148SAPE  H19S16343   0.893   6.712   7.779  0.1182 -0.5338 -1.0486
  148SAPE  C22016344   0.985   6.802   7.612 -1.0973  0.3460  0.2790
  148SAPE  H20R16345   0.888   6.802   7.558 -1.8847  0.7712  1.6767
  148SAPE  H20S16346   1.053   6.719   7.585  0.3978  1.5151  0.3604
  148SAPE  H20T16347   1.027   6.903   7.589 -2.0705  0.8325  0.6164
  148SAPE   C3316348   0.864   7.352   7.343 -0.9719 -0.9852 -0.4642
  148SAPE   H3X16349   0.864   7.242   7.326 -0.2393 -1.2443  1.1134
  148SAPE   H3Y16350   0.760   7.386   7.327 -0.8878 -0.9561 -0.9448
  148SAPE   C3416351   0.915   7.394   7.476  0.2075 -0.4534 -0.1458
  148SAPE   H4X16352   0.881   7.498   7.494 -0.4647 -0.6914 -0.0403
  148SAPE   H4Y16353   1.026   7.392   7.484  0.1791 -0.5205  0.2503
  148SAPE   C3516354   0.847   7.305   7.582 -0.1577 -0.1801 -0.0715
  148SAPE   H5X16355   0.863   7.198   7.558 -1.0829  0.3093 -2.9794
  148SAPE   H5Y16356   0.738   7.327   7.584  0.0099  0.6282  0.4831
  148SAPE   C3616357   0.902   7.330   7.722  0.8047 -0.2577 -0.5004
  148SAPE   H6X16358   0.878   7.436   7.748  3.5148 -0.0831  1.5092
  148SAPE   H6Y16359   1.013   7.327   7.721  0.8338 -1.2212  1.6896
  148SAPE   C3716360   0.853   7.229   7.827 -0.2962 -0.0028  0.1456
  148SAPE   H7X16361   0.884   7.125   7.802 -2.7840 -0.9681  1.0006
  148SAPE   H7Y16362   0.744   7.246   7.835  0.1341  3.8262 -0.8569
  148SAPE   C3816363   0.906   7.263   7.961  0.6705 -0.6476  0.2487
  148SAPE   H8X16364   0.843   7.216   8.039  0.2321 -1.3082 -0.5064
  148SAPE   H8Y16365   0.908   7.371   7.986  0.0034 -0.3952 -0.7665
  148SAPE   C3916366   1.046   7.200   7.989  0.0461  0.5536  0.3860
  148SAPE   H9X16367   1.106   7.256   7.914 -2.6489  1.5507 -1.0947
  148SAPE   H9Y16368   1.048   7.091   7.968  1.3805  1.0422 -2.2607
  148SAPE  C31016369   1.091   7.230   8.135  0.2631 -0.5742  0.0569
  148SAPE  H10X16370   1.041   7.160   8.205  0.5583 -1.0601 -0.2205
  148SAPE  H10Y16371   1.077   7.338   8.159 -1.9066 -0.6333 -0.8994
  148SAPE  C31116372   1.242   7.210   8.163 -0.9996  0.0561 -0.3199
  148SAPE  H11X16373   1.254   7.226   8.272  2.3648  3.8569 -1.0977
  148SAPE  H11Y16374   1.306   7.287   8.114 -1.9832 -0.9064 -3.1962
  148SAPE  C31216375   1.296   7.069   8.124  0.2028  0.8405  0.0850
  148SAPE  H12X16376   1.286   7.062   8.013 -3.2409 -0.0188  0.3914
  148SAPE  H12Y16377   1.219   6.996   8.159 -1.7357  2.5383 -0.5285
  148SAPE  C31316378   1.444   7.041   8.159  0.4220  0.3463  0.4920
  148SAPE  H13X16379   1.501   7.129   8.123  0.0607 -0.2326 -1.5276
  148SAPE  H13Y16380   1.465   6.948   8.101 -1.8745 -0.9505  1.6614
  148SAPE  C31416381   1.470   7.036   8.306  0.3264  0.9237  0.0943
  148SAPE  H14X16382   1.407   6.954   8.346 -2.5300  3.2912  0.6427
  148SAPE  H14Y16383   1.435   7.130   8.354  0.7274  1.1012  0.0457
  148SAPE  C31516384   1.619   7.008   8.332  0.3184 -0.5383 -0.1029
  148SAPE  H15X16385   1.676   7.084   8.276  1.7410 -1.2929  0.3054
  148SAPE  H15Y16386   1.650   6.908   8.294  1.1363 -0.8122  1.2514
  148SAPE  C31616387   1.650   7.007   8.482 -0.2611 -0.4696 -0.1718
  148SAPE  H16X16388   1.759   6.994   8.498  0.3285  2.5817 -1.5202
  148SAPE  H16Y16389   1.584   6.929   8.527  0.3774 -1.4245 -0.8916
  148SAPE  C31716390   1.607   7.133   8.558 -0.1677 -0.2274  0.1801
  148SAPE  H17X16391   1.615   7.108   8.666 -1.5841 -3.6946 -0.4659
  148SAPE  H17Y16392   1.502   7.166   8.548  0.7071  2.5256 -0.2533
  148SAPE  C31816393   1.702   7.247   8.523  0.2372  0.1523 -0.2556
  148SAPE  H18X16394   1.684   7.330   8.594  2.3412 -0.2228  0.7688
  148SAPE  H18Y16395   1.680   7.281   8.420  1.3924  0.7267 -0.3253
  148SAPE  H18Z16396   1.808   7.212   8.530 -0.6118 -2.1552  1.6196
  149SAPE     N16397   1.073   1.144   6.217 -0.4091  0.0877 -0.1113
  149SAPE   HN116398   1.111   1.192   6.301 -0.1472 -0.8616  0.3164
  149SAPE   HN216399   1.117   1.050   6.210  1.0941  0.8407 -0.9471
  149SAPE   HN316400   1.108   1.200   6.137 -2.4386 -0.1498 -1.2006
  149SAPE   C1216401   0.927   1.145   6.234  0.2503  0.1577  0.6172
  149SAPE  H12A16402   0.887   1.089   6.322 -1.0806 -0.2903 -0.2532
  149SAPE  H12B16403   0.877   1.101   6.145 -0.5613  0.6030  0.8500
  149SAPE   C1116404   0.875   1.285   6.262 -0.2396 -0.2901 -0.4252
  149SAPE  H11A16405   0.931   1.357   6.199  0.0530  1.2337  1.5124
  149SAPE  H11B16406   0.889   1.306   6.370  0.3100 -0.2735 -0.4960
  149SAPE     P16407   0.618   1.255   6.315 -0.2562  0.0260  0.2262
  149SAPE   O1316408   0.495   1.303   6.252  0.2962 -0.9445 -0.3100
  149SAPE   O1416409   0.626   1.110   6.345  0.6528 -0.2414 -0.0122
  149SAPE   O1216410   0.739   1.303   6.222  1.0978  0.1008 -0.1502
  149SAPE   O1116411   0.637   1.340   6.444  0.0637  0.2122 -0.5026
  149SAPE    C116412   0.514   1.386   6.515 -0.1846 -0.4261  0.1177
  149SAPE    HA16413   0.515   1.496   6.529 -1.9492 -0.1430 -1.6807
  149SAPE    HB16414   0.420   1.375   6.456 -0.7687  1.0228  0.7341
  149SAPE    C216415   0.483   1.318   6.648 -0.7484 -0.4163  0.1467
  149SAPE    HS16416   0.382   1.353   6.679 -1.1463 -0.6271 -0.9084
  149SAPE   O2116417   0.579   1.362   6.748  0.3542 -0.5733 -0.3224
  149SAPE   C2116418   0.556   1.485   6.792  0.4258 -0.2812  0.8578
  149SAPE   O2216419   0.461   1.553   6.769  0.4159 -0.1160  0.4814
  149SAPE   C2216420   0.664   1.520   6.892  0.2772  0.4072 -0.0949
  149SAPE   H2R16421   0.762   1.524   6.840  0.5725  2.2113  0.5780
  149SAPE   H2S16422   0.647   1.624   6.928 -1.1273 -0.0337  0.5613
  149SAPE    C316423   0.492   1.164   6.641 -0.4656 -0.3349  0.6726
  149SAPE    HX16424   0.603   1.151   6.637 -0.5225 -0.2821 -1.9111
  149SAPE    HY16425   0.444   1.125   6.549  2.2538 -0.6141 -0.6880
  149SAPE   O3116426   0.424   1.110   6.754  0.3409  0.1848 -0.5270
  149SAPE   C3116427   0.472   0.992   6.798  0.2185 -0.8951  1.3322
  149SAPE   O3216428   0.544   0.918   6.734 -0.3151  0.7545 -0.5576
  149SAPE   C3216429   0.417   0.974   6.940  0.4299 -0.2798  0.4419
  149SAPE   H2X16430   0.312   0.943   6.918  1.5126 -2.4424 -1.9013
  149SAPE   H2Y16431   0.441   1.068   6.994  0.2201  0.7263 -1.1891
  149SAPE   C2316432   0.681   1.423   7.018 -0.6209  0.1958  1.1530
  149SAPE   H3R16433   0.780   1.442   7.065 -0.0339 -2.8644  1.3042
  149SAPE   H3S16434   0.695   1.320   6.979 -0.0787 -0.2229  2.4113
  149SAPE   C2416435   0.578   1.449   7.130 -0.0697  0.2314 -0.4939
  149SAPE   H4R16436   0.473   1.427   7.099 -0.0966 -0.1133 -0.1632
  149SAPE   H4S16437   0.579   1.554   7.165 -0.7432 -0.2820  1.0879
  149SAPE   C2516438   0.599   1.360   7.249 -0.2286 -0.5424  1.0512
  149SAPE   H5R16439   0.581   1.252   7.237 -1.4644 -0.0225 -2.2523
  149SAPE   C2616440   0.640   1.410   7.366 -0.1445  0.3498 -0.1939
  149SAPE   H6R16441   0.633   1.344   7.454 -1.2466  1.0767  0.2627
  149SAPE   C2716442   0.678   1.557   7.406  0.7526 -0.2849 -0.1210
  149SAPE   H7R16443   0.620   1.598   7.491  1.5708  0.1750  0.2145
  149SAPE   H7S16444   0.667   1.624   7.318 -0.3210 -0.5522 -0.1989
  149SAPE   C2816445   0.821   1.559   7.452 -0.2779  0.0243  0.2133
  149SAPE   H8R16446   0.898   1.543   7.375 -0.9932 -1.6408 -0.1765
  149SAPE   C2916447   0.861   1.556   7.585  0.8496  0.3198  0.4658
  149SAPE   H9R16448   0.968   1.557   7.612  0.5023  0.6502  1.8769
  149SAPE  C21016449   0.782   1.563   7.715  0.1591 -0.6621  0.4213
  149SAPE  H10R16450   0.675   1.539   7.695  0.0086  0.8011 -0.5803
  149SAPE  H10S16451   0.775   1.663   7.761 -0.1851 -0.4296 -0.1229
  149SAPE  C21116452   0.841   1.468   7.809 -0.1464  0.9415 -0.1369
  149SAPE  H11R16453   0.847   1.365   7.771  4.2369  0.5688  1.2363
  149SAPE  C21216454   0.883   1.481   7.936 -0.5943  0.4091 -0.0105
  149SAPE  H12R16455   0.920   1.395   7.994 -1.0993 -0.8100 -1.4557
  149SAPE  C21316456   0.880   1.617   8.002 -0.3136  0.1362  0.5015
  149SAPE  H13R16457   0.859   1.701   7.932 -3.4337 -0.5141  0.5527
  149SAPE  H13S16458   0.979   1.634   8.049 -0.6808  2.1055  0.5938
  149SAPE  C21416459   0.776   1.637   8.108 -0.1653  0.3463  0.0882
  149SAPE  H14R16460   0.680   1.667   8.064  0.7984  1.3610 -1.3496
  149SAPE  C21516461   0.788   1.626   8.243 -0.5511  0.3548 -0.2011
  149SAPE  H15R16462   0.700   1.644   8.306 -1.2740  0.6810 -1.2918
  149SAPE  C21616463   0.909   1.583   8.322 -0.3737 -0.5042  0.1070
  149SAPE  H16R16464   0.943   1.673   8.378 -1.3819 -0.3275  0.4470
  149SAPE  H16S16465   0.996   1.549   8.262 -0.6029  0.9901 -1.0978
  149SAPE  C21716466   0.898   1.471   8.422 -0.0891 -0.2039  0.1833
  149SAPE  H17R16467   1.001   1.441   8.452 -0.1533  0.1093  0.7209
  149SAPE  H17S16468   0.858   1.381   8.370 -1.4771  0.7758 -0.4814
  149SAPE  C21816469   0.812   1.497   8.548 -0.0545 -0.6148 -0.1781
  149SAPE  H18R16470   0.801   1.398   8.599 -1.0549 -0.4507 -0.0805
  149SAPE  H18S16471   0.707   1.515   8.516  1.0238  0.9831 -2.9749
  149SAPE  C21916472   0.864   1.591   8.650  0.0722  0.6477 -0.1339
  149SAPE  H19R16473   0.911   1.670   8.588  0.0049  1.4162  0.7773
  149SAPE  H19S16474   0.937   1.533   8.710  1.2598 -1.1426 -3.2323
  149SAPE  C22016475   0.752   1.653   8.737 -0.2177  0.0305  0.1707
  149SAPE  H20R16476   0.808   1.716   8.810  2.0392 -0.0571 -1.4467
  149SAPE  H20S16477   0.695   1.574   8.790  1.2117 -1.3668 -0.3760
  149SAPE  H20T16478   0.680   1.721   8.685 -0.0173 -0.7634 -1.1466
  149SAPE   C3316479   0.485   0.863   7.020  0.1076  0.0604 -0.0872
  149SAPE   H3X16480   0.592   0.872   7.047 -0.1162  0.6413  0.6518
  149SAPE   H3Y16481   0.474   0.767   6.966  0.4232  0.2832 -0.5538
  149SAPE   C3416482   0.405   0.853   7.155 -0.3857 -0.1558  0.0680
  149SAPE   H4X16483   0.296   0.849   7.136  0.0396 -0.0882 -2.5372
  149SAPE   H4Y16484   0.423   0.930   7.233 -0.7046  2.0491 -2.0192
  149SAPE   C3516485   0.435   0.719   7.228  0.1492  0.1203  0.8388
  149SAPE   H5X16486   0.544   0.730   7.244  0.3621 -1.3419  0.5217
  149SAPE   H5Y16487   0.428   0.632   7.159 -1.7187  0.9360 -0.0189
  149SAPE   C3616488   0.363   0.685   7.368  0.5391  0.8146  0.1560
  149SAPE   H6X16489   0.282   0.612   7.346  0.6238  0.5403  0.7358
  149SAPE   H6Y16490   0.314   0.774   7.413 -2.9703 -0.4287 -1.0996
  149SAPE   C3716491   0.457   0.642   7.481  0.6921  0.1292  0.1915
  149SAPE   H7X16492   0.515   0.732   7.511  0.2656  0.0041  1.4317
  149SAPE   H7Y16493   0.517   0.559   7.437  2.8463  1.8570 -0.2226
  149SAPE   C3816494   0.381   0.606   7.605  0.3562  0.2560 -0.1062
  149SAPE   H8X16495   0.332   0.510   7.579  0.8238 -0.3187  1.1120
  149SAPE   H8Y16496   0.312   0.690   7.627  1.3743  0.9458  0.5282
  149SAPE   C3916497   0.470   0.591   7.733  0.0017 -0.9134  0.5845
  149SAPE   H9X16498   0.554   0.661   7.717 -1.0574  0.4755  1.0135
  149SAPE   H9Y16499   0.514   0.489   7.728  1.5648 -0.2205 -0.0246
  149SAPE  C31016500   0.408   0.619   7.871  0.0815 -0.1735 -0.1142
  149SAPE  H10X16501   0.312   0.563   7.875  0.8867 -1.5298  0.6812
  149SAPE  H10Y16502   0.378   0.726   7.866 -0.5959 -0.3885 -0.9797
  149SAPE  C31116503   0.494   0.583   7.989  0.0865  0.5553  0.4309
  149SAPE  H11X16504   0.599   0.599   7.954 -0.0810 -2.1290 -1.5047
  149SAPE  H11Y16505   0.479   0.474   8.008  0.5031  0.2373 -1.0094
  149SAPE  C31216506   0.448   0.659   8.118  0.2716  0.2338  0.8082
  149SAPE  H12X16507   0.349   0.622   8.151  0.0163  0.6994  0.5739
  149SAPE  H12Y16508   0.432   0.767   8.095 -1.3555 -0.0462  0.5700
  149SAPE  C31316509   0.558   0.650   8.223 -0.0527 -0.4602 -0.2533
  149SAPE  H13X16510   0.514   0.678   8.322  1.0764  0.4864 -0.0210
  149SAPE  H13Y16511   0.636   0.727   8.207 -0.5748  0.1233 -0.0031
  149SAPE  C31416512   0.616   0.508   8.233 -0.1134 -0.0302 -0.5927
  149SAPE  H14X16513   0.673   0.492   8.139 -0.5538  0.1694 -0.8930
  149SAPE  H14Y16514   0.536   0.431   8.244 -1.8013  2.1397  3.0710
  149SAPE  C31516515   0.711   0.492   8.356  0.7833 -0.1922  0.2108
  149SAPE  H15X16516   0.750   0.388   8.360 -0.6788 -0.7082  1.5212
  149SAPE  H15Y16517   0.651   0.527   8.443  0.5525 -3.0171  1.2347
  149SAPE  C31616518   0.831   0.588   8.355  0.0103 -0.1906 -0.4242
  149SAPE  H16X16519   0.792   0.691   8.342  1.4506  0.1063 -2.6303
  149SAPE  H16Y16520   0.894   0.560   8.268  0.6215 -0.1136 -0.0122
  149SAPE  C31716521   0.920   0.589   8.486  0.7567  0.1214 -0.4267
  149SAPE  H17X16522   0.960   0.488   8.510  1.3844  0.6958  0.9512
  149SAPE  H17Y16523   0.844   0.608   8.565  1.1299 -1.8452  0.4334
  149SAPE  C31816524   1.016   0.703   8.496  0.9959  0.4311  0.5881
  149SAPE  H18X16525   1.113   0.695   8.442  0.5627  0.7336 -0.2411
  149SAPE  H18Y16526   1.036   0.712   8.604 -4.1889  0.0977  1.7194
  149SAPE  H18Z16527   0.964   0.798   8.471  1.2355 -0.0358 -1.8009
  150SAPE     N16528   6.661   2.345   6.152 -0.0115 -0.3565 -0.2882
  150SAPE   HN116529   6.600   2.305   6.077 -2.3016  0.0663  1.3032
  150SAPE   HN216530   6.606   2.408   6.213 -1.0807  0.2425 -1.8342
  150SAPE   HN316531   6.742   2.388   6.104  0.0546  0.1541  0.2860
  150SAPE   C1216532   6.717   2.224   6.232  0.5399 -0.1715  0.0830
  150SAPE  H12A16533   6.828   2.229   6.228  0.6644 -2.2807  0.6772
  150SAPE  H12B16534   6.681   2.130   6.186  2.7723 -0.8071 -0.4270
  150SAPE   C1116535   6.671   2.243   6.377  0.4536 -0.4830 -0.0279
  150SAPE  H11A16536   6.693   2.347   6.408  0.0171 -0.5704  0.5804
  150SAPE  H11B16537   6.734   2.174   6.437 -0.9640 -0.6857  1.2570
  150SAPE     P16538   6.416   2.314   6.411 -0.2071 -0.1183  0.3884
  150SAPE   O1316539   6.456   2.426   6.324  0.3491 -0.5112 -0.5300
  150SAPE   O1416540   6.292   2.242   6.386  0.1970  0.0609  0.0795
  150SAPE   O1216541   6.529   2.214   6.394 -0.0337 -0.3848  0.5520
  150SAPE   O1116542   6.424   2.349   6.562  0.3045 -0.2320  0.7634
  150SAPE    C116543   6.400   2.248   6.667  0.0140  0.3689  1.0473
  150SAPE    HA16544   6.418   2.144   6.632 -1.6219  0.5181 -0.2986
  150SAPE    HB16545   6.482   2.265   6.741  1.2451 -2.7031  0.4507
  150SAPE    C216546   6.257   2.255   6.726  0.4685  0.5387  0.3490
  150SAPE    HS16547   6.180   2.246   6.646  0.0865  2.3627  0.4992
  150SAPE   O2116548   6.238   2.383   6.794  0.0104  0.8662  0.4012
  150SAPE   C2116549   6.129   2.403   6.854 -0.2342 -0.2239  0.0827
  150SAPE   O2216550   6.022   2.347   6.836 -0.6081 -0.0414 -0.2471
  150SAPE   C2216551   6.156   2.533   6.935 -0.3298 -0.0411 -0.4822
  150SAPE   H2R16552   6.262   2.525   6.969  0.1456  1.0561 -1.6471
  150SAPE   H2S16553   6.158   2.617   6.862 -2.1403  1.7849  1.5020
  150SAPE    C316554   6.237   2.130   6.820  0.6470  0.0939  0.0344
  150SAPE    HX16555   6.294   2.051   6.765  1.0691  0.1601  0.3701
  150SAPE    HY16556   6.133   2.096   6.835  0.4547  1.1581  1.2023
  150SAPE   O3116557   6.285   2.160   6.957 -0.1459 -0.2895  0.1813
  150SAPE   C3116558   6.276   2.072   7.052  0.3773 -0.9834  0.0179
  150SAPE   O3216559   6.219   1.968   7.038  0.2532 -0.5462 -0.0148
  150SAPE   C3216560   6.327   2.129   7.181  0.4319  0.3745 -0.5094
  150SAPE   H2X16561   6.277   2.226   7.201  2.0571  0.7609  1.8030
  150SAPE   H2Y16562   6.434   2.155   7.169  0.7391 -0.7072 -0.1890
  150SAPE   C2316563   6.051   2.543   7.041  0.4843  0.3065 -0.1949
  150SAPE   H3R16564   6.063   2.454   7.107  4.1392  1.6488  1.0679
  150SAPE   H3S16565   5.945   2.552   7.008  0.5839 -0.5765 -0.7970
  150SAPE   C2416566   6.070   2.675   7.106 -0.0731  0.0566 -0.0372
  150SAPE   H4R16567   5.977   2.708   7.157 -0.3867 -0.3613 -0.3440
  150SAPE   H4S16568   6.084   2.759   7.034 -1.8901  0.5772  0.1916
  150SAPE   C2516569   6.188   2.682   7.200 -0.2164 -0.2690 -0.4654
  150SAPE   H5R16570   6.284   2.713   7.156  0.9765  0.4087  2.4891
  150SAPE   C2616571   6.183   2.674   7.336  0.1893 -1.2013  0.0469
  150SAPE   H6R16572   6.279   2.670   7.390 -0.9925  0.4922  2.3638
  150SAPE   C2716573   6.066   2.659   7.424  0.5582 -0.5603 -0.5263
  150SAPE   H7R16574   6.060   2.565   7.481 -1.6196 -0.1558 -0.0743
  150SAPE   H7S16575   5.974   2.671   7.363 -0.1044 -2.2186  0.1386
  150SAPE   C2816576   6.048   2.790   7.499 -0.2967  0.6118  0.0107
  150SAPE   H8R16577   6.021   2.880   7.442 -0.2237  0.5140 -0.1791
  150SAPE   C2916578   6.085   2.809   7.632  0.3095 -0.0421 -0.1837
  150SAPE   H9R16579   6.082   2.910   7.675 -1.7156 -0.5462  0.8742
  150SAPE  C21016580   6.140   2.711   7.726 -0.1056 -0.2314 -0.3512
  150SAPE  H10R16581   6.234   2.747   7.773  1.4709 -0.7454 -3.0344
  150SAPE  H10S16582   6.161   2.623   7.661 -3.1679  0.2491 -2.1125
  150SAPE  C21116583   6.036   2.675   7.828  0.2659 -0.9995 -0.1831
  150SAPE  H11R16584   5.956   2.613   7.785 -1.4681  0.6625  0.5965
  150SAPE  C21216585   6.042   2.707   7.963  0.5615 -0.1501  0.1086
  150SAPE  H12R16586   5.958   2.693   8.032 -1.8039  1.5886 -2.2711
  150SAPE  C21316587   6.155   2.791   8.027 -0.5060  0.9247 -0.4661
  150SAPE  H13R16588   6.142   2.900   8.016 -0.3355  0.9062 -0.8555
  150SAPE  H13S16589   6.247   2.773   7.968 -1.0215 -3.2216 -0.1653
  150SAPE  C21416590   6.175   2.751   8.169 -0.2146 -0.0537  0.1649
  150SAPE  H14R16591   6.263   2.687   8.182 -0.8699 -0.9433  0.2285
  150SAPE  C21516592   6.117   2.813   8.275 -0.1251  0.1818 -0.4409
  150SAPE  H15R16593   6.136   2.792   8.381 -0.0883  1.1099 -0.2642
  150SAPE  C21616594   6.012   2.919   8.269 -0.3287  0.2868 -0.0313
  150SAPE  H16R16595   5.958   2.929   8.173  1.1953  2.1328 -0.7194
  150SAPE  H16S16596   6.060   3.017   8.286 -1.4433  0.8186  0.0647
  150SAPE  C21716597   5.898   2.906   8.371 -1.0376  0.7350 -0.0675
  150SAPE  H17R16598   5.941   2.895   8.473  3.3320  1.2988 -1.7519
  150SAPE  H17S16599   5.847   2.810   8.351 -0.9592  0.6113  0.3258
  150SAPE  C21816600   5.816   3.034   8.376 -0.6302  0.2797  0.0624
  150SAPE  H18R16601   5.723   3.004   8.429 -0.1890 -0.6712  0.3111
  150SAPE  H18S16602   5.788   3.067   8.274 -2.7274  1.3433  0.9673
  150SAPE  C21916603   5.882   3.157   8.437  0.3737  0.4355  0.1501
  150SAPE  H19R16604   5.967   3.195   8.376 -1.2968  0.1284 -2.4623
  150SAPE  H19S16605   5.930   3.127   8.533  1.0822 -2.0184 -0.9335
  150SAPE  C22016606   5.784   3.274   8.460 -0.2567 -0.0370 -0.7616
  150SAPE  H20R16607   5.686   3.233   8.490  0.2924 -0.3398  0.6578
  150SAPE  H20S16608   5.770   3.329   8.365 -0.3434 -0.9967 -1.3088
  150SAPE  H20T16609   5.833   3.327   8.545  0.9486 -1.6150 -0.4450
  150SAPE   C3316610   6.313   2.034   7.295  0.2134  0.2466 -0.1397
  150SAPE   H3X16611   6.363   2.069   7.387  0.6938  2.1998 -1.1055
  150SAPE   H3Y16612   6.367   1.940   7.268  1.0526  0.3383  1.2278
  150SAPE   C3416613   6.167   2.003   7.337 -0.0786  0.2413  0.1702
  150SAPE   H4X16614   6.112   1.976   7.244 -2.5650 -1.4507  2.0628
  150SAPE   H4Y16615   6.121   2.095   7.380 -0.6751  0.6369 -1.2678
  150SAPE   C3516616   6.152   1.890   7.441  0.2918  0.3497 -0.1308
  150SAPE   H5X16617   6.207   1.801   7.405 -0.6734 -0.2889 -0.0476
  150SAPE   H5Y16618   6.044   1.862   7.445  0.5225 -0.6736 -0.8877
  150SAPE   C3616619   6.199   1.943   7.569  0.3615  0.0927  0.3727
  150SAPE   H6X16620   6.131   2.028   7.588  0.8006  0.3591  0.7508
  150SAPE   H6Y16621   6.297   1.994   7.565  0.5724 -0.2733  0.7085
  150SAPE   C3716622   6.200   1.825   7.682  0.4364  0.0989  0.7769
  150SAPE   H7X16623   6.244   1.735   7.634 -0.6549  1.5684 -3.2172
  150SAPE   H7Y16624   6.094   1.794   7.693 -0.4196  2.3883 -0.5816
  150SAPE   C3816625   6.268   1.867   7.815  0.2711  0.4091  0.0176
  150SAPE   H8X16626   6.251   1.974   7.839 -1.0650  0.2004 -0.0003
  150SAPE   H8Y16627   6.377   1.849   7.804  0.0383 -1.3772  0.5250
  150SAPE   C3916628   6.223   1.784   7.930  0.4259  0.0131  0.0354
  150SAPE   H9X16629   6.221   1.676   7.903  2.9554  0.1359 -0.8176
  150SAPE   H9Y16630   6.118   1.800   7.963  0.3651 -1.0272  0.3606
  150SAPE  C31016631   6.303   1.795   8.058 -0.7347 -0.6201 -0.6012
  150SAPE  H10X16632   6.284   1.898   8.097  0.3582 -1.4006  2.0938
  150SAPE  H10Y16633   6.412   1.786   8.039 -0.5103 -0.7433  0.6935
  150SAPE  C31116634   6.275   1.685   8.157 -0.3363 -0.4277  0.0158
  150SAPE  H11X16635   6.306   1.594   8.102  0.1989 -0.9870  1.2282
  150SAPE  H11Y16636   6.169   1.685   8.191 -0.2019 -1.0555  0.4340
  150SAPE  C31216637   6.365   1.715   8.272  0.2766 -0.0386 -0.1648
  150SAPE  H12X16638   6.332   1.806   8.327 -3.1536 -1.4578  0.2607
  150SAPE  H12Y16639   6.469   1.723   8.233  0.2133  1.6833 -0.0215
  150SAPE  C31316640   6.356   1.605   8.384  0.1966 -0.8518  0.3071
  150SAPE  H13X16641   6.377   1.502   8.348 -1.5306 -0.8390 -0.8219
  150SAPE  H13Y16642   6.257   1.608   8.435  0.2864 -1.1072  0.4933
  150SAPE  C31416643   6.456   1.631   8.495 -0.9226  0.3304 -0.2704
  150SAPE  H14X16644   6.440   1.736   8.529  0.7325  1.0757 -1.7024
  150SAPE  H14Y16645   6.562   1.629   8.462 -0.3580 -1.5295  1.5460
  150SAPE  C31516646   6.449   1.537   8.617  0.5977 -0.0743  0.3349
  150SAPE  H15X16647   6.477   1.437   8.577 -0.7355 -0.3351  0.0379
  150SAPE  H15Y16648   6.343   1.541   8.650  1.1253  0.9343  1.9448
  150SAPE  C31616649   6.549   1.566   8.723  0.7211  0.6853 -0.1939
  150SAPE  H16X16650   6.528   1.671   8.753  2.0001  0.8971 -0.0160
  150SAPE  H16Y16651   6.651   1.543   8.684 -0.7461 -0.2050 -3.7209
  150SAPE  C31716652   6.530   1.490   8.857  0.9043 -0.3279 -0.2028
  150SAPE  H17X16653   6.541   1.380   8.841  0.9680 -0.2871 -0.4392
  150SAPE  H17Y16654   6.429   1.507   8.899  0.9329 -1.9989  0.5997
  150SAPE  C31816655   6.641   1.537   8.952  0.2826  0.2551  0.9285
  150SAPE  H18X16656   6.652   1.648   8.951  0.5139  0.2567  2.3137
  150SAPE  H18Y16657   6.740   1.498   8.918 -0.5459 -0.4401 -0.7727
  150SAPE  H18Z16658   6.622   1.508   9.057  1.4652  0.4146  1.1940
  151SAPE     N16659   2.154   6.093   6.201 -0.1291 -0.4048 -0.1459
  151SAPE   HN116660   2.151   6.142   6.110  1.3255 -1.8120 -0.9623
  151SAPE   HN216661   2.204   6.006   6.178  1.3490  0.5803 -0.7220
  151SAPE   HN316662   2.054   6.079   6.226  0.0148 -1.9373 -0.4135
  151SAPE   C1216663   2.213   6.189   6.304 -0.8540 -0.2657  0.4061
  151SAPE  H12A16664   2.225   6.137   6.401 -1.4554  1.2218  1.3008
  151SAPE  H12B16665   2.140   6.270   6.327  1.2416  1.7607  0.1258
  151SAPE   C1116666   2.349   6.245   6.262  0.5985 -0.3485  0.0955
  151SAPE  H11A16667   2.412   6.157   6.238 -1.0147 -1.6290  0.4479
  151SAPE  H11B16668   2.398   6.301   6.344 -3.1092  1.5170  1.1547
  151SAPE     P16669   2.269   6.464   6.153  0.2000 -0.5308 -0.0601
  151SAPE   O1316670   2.319   6.544   6.042  0.6157  0.1649 -0.0852
  151SAPE   O1416671   2.125   6.449   6.166  0.2112  0.4989 -0.3891
  151SAPE   O1216672   2.333   6.319   6.146  0.3961  0.2864  0.3623
  151SAPE   O1116673   2.326   6.522   6.288 -0.3964 -0.3110  0.8803
  151SAPE    C116674   2.267   6.649   6.329  0.0573  0.4234  0.1498
  151SAPE    HA16675   2.303   6.732   6.266  2.1696 -1.1863 -0.8104
  151SAPE    HB16676   2.156   6.650   6.321 -0.0731 -3.3914  0.5204
  151SAPE    C216677   2.308   6.684   6.474  0.4161 -0.0839  0.3853
  151SAPE    HS16678   2.418   6.683   6.465  0.3576 -0.2631 -0.2968
  151SAPE   O2116679   2.260   6.581   6.560  0.0792  0.1240  0.3607
  151SAPE   C2116680   2.344   6.538   6.651  1.0753  0.0038  0.4093
  151SAPE   O2216681   2.463   6.564   6.663  0.6337  0.4753  0.3494
  151SAPE   C2216682   2.269   6.437   6.739  0.0800  0.3733 -0.1324
  151SAPE   H2R16683   2.174   6.483   6.775  0.1726 -0.0848  0.7090
  151SAPE   H2S16684   2.229   6.353   6.679  0.4807 -0.5329  0.8418
  151SAPE    C316685   2.267   6.821   6.518 -0.3770  0.0984 -0.2294
  151SAPE    HX16686   2.157   6.831   6.510 -0.7004 -0.6061  2.7649
  151SAPE    HY16687   2.319   6.893   6.452  2.2257 -2.0368 -0.6164
  151SAPE   O3116688   2.284   6.847   6.657 -0.2753 -0.4334  0.5626
  151SAPE   C3116689   2.398   6.889   6.699 -0.4868  0.6930 -0.0582
  151SAPE   O3216690   2.501   6.884   6.636 -1.0450  0.7222  0.2632
  151SAPE   C3216691   2.378   6.931   6.845 -0.4982  0.7489 -0.0898
  151SAPE   H2X16692   2.424   6.847   6.901  0.1851  1.1071 -0.1136
  151SAPE   H2Y16693   2.270   6.931   6.870 -0.5912  2.0077 -0.4367
  151SAPE   C2316694   2.358   6.377   6.852 -0.6048 -0.5226  0.2589
  151SAPE   H3R16695   2.437   6.450   6.880 -1.6114  0.7726 -0.2161
  151SAPE   H3S16696   2.403   6.281   6.821  0.6213 -0.1751  0.9179
  151SAPE   C2416697   2.281   6.352   6.984 -0.3423  0.1531 -0.0108
  151SAPE   H4R16698   2.245   6.454   7.009 -1.9195  0.1542 -2.1943
  151SAPE   H4S16699   2.342   6.319   7.070 -0.3748 -1.6024 -0.6380
  151SAPE   C2516700   2.158   6.269   6.973 -0.6296  0.9758  0.0279
  151SAPE   H5R16701   2.149   6.218   6.876  0.1861 -0.3502  0.6342
  151SAPE   C2616702   2.071   6.247   7.075  0.4256  0.3404 -0.1701
  151SAPE   H6R16703   1.987   6.178   7.058 -0.7618  1.4434  1.1746
  151SAPE   C2716704   2.080   6.291   7.218 -1.1568  0.2086 -0.3473
  151SAPE   H7R16705   2.048   6.396   7.198 -2.1988 -0.4526 -2.2070
  151SAPE   H7S16706   2.187   6.307   7.245 -0.7368  0.7424 -2.2844
  151SAPE   C2816707   1.981   6.220   7.313 -0.1314  0.6353 -0.5076
  151SAPE   H8R16708   1.991   6.111   7.322 -0.3898  0.4436 -2.3601
  151SAPE   C2916709   1.871   6.275   7.358  0.5521  0.4244  0.1659
  151SAPE   H9R16710   1.796   6.217   7.413  1.6789 -2.2330 -0.9876
  151SAPE  C21016711   1.828   6.413   7.343  0.3862  0.6756  0.0344
  151SAPE  H10R16712   1.904   6.470   7.285  0.9546  0.1570  0.2670
  151SAPE  H10S16713   1.844   6.470   7.437  0.5545  2.1300 -0.8554
  151SAPE  C21116714   1.688   6.427   7.273 -0.0473 -0.1626  0.2300
  151SAPE  H11R16715   1.614   6.353   7.308  0.4735 -0.3627  0.9235
  151SAPE  C21216716   1.648   6.518   7.183 -0.1748  0.3263  0.5817
  151SAPE  H12R16717   1.541   6.527   7.158 -0.3374 -0.2143  1.0850
  151SAPE  C21316718   1.730   6.640   7.139  0.7311  0.6469  0.1469
  151SAPE  H13R16719   1.801   6.597   7.065  1.3500  0.3840  0.8868
  151SAPE  H13S16720   1.791   6.681   7.223  2.0922 -0.2857 -0.3615
  151SAPE  C21416721   1.650   6.741   7.058  0.2168 -0.0729  1.0065
  151SAPE  H14R16722   1.599   6.707   6.966  1.3522 -1.3176  0.8182
  151SAPE  C21516723   1.617   6.860   7.110 -0.0992 -0.0148  0.6207
  151SAPE  H15R16724   1.562   6.930   7.045  1.2633  0.4451 -0.0618
  151SAPE  C21616725   1.648   6.904   7.250  0.6630 -0.7491  0.3352
  151SAPE  H16R16726   1.757   6.915   7.268  0.5062  0.1627  0.7908
  151SAPE  H16S16727   1.620   6.823   7.322 -0.3986  1.4802  2.5145
  151SAPE  C21716728   1.589   7.041   7.280 -0.5930  0.0079 -0.1075
  151SAPE  H17R16729   1.592   7.065   7.389  0.8578  2.1078 -0.5714
  151SAPE  H17S16730   1.482   7.044   7.252 -1.3399  3.3851  2.7820
  151SAPE  C21816731   1.666   7.156   7.215 -0.0528 -0.5283 -0.2730
  151SAPE  H18R16732   1.658   7.146   7.104  0.0910  0.4236 -0.3803
  151SAPE  H18S16733   1.775   7.146   7.235  0.2312  1.2460 -0.7854
  151SAPE  C21916734   1.614   7.292   7.271 -0.5765  0.0433 -0.5575
  151SAPE  H19R16735   1.640   7.307   7.378 -2.6205  1.5581 -0.2268
  151SAPE  H19S16736   1.504   7.276   7.260 -0.2860 -0.8671 -2.2025
  151SAPE  C22016737   1.656   7.397   7.165 -0.0096  0.4784 -0.1943
  151SAPE  H20R16738   1.625   7.503   7.179 -0.3800  0.1835  1.2384
  151SAPE  H20S16739   1.767   7.398   7.171 -0.0305 -2.2045  1.1294
  151SAPE  H20T16740   1.628   7.354   7.066 -1.1010 -0.3669  0.4744
  151SAPE   C3316741   2.446   7.062   6.895  0.7753  0.7595 -0.3917
  151SAPE   H3X16742   2.388   7.154   6.873  0.5001  0.7926  0.4597
  151SAPE   H3Y16743   2.547   7.070   6.850  1.0050  1.1403  0.1900
  151SAPE   C3416744   2.450   7.083   7.043 -0.6870  0.7521 -0.2792
  151SAPE   H4X16745   2.363   7.051   7.103  1.0187 -1.3566  1.1750
  151SAPE   H4Y16746   2.470   7.192   7.054 -1.3549  0.5601  3.4326
  151SAPE   C3516747   2.569   7.005   7.114  0.6665  0.0685 -0.0150
  151SAPE   H5X16748   2.666   7.050   7.084  0.2838  1.5101  0.8811
  151SAPE   H5Y16749   2.568   6.896   7.095 -0.4693  0.3838 -1.9457
  151SAPE   C3616750   2.577   7.010   7.270  0.2370  0.5277  0.2490
  151SAPE   H6X16751   2.671   6.957   7.296  2.7542  3.2554 -2.8320
  151SAPE   H6Y16752   2.488   6.960   7.312 -0.5214  0.2940 -1.5835
  151SAPE   C3716753   2.592   7.151   7.330  0.6610  0.1312 -0.3950
  151SAPE   H7X16754   2.498   7.202   7.299 -1.0083 -3.5669 -1.7840
  151SAPE   H7Y16755   2.680   7.204   7.288 -0.5933  0.6155 -2.4684
  151SAPE   C3816756   2.599   7.160   7.484 -1.1300  0.1259 -0.3376
  151SAPE   H8X16757   2.604   7.268   7.507  0.5001 -0.1194  0.5859
  151SAPE   H8Y16758   2.695   7.119   7.524 -0.6549  2.1498  0.6128
  151SAPE   C3916759   2.479   7.102   7.553 -0.4387  0.3579 -0.5484
  151SAPE   H9X16760   2.470   6.991   7.548 -2.0746  0.3552  1.7038
  151SAPE   H9Y16761   2.389   7.144   7.503  0.1346  0.8359 -1.1818
  151SAPE  C31016762   2.467   7.145   7.700  0.5747  0.1067  0.2451
  151SAPE  H10X16763   2.377   7.096   7.742  0.6980  0.9013  1.4702
  151SAPE  H10Y16764   2.451   7.255   7.692  0.2711  0.2827  3.0731
  151SAPE  C31116765   2.580   7.111   7.798 -0.1445 -1.1886 -0.0396
  151SAPE  H11X16766   2.669   7.174   7.777 -1.6115  0.8018 -0.4143
  151SAPE  H11Y16767   2.611   7.004   7.805  0.2184 -1.0216  1.1102
  151SAPE  C31216768   2.541   7.150   7.936 -0.1344 -0.4076  0.2646
  151SAPE  H12X16769   2.520   7.257   7.954  0.8265  0.0692 -1.3623
  151SAPE  H12Y16770   2.623   7.126   8.007  2.0707 -0.9420 -2.4150
  151SAPE  C31316771   2.410   7.089   7.994  0.3361  0.4594 -0.5103
  151SAPE  H13X16772   2.422   6.980   7.976  3.5006  0.7678 -0.4450
  151SAPE  H13Y16773   2.329   7.132   7.930  2.0459 -0.3997 -3.3467
  151SAPE  C31416774   2.381   7.106   8.144 -0.1101  1.0118 -0.6064
  151SAPE  H14X16775   2.369   7.211   8.179 -0.1765  0.5468  0.8120
  151SAPE  H14Y16776   2.456   7.059   8.211 -1.0222  0.0929 -0.2216
  151SAPE  C31516777   2.250   7.032   8.180  0.2400  0.8040 -0.2216
  151SAPE  H15X16778   2.259   6.923   8.158  0.4653  0.6605  0.5917
  151SAPE  H15Y16779   2.163   7.074   8.125 -0.1086 -1.0345 -1.1349
  151SAPE  C31616780   2.216   7.046   8.331  0.6489 -0.2384  0.1324
  151SAPE  H16X16781   2.208   7.152   8.362 -0.5149 -0.4759  0.6828
  151SAPE  H16Y16782   2.301   6.999   8.385  0.9995 -0.3610 -0.5216
  151SAPE  C31716783   2.088   6.976   8.364 -0.3124 -0.3708 -0.3660
  151SAPE  H17X16784   2.111   6.871   8.338  0.9230 -0.2542  0.1908
  151SAPE  H17Y16785   1.996   7.003   8.309  0.7670  1.2948 -1.3845
  151SAPE  C31816786   2.066   6.978   8.517 -0.1232  0.3563 -0.9135
  151SAPE  H18X16787   1.972   6.927   8.547  0.7385  0.1980  1.6173
  151SAPE  H18Y16788   2.059   7.084   8.548  0.6542  0.8325 -2.3230
  151SAPE  H18Z16789   2.146   6.929   8.576  0.2349 -0.2708 -1.9104
  152SAPE     N16790   5.657   3.418   6.031  0.4163 -0.1092 -0.3913
  152SAPE   HN116791   5.690   3.322   6.055  2.5769  0.5984 -0.4434
  152SAPE   HN216792   5.572   3.409   5.972 -0.1442 -0.7945  0.5166
  152SAPE   HN316793   5.733   3.462   5.974  2.7081 -2.5297  0.6764
  152SAPE   C1216794   5.650   3.492   6.160 -0.3535  0.3906 -0.4635
  152SAPE  H12A16795   5.635   3.596   6.126  0.6678  0.7099  0.0548
  152SAPE  H12B16796   5.753   3.491   6.202 -0.6032  0.8901  0.1770
  152SAPE   C1116797   5.545   3.433   6.255  1.4194  0.0961  0.6935
  152SAPE  H11A16798   5.443   3.460   6.219  1.4512  0.3336  0.7782
  152SAPE  H11B16799   5.555   3.500   6.343  3.5044  2.7999 -1.5174
  152SAPE     P16800   5.470   3.224   6.390  0.1611  0.1050 -0.1918
  152SAPE   O1316801   5.329   3.280   6.390  0.4721  0.0816 -0.2199
  152SAPE   O1416802   5.488   3.076   6.382  0.0007 -0.1127  0.2465
  152SAPE   O1216803   5.560   3.289   6.275 -0.8350 -0.2565 -0.0093
  152SAPE   O1116804   5.532   3.284   6.519  0.1025 -0.0192  0.5209
  152SAPE    C116805   5.670   3.272   6.545  0.0729  0.3512 -0.6750
  152SAPE    HA16806   5.724   3.207   6.472 -0.4766 -0.8875  0.0041
  152SAPE    HB16807   5.722   3.369   6.533 -2.8507  2.3212  1.8755
  152SAPE    C216808   5.709   3.208   6.684  0.7211  0.3856  0.2114
  152SAPE    HS16809   5.678   3.101   6.684  2.0595 -0.0177 -0.4771
  152SAPE   O2116810   5.642   3.281   6.787  0.3659 -1.1856  0.0381
  152SAPE   C2116811   5.596   3.214   6.889  0.3063  0.6306 -0.0848
  152SAPE   O2216812   5.607   3.090   6.907  0.1849 -0.4872  0.1415
  152SAPE   C2216813   5.533   3.314   6.985  0.0241 -0.2752 -0.2860
  152SAPE   H2R16814   5.618   3.364   7.036 -0.1653 -0.8245  0.5885
  152SAPE   H2S16815   5.466   3.387   6.935 -0.2825  0.7856  1.6242
  152SAPE    C316816   5.861   3.228   6.706  0.4786  0.0023 -0.2583
  152SAPE    HX16817   5.887   3.335   6.688  0.5115  0.3223  1.5664
  152SAPE    HY16818   5.900   3.172   6.619  4.3886  0.5615  1.0640
  152SAPE   O3116819   5.903   3.198   6.837  0.1527  0.2577  0.5236
  152SAPE   C3116820   5.933   3.063   6.854 -0.3072  0.3594  0.5871
  152SAPE   O3216821   5.904   2.984   6.761  0.1658  0.0451 -0.2530
  152SAPE   C3216822   5.980   3.014   6.994  0.4643 -0.1397 -0.6742
  152SAPE   H2X16823   6.087   2.985   6.980  1.3662  1.7230  1.8090
  152SAPE   H2Y16824   5.928   2.919   7.015  1.2476  0.0731  2.4886
  152SAPE   C2316825   5.436   3.234   7.084 -0.0101 -0.3270  0.2574
  152SAPE   H3R16826   5.500   3.166   7.142 -0.1228 -0.1018  0.6510
  152SAPE   H3S16827   5.376   3.177   7.010  0.2610 -0.0440 -0.1862
  152SAPE   C2416828   5.355   3.328   7.169 -0.7216 -0.3024  0.2067
  152SAPE   H4R16829   5.258   3.285   7.203 -0.7350  0.4398  1.1309
  152SAPE   H4S16830   5.317   3.412   7.107  1.1812  0.5326  0.1282
  152SAPE   C2516831   5.441   3.386   7.280  0.7381  0.3918  0.3428
  152SAPE   H5R16832   5.508   3.468   7.251 -1.0762  1.8981  0.2748
  152SAPE   C2616833   5.448   3.338   7.407  0.0868  1.0747 -0.1340
  152SAPE   H6R16834   5.520   3.380   7.480  2.5992 -1.0349 -1.3225
  152SAPE   C2716835   5.371   3.223   7.468 -0.6640 -0.0254 -0.5022
  152SAPE   H7R16836   5.431   3.161   7.537 -1.0972 -0.5132 -0.5574
  152SAPE   H7S16837   5.340   3.156   7.384 -0.1514 -0.5185 -0.3015
  152SAPE   C2816838   5.254   3.270   7.537  0.4405  0.3638  0.2091
  152SAPE   H8R16839   5.166   3.266   7.471 -0.0172  0.2346  0.8220
  152SAPE   C2916840   5.233   3.320   7.661  0.1604  0.9096  0.4241
  152SAPE   H9R16841   5.133   3.356   7.689 -0.5217  0.3773 -1.2620
  152SAPE  C21016842   5.342   3.341   7.758 -0.2629  0.3046  0.4649
  152SAPE  H10R16843   5.351   3.450   7.779  1.9324  0.6841 -2.1771
  152SAPE  H10S16844   5.441   3.319   7.711  0.4251 -1.4416  2.6031
  152SAPE  C21116845   5.353   3.246   7.880  0.0360 -0.1497 -0.0311
  152SAPE  H11R16846   5.313   3.145   7.863  0.9548 -0.6521  0.6999
  152SAPE  C21216847   5.409   3.275   8.000 -0.5165 -0.4007  0.3244
  152SAPE  H12R16848   5.408   3.194   8.075 -0.2525  0.5837  1.4128
  152SAPE  C21316849   5.483   3.408   8.034 -0.9463  0.3110  0.2187
  152SAPE  H13R16850   5.511   3.459   7.940  0.7514  0.6831  0.9061
  152SAPE  H13S16851   5.577   3.387   8.089 -0.6607  2.1183  0.4344
  152SAPE  C21416852   5.392   3.521   8.088 -0.4418  0.6381 -0.5533
  152SAPE  H14R16853   5.306   3.540   8.023 -0.3768 -1.1286 -1.1769
  152SAPE  C21516854   5.404   3.603   8.192 -0.1861  0.4091  0.3462
  152SAPE  H15R16855   5.321   3.673   8.208 -0.4185 -0.0052  0.9900
  152SAPE  C21616856   5.516   3.593   8.291 -0.4681  0.6565 -0.8690
  152SAPE  H16R16857   5.566   3.691   8.278  1.1673 -0.2958 -1.9993
  152SAPE  H16S16858   5.595   3.520   8.260 -0.8181  0.4935 -1.3744
  152SAPE  C21716859   5.483   3.582   8.439 -0.1513  0.7122  0.6321
  152SAPE  H17R16860   5.461   3.477   8.468  3.3530 -0.8342 -2.0561
  152SAPE  H17S16861   5.389   3.638   8.461 -3.0375 -2.9844 -1.7911
  152SAPE  C21816862   5.602   3.648   8.521 -0.3269 -0.4764 -0.2579
  152SAPE  H18R16863   5.615   3.756   8.500  0.4053 -0.6608 -0.7892
  152SAPE  H18S16864   5.692   3.592   8.489  0.7728  0.5657  0.9318
  152SAPE  C21916865   5.586   3.621   8.673 -0.1826 -0.3624  1.0832
  152SAPE  H19R16866   5.674   3.664   8.726  0.1523  1.2364 -0.7181
  152SAPE  H19S16867   5.592   3.513   8.697 -0.5764 -0.6686 -0.1305
  152SAPE  C22016868   5.453   3.675   8.731 -0.7075 -0.3249 -0.9058
  152SAPE  H20R16869   5.461   3.669   8.842 -0.4998  1.3724 -0.8300
  152SAPE  H20S16870   5.369   3.612   8.695 -1.1223 -0.5402  0.4075
  152SAPE  H20T16871   5.449   3.785   8.725  2.5408 -0.1071 -0.1262
  152SAPE   C3316872   5.961   3.120   7.105 -0.0752 -0.5867  0.5549
  152SAPE   H3X16873   5.872   3.185   7.091  1.7117  1.7307 -0.2152
  152SAPE   H3Y16874   6.050   3.186   7.103  1.4314 -2.5560 -3.1321
  152SAPE   C3416875   5.962   3.056   7.240 -0.2838 -0.1051 -0.7133
  152SAPE   H4X16876   6.061   3.009   7.252  0.2264  1.5827  2.0395
  152SAPE   H4Y16877   5.890   2.972   7.250 -0.3143 -0.1738 -1.4519
  152SAPE   C3516878   5.971   3.163   7.353  0.4861 -0.2239 -0.3962
  152SAPE   H5X16879   6.042   3.246   7.331  1.3705 -1.3092 -1.7527
  152SAPE   H5Y16880   6.016   3.111   7.439 -1.8256 -1.0631  0.3425
  152SAPE   C3616881   5.831   3.222   7.371 -0.1370  0.5748  0.0951
  152SAPE   H6X16882   5.748   3.148   7.379 -0.9661  1.5767  0.9256
  152SAPE   H6Y16883   5.823   3.289   7.282 -0.5896 -0.1249 -0.4046
  152SAPE   C3716884   5.823   3.301   7.501 -0.8649  0.3215 -0.8790
  152SAPE   H7X16885   5.726   3.354   7.513 -1.1220 -0.2649 -0.3301
  152SAPE   H7Y16886   5.902   3.378   7.513 -1.5162  1.1825 -2.0287
  152SAPE   C3816887   5.841   3.207   7.621 -0.8182  0.4613  0.2178
  152SAPE   H8X16888   5.949   3.188   7.640 -0.2944  0.7188 -2.3941
  152SAPE   H8Y16889   5.792   3.111   7.595 -1.2362  0.5165  0.7955
  152SAPE   C3916890   5.782   3.276   7.746 -0.0836  0.2757 -0.2318
  152SAPE   H9X16891   5.671   3.272   7.751 -0.0147 -0.0294  1.2785
  152SAPE   H9Y16892   5.802   3.385   7.752  0.6946  0.3476 -3.3014
  152SAPE  C31016893   5.837   3.213   7.872  0.0367  0.3681  0.0377
  152SAPE  H10X16894   5.785   3.265   7.955 -2.0373  0.7473 -1.4502
  152SAPE  H10Y16895   5.945   3.229   7.894 -0.5476 -0.5016  3.8428
  152SAPE  C31116896   5.814   3.059   7.884 -0.3010 -0.0724  0.0520
  152SAPE  H11X16897   5.849   3.028   7.985  2.2692  1.2709 -0.3773
  152SAPE  H11Y16898   5.873   3.000   7.811  0.2702 -0.2165  0.6266
  152SAPE  C31216899   5.670   3.013   7.874  0.9467 -0.0030 -1.1461
  152SAPE  H12X16900   5.620   3.034   7.777 -0.4659  0.7943 -0.2560
  152SAPE  H12Y16901   5.603   3.056   7.951 -1.6848  0.9690 -3.8820
  152SAPE  C31316902   5.666   2.860   7.887 -0.1785 -0.4060  0.2629
  152SAPE  H13X16903   5.762   2.813   7.856  0.5218  1.5983 -0.6810
  152SAPE  H13Y16904   5.594   2.816   7.815 -0.7262  3.5216 -1.7368
  152SAPE  C31416905   5.632   2.802   8.028 -0.3932  0.1916  0.0616
  152SAPE  H14X16906   5.532   2.829   8.069 -0.0862 -2.0507  2.3933
  152SAPE  H14Y16907   5.709   2.840   8.098  2.3949 -1.2458 -2.1333
  152SAPE  C31516908   5.638   2.647   8.037 -0.0727 -0.5526 -0.4198
  152SAPE  H15X16909   5.734   2.609   7.996  0.6025 -0.4499  1.0430
  152SAPE  H15Y16910   5.556   2.620   7.967  0.9447 -0.7052 -1.5603
  152SAPE  C31616911   5.607   2.580   8.178 -0.4146 -0.1956  0.5201
  152SAPE  H16X16912   5.676   2.624   8.253  0.0128 -0.0503  0.0447
  152SAPE  H16Y16913   5.620   2.470   8.176 -0.6998 -0.2288 -2.0710
  152SAPE  C31716914   5.458   2.597   8.232 -0.5891  0.3358  0.1266
  152SAPE  H17X16915   5.419   2.701   8.216 -0.8094  0.2324 -0.0122
  152SAPE  H17Y16916   5.451   2.557   8.336 -1.8485 -0.3771 -0.2175
  152SAPE  C31816917   5.367   2.506   8.152  0.1095  0.4424 -0.1172
  152SAPE  H18X16918   5.269   2.494   8.203 -0.6448  2.7170 -0.9805
  152SAPE  H18Y16919   5.417   2.407   8.145  1.7723  1.2435  0.1391
  152SAPE  H18Z16920   5.354   2.538   8.046  0.9472 -0.7951 -0.5991
  153SAPE     N16921   2.950   3.797   6.019 -0.1735  0.9101 -0.4142
  153SAPE   HN116922   2.954   3.734   5.936  2.0051  1.1676 -0.5354
  153SAPE   HN216923   3.043   3.808   6.063 -0.5657  0.7787  0.4625
  153SAPE   HN316924   2.884   3.752   6.087  1.6877  3.9297  3.6069
  153SAPE   C1216925   2.906   3.922   5.961 -0.4649  0.5056 -0.4772
  153SAPE  H12A16926   2.810   3.903   5.907  0.1680 -0.7408 -1.1895
  153SAPE  H12B16927   2.988   3.947   5.890 -0.0760 -1.1783 -0.6330
  153SAPE   C1116928   2.880   4.029   6.070  0.1915  0.4806  0.2289
  153SAPE  H11A16929   2.844   4.123   6.024 -1.1022 -0.9433 -1.7661
  153SAPE  H11B16930   2.972   4.073   6.116 -1.1902  0.3816  3.2046
  153SAPE     P16931   2.632   3.987   6.153  0.0043  0.3399  0.0218
  153SAPE   O1316932   2.608   4.060   6.025 -0.4938  0.0614  0.0190
  153SAPE   O1416933   2.570   3.852   6.162 -0.6521 -0.0704  0.6460
  153SAPE   O1216934   2.793   3.974   6.171  0.5019  0.5021 -0.7231
  153SAPE   O1116935   2.571   4.079   6.268  0.1037 -0.0043 -0.1554
  153SAPE    C116936   2.657   4.165   6.344  0.1400  0.0176  0.1439
  153SAPE    HA16937   2.741   4.199   6.281 -0.9653 -3.6785 -3.4905
  153SAPE    HB16938   2.596   4.257   6.361 -0.4120 -0.3624  0.2133
  153SAPE    C216939   2.686   4.099   6.484  0.5904  0.6685  0.1642
  153SAPE    HS16940   2.730   4.181   6.545  0.7390  1.6510 -1.2525
  153SAPE   O2116941   2.778   3.992   6.453 -1.0398  0.4530  0.3717
  153SAPE   C2116942   2.909   4.033   6.447  0.1204  0.4071  1.1766
  153SAPE   O2216943   2.942   4.146   6.437 -0.1485  0.1103  0.1026
  153SAPE   C2216944   3.003   3.917   6.446 -0.4263 -0.5624 -0.3256
  153SAPE   H2R16945   2.957   3.816   6.440  0.7984 -1.1259 -0.3960
  153SAPE   H2S16946   3.050   3.916   6.345  1.3036 -2.4650  0.4785
  153SAPE    C316947   2.555   4.046   6.551 -0.0990 -0.0396 -0.4461
  153SAPE    HX16948   2.508   3.975   6.479 -2.1279  0.8599 -0.0503
  153SAPE    HY16949   2.481   4.127   6.565 -0.0746 -0.3995  1.8507
  153SAPE   O3116950   2.592   3.996   6.683 -0.1754 -0.4361  0.9207
  153SAPE   C3116951   2.597   3.857   6.690 -0.2768 -0.5427 -0.4925
  153SAPE   O3216952   2.572   3.782   6.599  0.4019 -0.5063  0.5661
  153SAPE   C3216953   2.640   3.821   6.829 -0.0401 -0.2757  0.7759
  153SAPE   H2X16954   2.747   3.846   6.839 -0.7309  2.0366  2.9383
  153SAPE   H2Y16955   2.631   3.710   6.831 -2.1076 -0.2125 -1.6289
  153SAPE   C2316956   3.102   3.913   6.567 -0.0521  0.3298  0.1424
  153SAPE   H3R16957   3.136   4.019   6.574  0.3009  0.2264 -0.0177
  153SAPE   H3S16958   3.190   3.847   6.552 -1.3018 -1.0114 -1.5856
  153SAPE   C2416959   3.025   3.883   6.704 -0.4179 -0.0718 -0.2910
  153SAPE   H4R16960   2.965   3.790   6.695  0.5310 -0.7075 -0.0910
  153SAPE   H4S16961   2.949   3.964   6.717  1.1667  0.7376  4.9147
  153SAPE   C2516962   3.120   3.899   6.815 -0.3902 -0.2114 -0.3059
  153SAPE   H5R16963   3.198   3.978   6.815 -0.2448 -0.3513  0.3569
  153SAPE   C2616964   3.112   3.831   6.928  0.4648  0.1191 -0.3850
  153SAPE   H6R16965   3.183   3.859   7.007 -0.7761 -0.8660  1.1151
  153SAPE   C2716966   3.011   3.723   6.966  0.4744 -0.1017 -0.7417
  153SAPE   H7R16967   2.926   3.709   6.895 -0.8562 -1.2838  1.0289
  153SAPE   H7S16968   2.970   3.755   7.065 -1.7013  1.3940 -2.0782
  153SAPE   C2816969   3.087   3.591   6.972  0.2737 -0.5822  0.4161
  153SAPE   H8R16970   3.100   3.549   6.871 -0.4153 -0.6265  0.3375
  153SAPE   C2916971   3.145   3.529   7.070 -0.1442  0.2151  1.0543
  153SAPE   H9R16972   3.202   3.436   7.052 -0.5539 -0.2550  2.1439
  153SAPE  C21016973   3.150   3.576   7.214 -0.1751  0.0020  0.1763
  153SAPE  H10R16974   3.075   3.656   7.232 -0.0881 -0.0207  0.6626
  153SAPE  H10S16975   3.251   3.624   7.212 -0.9337  1.6131 -0.5744
  153SAPE  C21116976   3.142   3.456   7.311 -0.7737  0.1711  0.8789
  153SAPE  H11R16977   3.222   3.383   7.292  0.3610  1.9477 -1.6042
  153SAPE  C21216978   3.049   3.440   7.407 -0.4518 -0.3131 -0.7263
  153SAPE  H12R16979   3.045   3.347   7.466  0.1848  0.3457  0.3636
  153SAPE  C21316980   2.933   3.534   7.433 -0.4453 -0.2329  0.8971
  153SAPE  H13R16981   2.913   3.612   7.356 -0.2001  0.2241  1.2985
  153SAPE  H13S16982   2.960   3.599   7.519 -1.2637  1.3543 -0.0212
  153SAPE  C21416983   2.803   3.462   7.461 -0.0036 -0.3188 -0.3159
  153SAPE  H14R16984   2.750   3.433   7.369 -0.7955  0.2209 -0.0347
  153SAPE  C21516985   2.734   3.439   7.572 -0.0008 -0.3205 -0.1858
  153SAPE  H15R16986   2.636   3.392   7.561 -0.7614  1.3370 -0.7196
  153SAPE  C21616987   2.772   3.481   7.711  0.2897 -0.5863 -0.0315
  153SAPE  H16R16988   2.683   3.531   7.754 -0.1521 -1.3918 -0.0089
  153SAPE  H16S16989   2.856   3.555   7.710  0.4675 -0.7955 -1.8079
  153SAPE  C21716990   2.801   3.361   7.801 -0.1564 -0.3363 -0.3370
  153SAPE  H17R16991   2.871   3.286   7.757 -0.4933 -3.2731  3.8026
  153SAPE  H17S16992   2.710   3.298   7.805 -0.1337 -0.3731 -0.3923
  153SAPE  C21816993   2.842   3.404   7.942 -0.5748 -0.3321 -0.4191
  153SAPE  H18R16994   2.773   3.487   7.970  0.1992  0.8441 -1.9001
  153SAPE  H18S16995   2.939   3.458   7.940 -0.5027 -0.4833 -1.8561
  153SAPE  C21916996   2.850   3.280   8.038 -0.2812  0.3503 -0.4657
  153SAPE  H19R16997   2.919   3.207   7.990 -0.5405  0.9810 -1.8452
  153SAPE  H19S16998   2.750   3.231   8.039 -1.0461  1.8931  0.2110
  153SAPE  C22016999   2.911   3.317   8.169  0.3460  0.2606  0.2284
  153SAPE  H20R17000   2.913   3.228   8.235  1.3517  0.3116  0.2618
  153SAPE  H20S17001   2.841   3.383   8.226 -0.0016 -0.6131  0.8234
  153SAPE  H20T17002   3.012   3.362   8.159 -0.4232  1.4175 -2.9302
  153SAPE   C3317003   2.558   3.895   6.944 -0.5854 -1.1303  0.0462
  153SAPE   H3X17004   2.450   3.900   6.920 -0.1447  2.8243 -1.5315
  153SAPE   H3Y17005   2.587   4.003   6.948  0.9854 -1.5580  0.7820
  153SAPE   C3417006   2.575   3.833   7.086  0.5314 -0.5037  0.3178
  153SAPE   H4X17007   2.683   3.814   7.101  0.4714 -1.8015 -0.8524
  153SAPE   H4Y17008   2.514   3.740   7.087 -0.0156 -0.1451  0.7761
  153SAPE   C3517009   2.523   3.914   7.204 -0.0774  1.1071 -0.1066
  153SAPE   H5X17010   2.412   3.918   7.202 -0.1133 -0.1280 -3.0990
  153SAPE   H5Y17011   2.581   4.008   7.203  2.7062 -0.5417  1.8278
  153SAPE   C3617012   2.570   3.837   7.331 -0.5010 -0.7669 -0.2395
  153SAPE   H6X17013   2.679   3.823   7.320 -0.2112  0.7109  0.6449
  153SAPE   H6Y17014   2.513   3.742   7.337  1.6440 -2.0670 -0.3842
  153SAPE   C3717015   2.540   3.914   7.458 -0.0304 -0.2395 -0.0615
  153SAPE   H7X17016   2.430   3.930   7.461  0.0730  0.5936 -0.6041
  153SAPE   H7Y17017   2.608   4.002   7.464  0.5976 -0.7710  0.7732
  153SAPE   C3817018   2.570   3.843   7.589 -0.0899 -0.4403 -0.1534
  153SAPE   H8X17019   2.667   3.790   7.580  0.5557  0.6166  0.4373
  153SAPE   H8Y17020   2.497   3.760   7.602 -1.2927  0.4997 -0.8906
  153SAPE   C3917021   2.562   3.927   7.717  0.1710 -0.8520  0.4296
  153SAPE   H9X17022   2.460   3.961   7.744 -1.2909 -1.8493 -3.5709
  153SAPE   H9Y17023   2.631   4.014   7.714 -1.0240  0.0926  0.0540
  153SAPE  C31017024   2.623   3.842   7.829  0.9420 -0.4922  0.0563
  153SAPE  H10X17025   2.727   3.816   7.802  1.0126  1.0245 -1.1849
  153SAPE  H10Y17026   2.581   3.740   7.841 -0.8289  0.3109  0.9309
  153SAPE  C31117027   2.622   3.907   7.973 -0.2832 -0.1576 -0.0819
  153SAPE  H11X17028   2.531   3.872   8.025  0.5911 -0.8324  1.0184
  153SAPE  H11Y17029   2.606   4.017   7.964  1.7828  0.1622 -0.1953
  153SAPE  C31217030   2.754   3.890   8.056 -0.0114 -0.3649  0.0150
  153SAPE  H12X17031   2.832   3.948   8.002 -3.5305  3.1452 -1.4926
  153SAPE  H12Y17032   2.783   3.783   8.062  0.3866 -0.1569  2.6808
  153SAPE  C31317033   2.736   3.947   8.194  0.1316  0.1598  0.8227
  153SAPE  H13X17034   2.815   3.901   8.257  0.8952 -0.4465 -0.5578
  153SAPE  H13Y17035   2.635   3.917   8.230 -0.7852  0.9781 -1.0108
  153SAPE  C31417036   2.773   4.091   8.201 -0.4279 -0.2230  0.4284
  153SAPE  H14X17037   2.701   4.155   8.145  1.1363  0.8066 -0.4490
  153SAPE  H14Y17038   2.875   4.111   8.163 -1.2989  0.0641 -1.8174
  153SAPE  C31517039   2.762   4.133   8.349  0.3065 -0.2044  0.0330
  153SAPE  H15X17040   2.842   4.073   8.397  0.6983 -0.3261 -0.7602
  153SAPE  H15Y17041   2.662   4.100   8.384  1.1616 -2.5307  0.3580
  153SAPE  C31617042   2.797   4.277   8.382  0.5627  0.3973  0.0351
  153SAPE  H16X17043   2.764   4.344   8.300 -0.3382 -0.0145  0.0585
  153SAPE  H16Y17044   2.906   4.292   8.369  0.7327 -1.9105 -1.4835
  153SAPE  C31717045   2.761   4.330   8.521  0.1259  0.4154 -0.6777
  153SAPE  H17X17046   2.786   4.249   8.592  2.2215 -0.5074 -2.3872
  153SAPE  H17Y17047   2.651   4.346   8.524 -0.0294 -0.8369  0.6257
  153SAPE  C31817048   2.840   4.454   8.562 -0.0824  0.1376 -0.1756
  153SAPE  H18X17049   2.799   4.484   8.661  0.8504 -1.9530  0.8741
  153SAPE  H18Y17050   2.821   4.540   8.495 -0.2473 -1.0159 -1.6185
  153SAPE  H18Z17051   2.948   4.428   8.565 -0.0755  0.1713 -0.1368
  154SAPE     N17052   0.262   3.187   6.074  0.6619  0.3718 -0.1063
  154SAPE   HN117053   0.354   3.167   6.030  0.2737  1.9175 -1.6796
  154SAPE   HN217054   0.195   3.108   6.060 -0.6017  1.5196 -0.6965
  154SAPE   HN317055   0.227   3.265   6.014 -0.5918  2.0899  2.7573
  154SAPE   C1217056   0.269   3.217   6.216 -0.4341 -0.5186  0.0997
  154SAPE  H12A17057   0.311   3.318   6.235 -1.2848 -0.5685  2.3748
  154SAPE  H12B17058   0.320   3.130   6.264  0.4419  0.0559  0.2186
  154SAPE   C1117059   0.134   3.220   6.280 -0.1016 -0.5461  0.2552
  154SAPE  H11A17060   0.086   3.315   6.246 -0.4453 -0.7822  0.0757
  154SAPE  H11B17061   0.130   3.217   6.391 -2.7903 -0.3340  0.1865
  154SAPE     P17062  -0.096   3.123   6.230  0.1800 -0.1069 -0.1330
  154SAPE   O1317063  -0.122   3.247   6.158 -0.7869 -0.0672  0.0137
  154SAPE   O1417064  -0.168   3.006   6.183 -0.8730  0.3829 -0.1578
  154SAPE   O1217065   0.060   3.105   6.233 -0.1828  0.0382  1.1894
  154SAPE   O1117066  -0.128   3.137   6.383  0.0138 -0.1784  0.1172
  154SAPE    C117067  -0.146   3.017   6.465 -0.1660 -0.0144  0.8497
  154SAPE    HA17068  -0.248   2.978   6.442 -0.0460  0.2687 -0.1875
  154SAPE    HB17069  -0.073   2.936   6.440 -0.0669  0.2324  0.3189
  154SAPE    C217070  -0.138   3.041   6.621 -0.6267  0.4397  0.2173
  154SAPE    HS17071  -0.215   3.119   6.641 -1.1588  0.0592 -0.3258
  154SAPE   O2117072  -0.011   3.100   6.655 -0.7610  0.1133 -0.0686
  154SAPE   C2117073  -0.003   3.156   6.781  0.5212 -0.9162 -1.3730
  154SAPE   O2217074  -0.093   3.169   6.859  0.2879 -0.1697 -0.4063
  154SAPE   C2217075   0.141   3.195   6.811  0.4786  0.5213 -0.5546
  154SAPE   H2R17076   0.205   3.170   6.723 -2.7248 -3.8760 -1.7971
  154SAPE   H2S17077   0.150   3.303   6.831  0.6955  0.4486 -0.2553
  154SAPE    C317078  -0.176   2.916   6.704 -1.1347 -0.5869  0.0404
  154SAPE    HX17079  -0.282   2.894   6.682 -0.8487 -2.1344  0.1581
  154SAPE    HY17080  -0.186   2.929   6.814  0.4801  1.8897 -0.0537
  154SAPE   O3117081  -0.086   2.810   6.693  0.1102 -0.4241  0.1416
  154SAPE   C3117082  -0.119   2.710   6.608  0.1903  0.0502  0.8423
  154SAPE   O3217083  -0.210   2.724   6.528  0.1946  0.4221  0.4577
  154SAPE   C3217084  -0.037   2.584   6.637 -0.5314  0.9342  0.3357
  154SAPE   H2X17085   0.059   2.610   6.687  0.3328  0.5263 -1.0777
  154SAPE   H2Y17086  -0.016   2.533   6.540  0.2615  0.6634  0.6398
  154SAPE   C2317087   0.194   3.126   6.938 -0.4153 -0.2765 -0.3410
  154SAPE   H3R17088   0.126   3.157   7.020  0.1469  1.2463 -0.4322
  154SAPE   H3S17089   0.292   3.174   6.957 -0.1115 -0.9839 -0.1167
  154SAPE   C2417090   0.216   2.975   6.920  0.0011  0.2844  0.0548
  154SAPE   H4R17091   0.312   2.961   6.975  1.1771  0.5269 -1.9037
  154SAPE   H4S17092   0.232   2.946   6.814 -2.5134  0.9756 -0.5413
  154SAPE   C2517093   0.108   2.891   6.988  0.0946 -0.5165 -0.7708
  154SAPE   H5R17094   0.033   2.858   6.914 -0.1365 -2.8583  0.4544
  154SAPE   C2617095   0.095   2.848   7.117  0.5794  0.0659  0.2904
  154SAPE   H6R17096   0.009   2.784   7.142  1.5182 -0.8971  1.1023
  154SAPE   C2717097   0.182   2.888   7.242  0.5457 -0.8457 -0.6854
  154SAPE   H7R17098   0.221   2.992   7.237 -1.3957 -0.0543  0.5014
  154SAPE   H7S17099   0.268   2.817   7.244 -0.7399 -2.3931  1.9562
  154SAPE   C2817100   0.106   2.887   7.373  1.1214  0.2833  0.3330
  154SAPE   H8R17101   0.056   2.978   7.409  0.3198 -0.3905  0.9483
  154SAPE   C2917102   0.089   2.777   7.447 -0.6488  0.0920 -0.1129
  154SAPE   H9R17103   0.040   2.793   7.544  1.2054  1.1295  0.6895
  154SAPE  C21017104   0.131   2.638   7.422 -0.1736  0.0478 -0.9621
  154SAPE  H10R17105   0.170   2.625   7.319 -3.2038 -2.7501 -1.8368
  154SAPE  H10S17106   0.038   2.577   7.424 -0.9250  1.1055 -2.5830
  154SAPE  C21117107   0.229   2.584   7.527  0.0629 -0.4467  0.0628
  154SAPE  H11R17108   0.335   2.601   7.503 -0.2912  0.0896 -1.1804
  154SAPE  C21217109   0.193   2.539   7.642 -0.3705 -0.0353  0.4259
  154SAPE  H12R17110   0.268   2.506   7.715  1.2045  2.2057 -0.1489
  154SAPE  C21317111   0.055   2.536   7.708 -0.2467 -0.0286  0.2039
  154SAPE  H13R17112  -0.027   2.532   7.634  2.4340  0.8203 -2.9330
  154SAPE  H13S17113   0.031   2.628   7.766  1.1506  1.0433 -0.8821
  154SAPE  C21417114   0.041   2.413   7.797  0.3393  1.2055 -0.4559
  154SAPE  H14R17115   0.072   2.315   7.758  0.7702  0.4306  1.7782
  154SAPE  C21517116  -0.017   2.412   7.919  0.6185 -0.2683  0.1832
  154SAPE  H15R17117  -0.006   2.324   7.983  1.9403  0.0589  0.4147
  154SAPE  C21617118  -0.078   2.535   7.985  0.3858 -0.3744  0.4061
  154SAPE  H16R17119  -0.172   2.505   8.036  0.2021  2.2199  1.6770
  154SAPE  H16S17120  -0.100   2.615   7.912  0.2065 -1.1824 -0.4357
  154SAPE  C21717121   0.015   2.606   8.084 -0.0364  0.7328 -0.2310
  154SAPE  H17R17122   0.111   2.640   8.039 -0.8821  1.4591 -1.5154
  154SAPE  H17S17123   0.029   2.533   8.167 -0.8269  0.1262 -0.6239
  154SAPE  C21817124  -0.039   2.743   8.139  0.2194 -0.6928  0.4878
  154SAPE  H18R17125  -0.149   2.746   8.125  0.2600 -0.0087  0.3029
  154SAPE  H18S17126  -0.001   2.828   8.079 -2.0946  1.5067  2.0393
  154SAPE  C21917127   0.009   2.781   8.278  0.3028 -0.3219 -0.2312
  154SAPE  H19R17128   0.119   2.777   8.294  0.5425  2.2802 -0.9972
  154SAPE  H19S17129  -0.032   2.711   8.354 -1.0993  1.4623  0.6949
  154SAPE  C22017130  -0.046   2.921   8.311 -0.2302 -0.1122  0.2811
  154SAPE  H20R17131   0.007   2.996   8.249  0.5399 -3.4485 -3.2748
  154SAPE  H20S17132  -0.042   2.936   8.421 -0.4698  1.3815  0.1071
  154SAPE  H20T17133  -0.153   2.925   8.282 -0.5788 -0.9943  1.4096
  154SAPE   C3317134  -0.118   2.481   6.723 -0.2133 -0.1335  1.1401
  154SAPE   H3X17135  -0.050   2.394   6.712 -1.0906 -0.5791 -0.9615
  154SAPE   H3Y17136  -0.223   2.454   6.699 -0.0224 -1.6492  1.9684
  154SAPE   C3417137  -0.120   2.529   6.868  0.3649  0.0219 -1.3888
  154SAPE   H4X17138  -0.188   2.615   6.887 -0.2200 -0.3819 -1.6467
  154SAPE   H4Y17139  -0.018   2.553   6.905  1.1001 -1.3226 -2.5028
  154SAPE   C3517140  -0.174   2.409   6.957  0.2430 -0.1563  0.2621
  154SAPE   H5X17141  -0.109   2.324   6.931  1.5624  0.6287  0.9364
  154SAPE   H5Y17142  -0.281   2.390   6.930  0.5442  2.7337 -3.4658
  154SAPE   C3617143  -0.160   2.433   7.107 -0.2628 -0.0532  0.2325
  154SAPE   H6X17144  -0.057   2.471   7.122  0.5596 -3.1645  3.2175
  154SAPE   H6Y17145  -0.181   2.336   7.158  0.2717 -0.0772  0.4055
  154SAPE   C3717146  -0.251   2.545   7.161  0.5032 -0.0315 -0.9317
  154SAPE   H7X17147  -0.353   2.525   7.123 -0.0973  0.3229  0.4495
  154SAPE   H7Y17148  -0.227   2.645   7.117 -3.0764  1.6045  0.6636
  154SAPE   C3817149  -0.272   2.563   7.312 -0.4888 -0.6391 -1.4739
  154SAPE   H8X17150  -0.348   2.643   7.322 -1.1011 -1.3399 -0.4896
  154SAPE   H8Y17151  -0.181   2.602   7.361 -1.1903  0.3982 -0.9961
  154SAPE   C3917152  -0.315   2.434   7.383 -0.3379 -0.3942  0.0472
  154SAPE   H9X17153  -0.265   2.347   7.336 -0.5779 -0.3697 -0.2538
  154SAPE   H9Y17154  -0.416   2.421   7.337 -0.8157  2.3192  0.1902
  154SAPE  C31017155  -0.311   2.439   7.534 -0.2240 -0.1302  0.2802
  154SAPE  H10X17156  -0.371   2.525   7.573  0.9641  1.6520 -1.7091
  154SAPE  H10Y17157  -0.211   2.463   7.574 -0.2879  2.7717 -1.1340
  154SAPE  C31117158  -0.352   2.305   7.606  0.1255 -0.2224  0.0378
  154SAPE  H11X17159  -0.314   2.213   7.557 -0.9164 -0.2450 -0.7360
  154SAPE  H11Y17160  -0.462   2.300   7.592  0.0462  0.6310  0.3112
  154SAPE  C31217161  -0.330   2.308   7.756 -0.3965  0.3925  0.4314
  154SAPE  H12X17162  -0.357   2.410   7.790 -1.7797  0.1138  0.1970
  154SAPE  H12Y17163  -0.220   2.301   7.768 -0.4236 -0.3938  0.2485
  154SAPE  C31317164  -0.404   2.201   7.836 -0.0534 -0.2994  0.4132
  154SAPE  H13X17165  -0.398   2.099   7.793 -0.3393 -0.5101  0.8741
  154SAPE  H13Y17166  -0.512   2.227   7.825 -0.4107 -1.9429 -0.0858
  154SAPE  C31417167  -0.375   2.207   7.988 -0.0504 -0.1330  0.1064
  154SAPE  H14X17168  -0.266   2.192   8.003 -0.0007  0.2714  0.1571
  154SAPE  H14Y17169  -0.437   2.122   8.025 -2.0849  0.1552 -2.4603
  154SAPE  C31517170  -0.432   2.332   8.059  0.0090  0.9799  0.7616
  154SAPE  H15X17171  -0.540   2.337   8.033  0.5378  2.0565 -1.3306
  154SAPE  H15Y17172  -0.376   2.423   8.030  2.5545 -0.3000  1.5559
  154SAPE  C31617173  -0.421   2.307   8.206  0.0713 -0.2404  0.0653
  154SAPE  H16X17174  -0.323   2.257   8.216  1.2029  1.5990 -1.5396
  154SAPE  H16Y17175  -0.508   2.249   8.245  1.9819 -2.4118  1.1669
  154SAPE  C31717176  -0.412   2.435   8.295 -0.2728 -0.1164 -0.2361
  154SAPE  H17X17177  -0.494   2.503   8.263  0.8226  0.6856 -1.3871
  154SAPE  H17Y17178  -0.313   2.482   8.277 -1.8116  2.1821 -3.2146
  154SAPE  C31817179  -0.438   2.399   8.442 -0.3981  0.1875 -0.2114
  154SAPE  H18X17180  -0.351   2.335   8.467 -1.2629 -1.7888 -2.1310
  154SAPE  H18Y17181  -0.535   2.349   8.465 -0.2097  0.2006  0.6427
  154SAPE  H18Z17182  -0.444   2.489   8.507  1.2934 -2.5947  4.0252
  155SAPE     N17183   1.350   3.621   6.277 -0.0385 -0.3442 -0.3455
  155SAPE   HN117184   1.407   3.588   6.196  0.7738 -0.5793  0.3140
  155SAPE   HN217185   1.410   3.608   6.361 -2.4626  1.9419  1.8260
  155SAPE   HN317186   1.264   3.563   6.275 -0.2337 -0.0704  0.0652
  155SAPE   C1217187   1.308   3.763   6.270 -0.2800 -0.3504 -0.5477
  155SAPE  H12A17188   1.249   3.779   6.177 -1.0870  3.0165  0.4784
  155SAPE  H12B17189   1.401   3.824   6.272 -1.5352  1.6390 -1.0987
  155SAPE   C1117190   1.231   3.802   6.395  0.3927 -0.0636  0.4090
  155SAPE  H11A17191   1.217   3.911   6.385 -0.3760 -0.2045 -0.0345
  155SAPE  H11B17192   1.289   3.782   6.488  0.5301 -2.9598 -0.2611
  155SAPE     P17193   0.969   3.797   6.410  0.0672  0.2034 -0.1631
  155SAPE   O1317194   0.972   3.927   6.344 -0.9195  0.2550 -0.6039
  155SAPE   O1417195   0.865   3.701   6.378  0.3948  0.0393  0.3740
  155SAPE   O1217196   1.104   3.721   6.395 -0.2814  0.0342  0.6804
  155SAPE   O1117197   0.963   3.820   6.565 -0.1449  0.5103 -1.0236
  155SAPE    C117198   1.022   3.918   6.647  0.1450 -0.2405  0.7711
  155SAPE    HA17199   1.133   3.912   6.645  0.0657 -1.6966  0.4648
  155SAPE    HB17200   1.002   4.023   6.618 -0.1192 -0.5184 -0.0706
  155SAPE    C217201   0.980   3.901   6.792  0.6408 -0.5964  0.3292
  155SAPE    HS17202   1.004   3.993   6.850 -2.0398 -0.3789  1.1833
  155SAPE   O2117203   1.040   3.783   6.850 -0.6477  0.2786  0.4580
  155SAPE   C2117204   1.171   3.798   6.893 -0.2092  0.0826 -0.2423
  155SAPE   O2217205   1.229   3.904   6.870 -0.1057  0.3115 -0.1140
  155SAPE   C2217206   1.227   3.674   6.955  0.5960 -0.1585  0.2514
  155SAPE   H2R17207   1.143   3.603   6.966 -0.3983  0.6585 -1.8241
  155SAPE   H2S17208   1.303   3.636   6.883  0.7747 -0.9683  0.8703
  155SAPE    C317209   0.824   3.875   6.810 -0.1769 -0.1855  0.2273
  155SAPE    HX17210   0.819   3.769   6.777 -2.0740  0.8222 -2.9073
  155SAPE    HY17211   0.766   3.946   6.748 -0.7555 -2.0813 -1.4293
  155SAPE   O3117212   0.780   3.885   6.952 -0.6186  0.4556 -0.3550
  155SAPE   C3117213   0.653   3.863   6.966 -0.1602 -0.4458 -0.3458
  155SAPE   O3217214   0.579   3.831   6.871  0.1587  0.3094 -0.4113
  155SAPE   C3217215   0.624   3.895   7.111  0.4786 -0.2938  0.1390
  155SAPE   H2X17216   0.515   3.913   7.110  0.3809 -0.8164  1.1930
  155SAPE   H2Y17217   0.682   3.987   7.133  0.4529 -0.6185  1.5886
  155SAPE   C2317218   1.281   3.678   7.099 -0.7538  0.7165 -0.2982
  155SAPE   H3R17219   1.262   3.773   7.154 -0.1014  1.3045 -1.0726
  155SAPE   H3S17220   1.391   3.676   7.081 -0.2755 -0.7572  2.5460
  155SAPE   C2417221   1.248   3.555   7.187  0.1317  0.1010 -0.3432
  155SAPE   H4R17222   1.318   3.567   7.273  0.7384 -1.4178 -0.6031
  155SAPE   H4S17223   1.284   3.460   7.143  1.1718  0.7496 -0.9102
  155SAPE   C2517224   1.108   3.552   7.233 -0.5562  0.5310 -0.1457
  155SAPE   H5R17225   1.040   3.540   7.147 -0.1566 -0.9448 -0.2590
  155SAPE   C2617226   1.055   3.553   7.360  0.2498  0.2072  0.2048
  155SAPE   H6R17227   0.947   3.530   7.368  0.5234 -1.1769  0.1203
  155SAPE   C2717228   1.132   3.565   7.488  0.5048  1.1271  0.4107
  155SAPE   H7R17229   1.225   3.616   7.456 -2.1147  4.8615 -1.6184
  155SAPE   H7S17230   1.136   3.464   7.535 -1.7877 -0.3990 -2.5017
  155SAPE   C2817231   1.066   3.662   7.586  0.2298  0.1389 -0.1291
  155SAPE   H8R17232   1.004   3.744   7.545 -0.6671 -0.2634  0.4019
  155SAPE   C2917233   1.071   3.655   7.720  0.6949  0.4133 -0.1628
  155SAPE   H9R17234   1.008   3.725   7.776 -0.7037 -0.8937 -0.0635
  155SAPE  C21017235   1.138   3.543   7.788  0.3216 -0.0383  0.0643
  155SAPE  H10R17236   1.217   3.501   7.721 -1.2474  1.0928 -2.5913
  155SAPE  H10S17237   1.058   3.467   7.795 -0.7752  1.2857  2.5071
  155SAPE  C21117238   1.182   3.569   7.931 -0.3000 -0.0260  0.0554
  155SAPE  H11R17239   1.255   3.648   7.955 -1.1522  0.6312  0.5258
  155SAPE  C21217240   1.131   3.523   8.048  0.2402  0.2416 -0.1022
  155SAPE  H12R17241   1.174   3.560   8.143 -3.5501 -1.0326  2.2146
  155SAPE  C21317242   1.008   3.435   8.054  1.0344 -1.1676  0.6454
  155SAPE  H13R17243   1.036   3.329   8.036 -2.7296 -1.7699 -2.2504
  155SAPE  H13S17244   0.947   3.437   7.962 -1.4209  0.8938  2.2430
  155SAPE  C21417245   0.940   3.440   8.185 -0.2316  0.1301 -0.0467
  155SAPE  H14R17246   0.845   3.496   8.189 -1.1350 -1.2935 -1.0965
  155SAPE  C21517247   0.977   3.372   8.297 -0.2178  0.0641  0.1689
  155SAPE  H15R17248   0.914   3.380   8.386  1.1869  2.6994  0.9816
  155SAPE  C21617249   1.092   3.273   8.299 -0.3135  0.2830 -0.0748
  155SAPE  H16R17250   1.108   3.217   8.204 -3.0511  1.5643 -1.3657
  155SAPE  H16S17251   1.057   3.196   8.371 -1.1099  1.7706  1.1633
  155SAPE  C21717252   1.227   3.316   8.348 -0.2175  0.3368  0.4976
  155SAPE  H17R17253   1.217   3.392   8.429  0.0159  0.4656  0.4048
  155SAPE  H17S17254   1.282   3.381   8.277  0.6053 -0.4766  0.3822
  155SAPE  C21817255   1.318   3.201   8.395 -0.1359 -0.7743 -0.1318
  155SAPE  H18R17256   1.413   3.258   8.398 -0.8552  0.5761 -1.9885
  155SAPE  H18S17257   1.331   3.130   8.311 -2.3417 -0.4280 -0.8059
  155SAPE  C21917258   1.277   3.137   8.518 -0.4800  0.6302 -1.0659
  155SAPE  H19R17259   1.173   3.100   8.525 -0.5014  1.1894  2.3451
  155SAPE  H19S17260   1.286   3.218   8.593  0.2544  0.5301 -1.0371
  155SAPE  C22017261   1.370   3.021   8.559 -0.0277  0.2072  0.7941
  155SAPE  H20R17262   1.356   2.995   8.666 -0.5809  0.3301  0.7534
  155SAPE  H20S17263   1.475   3.056   8.551 -1.1056  3.5957  0.5037
  155SAPE  H20T17264   1.362   2.928   8.499  0.2811  1.7186 -1.6587
  155SAPE   C3317265   0.656   3.778   7.204 -0.4630 -0.5078  0.1992
  155SAPE   H3X17266   0.767   3.773   7.204 -0.4598 -0.5513  0.9275
  155SAPE   H3Y17267   0.609   3.679   7.188 -0.1078 -0.8631  1.2944
  155SAPE   C3417268   0.623   3.808   7.355  0.0601 -0.2604  0.1620
  155SAPE   H4X17269   0.512   3.804   7.361  0.1436 -1.5009  1.1827
  155SAPE   H4Y17270   0.647   3.910   7.390  0.4959 -0.5091  0.5969
  155SAPE   C3517271   0.686   3.703   7.451 -0.1938 -0.2242 -1.0750
  155SAPE   H5X17272   0.794   3.727   7.453 -0.5111  1.1588  2.5774
  155SAPE   H5Y17273   0.670   3.597   7.420  1.6501 -1.0803  0.8300
  155SAPE   C3617274   0.625   3.727   7.594  0.1432  0.1919 -0.0224
  155SAPE   H6X17275   0.514   3.728   7.581  0.1099 -3.8537 -0.5799
  155SAPE   H6Y17276   0.660   3.822   7.640  2.0622 -1.6073  2.3211
  155SAPE   C3717277   0.664   3.630   7.692  0.2050  0.2286  0.2998
  155SAPE   H7X17278   0.762   3.659   7.735  0.5406 -1.1373  0.4806
  155SAPE   H7Y17279   0.686   3.528   7.654  1.5169  0.2290  1.0062
  155SAPE   C3817280   0.562   3.606   7.811 -0.0867  0.0956 -0.1067
  155SAPE   H8X17281   0.478   3.548   7.769 -0.7032 -1.0851  2.6392
  155SAPE   H8Y17282   0.526   3.705   7.849  1.7847  0.9860 -0.5746
  155SAPE   C3917283   0.620   3.521   7.928  0.6344  0.2273  0.9049
  155SAPE   H9X17284   0.703   3.575   7.978  1.0934  0.3323  0.0395
  155SAPE   H9Y17285   0.661   3.427   7.884 -1.0540 -0.8799  1.6205
  155SAPE  C31017286   0.519   3.484   8.030 -0.0319  0.6743 -0.2800
  155SAPE  H10X17287   0.571   3.409   8.094  0.0993  1.5908  0.6934
  155SAPE  H10Y17288   0.425   3.439   7.992  0.1538 -1.9509  2.1545
  155SAPE  C31117289   0.484   3.592   8.132  0.3546 -1.3274 -0.3891
  155SAPE  H11X17290   0.422   3.539   8.208  0.4603 -2.6242 -1.1977
  155SAPE  H11Y17291   0.418   3.668   8.086  0.9152 -0.0070  0.9537
  155SAPE  C31217292   0.600   3.640   8.215  0.5314  0.1853  0.2028
  155SAPE  H12X17293   0.678   3.685   8.150  1.3804  1.1218  1.8173
  155SAPE  H12Y17294   0.648   3.558   8.272 -1.7891  0.5645  2.8474
  155SAPE  C31317295   0.573   3.746   8.319 -0.4369 -0.4183 -0.1233
  155SAPE  H13X17296   0.675   3.771   8.354 -0.3653  1.7671 -1.7803
  155SAPE  H13Y17297   0.508   3.715   8.404 -1.1725 -1.0247 -0.8927
  155SAPE  C31417298   0.511   3.886   8.266  0.0283  0.6675 -0.4492
  155SAPE  H14X17299   0.405   3.866   8.240 -0.2713  0.7410  0.6957
  155SAPE  H14Y17300   0.563   3.903   8.169 -3.5830  0.8894 -2.4250
  155SAPE  C31517301   0.529   4.002   8.357  0.4163  0.5009  0.0303
  155SAPE  H15X17302   0.638   4.004   8.382  0.7813 -2.2806 -1.1786
  155SAPE  H15Y17303   0.470   3.982   8.449  0.6083 -0.2663 -0.0070
  155SAPE  C31617304   0.485   4.133   8.284 -0.1643 -0.0564  0.5042
  155SAPE  H16X17305   0.387   4.118   8.233 -1.0869 -0.7781  2.4491
  155SAPE  H16Y17306   0.562   4.164   8.210 -2.2645  2.1137 -0.8347
  155SAPE  C31717307   0.475   4.247   8.383  0.1758 -0.6906  0.1931
  155SAPE  H17X17308   0.395   4.222   8.456 -2.0722  2.7152 -0.9541
  155SAPE  H17Y17309   0.437   4.331   8.321  0.3683 -1.4793 -1.0227
  155SAPE  C31817310   0.611   4.281   8.455  0.1492 -0.4868  0.2922
  155SAPE  H18X17311   0.657   4.193   8.506  0.5520 -0.5169 -0.1184
  155SAPE  H18Y17312   0.604   4.366   8.527 -1.1225  0.0494 -0.4592
  155SAPE  H18Z17313   0.680   4.312   8.374  0.7573 -2.9991 -0.2044
  156SAPE     N17314   5.051   5.033   6.759  0.6109  0.0577  0.6297
  156SAPE   HN117315   5.047   4.938   6.716 -0.4492  1.0146 -1.4188
  156SAPE   HN217316   5.001   5.034   6.850 -0.3115  2.9141  0.1198
  156SAPE   HN317317   5.004   5.091   6.687  0.9026 -3.1126 -2.2394
  156SAPE   C1217318   5.193   5.069   6.762  0.7273  0.1163 -0.0179
  156SAPE  H12A17319   5.233   5.020   6.853  0.1527  0.1439  0.2511
  156SAPE  H12B17320   5.187   5.177   6.787 -1.1954 -0.2855  1.4094
  156SAPE   C1117321   5.266   5.023   6.632  0.4914 -0.4229  0.7392
  156SAPE  H11A17322   5.266   4.912   6.627 -0.7621 -0.3652 -1.8255
  156SAPE  H11B17323   5.371   5.057   6.628  0.0988  0.9262  1.6898
  156SAPE     P17324   5.254   5.073   6.373 -0.1002  0.1386  0.2825
  156SAPE   O1317325   5.142   5.036   6.280  0.3114 -0.2195  0.4490
  156SAPE   O1417326   5.327   5.195   6.348  0.2641 -0.4604  0.0199
  156SAPE   O1217327   5.188   5.069   6.518 -0.4548 -0.0228  0.2924
  156SAPE   O1117328   5.358   4.958   6.377  0.0325 -0.2709 -0.2250
  156SAPE    C117329   5.312   4.825   6.351 -1.0746 -0.3224  0.1443
  156SAPE    HA17330   5.213   4.802   6.396 -1.4400 -1.3604 -1.1776
  156SAPE    HB17331   5.315   4.805   6.242 -1.9576 -0.8463  0.2154
  156SAPE    C217332   5.413   4.725   6.404  0.8405  0.9634  0.3402
  156SAPE    HS17333   5.367   4.624   6.396  0.8242  1.1101 -1.6950
  156SAPE   O2117334   5.444   4.760   6.544  0.1855 -0.4832 -0.2439
  156SAPE   C2117335   5.384   4.692   6.642  0.0210  0.2005  0.3301
  156SAPE   O2217336   5.304   4.598   6.616  0.3121 -0.3634 -0.4273
  156SAPE   C2217337   5.424   4.736   6.779 -0.3184 -0.1164  0.2576
  156SAPE   H2R17338   5.340   4.789   6.828 -0.6051 -1.2576  1.0103
  156SAPE   H2S17339   5.457   4.651   6.842 -1.2560 -0.3563  0.4166
  156SAPE    C317340   5.541   4.733   6.331  0.5890 -0.2146  0.6054
  156SAPE    HX17341   5.594   4.831   6.335  0.4762 -0.1681  0.9363
  156SAPE    HY17342   5.522   4.714   6.223 -0.5707 -2.1821  1.1333
  156SAPE   O3117343   5.620   4.629   6.385  0.7039  0.0555 -0.2536
  156SAPE   C3117344   5.702   4.652   6.484  0.9454  0.2787 -0.5119
  156SAPE   O3217345   5.732   4.762   6.530 -0.2692  0.2446 -0.1489
  156SAPE   C3217346   5.759   4.518   6.522  0.1932  0.1748 -0.2248
  156SAPE   H2X17347   5.867   4.542   6.535  0.0053  1.5408 -1.1186
  156SAPE   H2Y17348   5.748   4.449   6.436 -1.0769  0.2425 -0.1226
  156SAPE   C2317349   5.552   4.827   6.783 -0.0931 -0.3912  0.3971
  156SAPE   H3R17350   5.547   4.918   6.720 -2.2374 -0.7708 -0.0364
  156SAPE   H3S17351   5.637   4.765   6.748  0.1191 -0.0942  0.3862
  156SAPE   C2417352   5.582   4.856   6.934  0.5577 -0.0957 -0.0778
  156SAPE   H4R17353   5.687   4.889   6.942  0.3763  0.5282 -0.2111
  156SAPE   H4S17354   5.578   4.752   6.975 -0.4792  0.4120  1.1822
  156SAPE   C2517355   5.488   4.954   7.003  0.2739  0.0658 -0.2752
  156SAPE   H5R17356   5.486   5.062   6.983 -0.3315  0.4248  1.6377
  156SAPE   C2617357   5.414   4.922   7.112  0.6414 -0.2690  0.1031
  156SAPE   H6R17358   5.355   5.001   7.160  0.0497  0.5875 -1.9690
  156SAPE   C2717359   5.389   4.784   7.175  0.1952 -0.0135 -0.0414
  156SAPE   H7R17360   5.330   4.713   7.114 -2.2087  1.2533  0.7233
  156SAPE   H7S17361   5.314   4.804   7.256 -0.6755 -1.1757 -0.5542
  156SAPE   C2817362   5.512   4.731   7.248  0.2152  0.1355 -0.2206
  156SAPE   H8R17363   5.599   4.700   7.188  0.4901  2.1044 -0.8814
  156SAPE   C2917364   5.532   4.713   7.383  0.4069 -0.0804 -0.6360
  156SAPE   H9R17365   5.627   4.667   7.413  0.4483 -0.1615 -0.8859
  156SAPE  C21017366   5.439   4.752   7.495 -0.4785 -0.1507  0.2887
  156SAPE  H10R17367   5.455   4.685   7.583  1.8455 -1.0329 -0.7778
  156SAPE  H10S17368   5.334   4.752   7.458  0.1930 -0.6638 -1.6724
  156SAPE  C21117369   5.482   4.896   7.526  0.2793  0.0931  0.2824
  156SAPE  H11R17370   5.536   4.951   7.447 -0.6824  0.5300 -0.0846
  156SAPE  C21217371   5.474   4.951   7.650 -0.2382  0.7092  0.1839
  156SAPE  H12R17372   5.514   5.052   7.669  4.6191 -1.1239  0.5205
  156SAPE  C21317373   5.437   4.882   7.779 -0.0377  0.6696 -0.0662
  156SAPE  H13R17374   5.479   4.779   7.773 -1.5893  0.0558 -0.6827
  156SAPE  H13S17375   5.326   4.885   7.773 -0.0430  0.2918 -0.1273
  156SAPE  C21417376   5.470   4.953   7.904 -0.3398  0.0763 -0.4272
  156SAPE  H14R17377   5.442   5.059   7.908  0.0717  0.2445 -1.5892
  156SAPE  C21517378   5.531   4.897   8.010  0.1078  0.2161 -0.1864
  156SAPE  H15R17379   5.551   4.968   8.092 -2.7827  0.0699  0.6899
  156SAPE  C21617380   5.585   4.750   8.027  0.8541 -0.9093  0.3404
  156SAPE  H16R17381   5.687   4.762   8.070  1.0679 -0.5248 -0.2773
  156SAPE  H16S17382   5.592   4.695   7.931 -0.1184  0.0562 -0.2934
  156SAPE  C21717383   5.498   4.665   8.124 -0.5397  0.2966  0.0668
  156SAPE  H17R17384   5.537   4.563   8.103  1.0574  0.9834 -0.3508
  156SAPE  H17S17385   5.393   4.664   8.088 -1.5503  0.9812  2.8453
  156SAPE  C21817386   5.503   4.714   8.266  0.3272 -0.4981 -0.5493
  156SAPE  H18R17387   5.431   4.796   8.285 -0.0321 -1.0722  0.5954
  156SAPE  H18S17388   5.606   4.750   8.290 -0.6538  1.8232  0.3330
  156SAPE  C21917389   5.450   4.599   8.353 -0.3653  0.5166 -0.5092
  156SAPE  H19R17390   5.524   4.516   8.345 -2.1669 -1.3336  1.2978
  156SAPE  H19S17391   5.352   4.566   8.312  0.9228 -0.2978 -3.0963
  156SAPE  C22017392   5.428   4.633   8.499  0.3256  0.2844 -0.7738
  156SAPE  H20R17393   5.527   4.656   8.545 -0.0235  1.0154 -0.3852
  156SAPE  H20S17394   5.373   4.559   8.560  0.2750  1.8613  1.1499
  156SAPE  H20T17395   5.366   4.725   8.501 -0.7303 -0.4500  0.6399
  156SAPE   C3317396   5.712   4.453   6.653  0.0600  0.8887 -0.7064
  156SAPE   H3X17397   5.650   4.523   6.714  0.3376 -0.4774  1.1908
  156SAPE   H3Y17398   5.803   4.417   6.706 -0.6706  1.2115  0.8236
  156SAPE   C3417399   5.621   4.321   6.633 -0.0688  0.4510  0.1420
  156SAPE   H4X17400   5.678   4.244   6.576 -1.2634 -0.4923  0.2170
  156SAPE   H4Y17401   5.537   4.344   6.564 -0.2989  0.6053  0.4747
  156SAPE   C3517402   5.569   4.254   6.767 -0.2347 -0.0352  0.2914
  156SAPE   H5X17403   5.660   4.224   6.823  1.7962  4.3807 -0.4210
  156SAPE   H5Y17404   5.506   4.167   6.740  1.4116 -1.2484  0.2331
  156SAPE   C3617405   5.478   4.354   6.836  0.0237 -0.6018  0.1033
  156SAPE   H6X17406   5.412   4.398   6.758 -2.4801 -2.3020  1.2068
  156SAPE   H6Y17407   5.548   4.432   6.875 -0.3765  1.0322 -2.3480
  156SAPE   C3717408   5.417   4.286   6.960 -0.3782 -0.5161 -0.7770
  156SAPE   H7X17409   5.501   4.229   7.006 -0.0256 -0.3456 -1.2090
  156SAPE   H7Y17410   5.322   4.233   6.939 -0.8733 -0.2911  0.7732
  156SAPE   C3817411   5.372   4.393   7.062  0.3607  0.4363  0.5945
  156SAPE   H8X17412   5.297   4.458   7.013  1.2730 -0.2254 -1.7562
  156SAPE   H8Y17413   5.457   4.463   7.075 -0.0709  1.5337 -2.1338
  156SAPE   C3917414   5.323   4.320   7.185  0.9458 -0.0176 -0.0154
  156SAPE   H9X17415   5.390   4.234   7.206 -1.6009 -1.9790  0.2553
  156SAPE   H9Y17416   5.221   4.281   7.166 -0.0712  1.4522  2.1893
  156SAPE  C31017417   5.310   4.410   7.311  0.5778  0.3273 -0.4012
  156SAPE  H10X17418   5.227   4.479   7.282 -0.2362 -0.0280  1.0823
  156SAPE  H10Y17419   5.402   4.472   7.319  1.2515 -0.7929  0.6737
  156SAPE  C31117420   5.286   4.339   7.449 -0.1235 -0.4569  0.4277
  156SAPE  H11X17421   5.363   4.261   7.463  0.8016  0.6038  1.3348
  156SAPE  H11Y17422   5.196   4.274   7.441  0.6505 -1.5957  0.8548
  156SAPE  C31217423   5.281   4.443   7.557  0.3507  0.4362 -0.2116
  156SAPE  H12X17424   5.219   4.525   7.516  1.4325  2.0732  1.3914
  156SAPE  H12Y17425   5.387   4.474   7.564  1.3205 -3.0676  2.1378
  156SAPE  C31317426   5.261   4.389   7.699  0.0082  0.0701  0.8359
  156SAPE  H13X17427   5.349   4.322   7.714  0.8006  1.3199  1.8962
  156SAPE  H13Y17428   5.167   4.331   7.695 -1.0880  1.8172  0.7762
  156SAPE  C31417429   5.263   4.509   7.796 -0.5083  0.7773 -0.5051
  156SAPE  H14X17430   5.213   4.599   7.754  0.0021  1.5432  0.4911
  156SAPE  H14Y17431   5.369   4.541   7.812 -1.0067  1.7983  0.9374
  156SAPE  C31517432   5.188   4.480   7.926  0.4748 -0.5920  0.0551
  156SAPE  H15X17433   5.087   4.443   7.901  0.3414  0.1041 -0.4386
  156SAPE  H15Y17434   5.174   4.570   7.990 -0.2120 -1.6653  1.4470
  156SAPE  C31617435   5.252   4.376   8.015  0.7215 -0.1346  0.0424
  156SAPE  H16X17436   5.354   4.408   8.045 -0.8046  2.6654  2.5570
  156SAPE  H16Y17437   5.270   4.277   7.967 -2.3609 -0.2465 -0.9357
  156SAPE  C31717438   5.157   4.344   8.131 -0.1898 -0.1308  0.1630
  156SAPE  H17X17439   5.052   4.320   8.104  0.2418  0.8492 -2.5079
  156SAPE  H17Y17440   5.141   4.443   8.180  0.3295 -0.1333  0.3415
  156SAPE  C31817441   5.221   4.246   8.227  0.3406 -0.2364  0.2394
  156SAPE  H18X17442   5.161   4.236   8.320 -0.2487 -0.9293 -0.2124
  156SAPE  H18Y17443   5.322   4.288   8.249  0.3479 -0.3597  0.4442
  156SAPE  H18Z17444   5.234   4.150   8.173 -0.3142 -1.1850  1.7341
  157SAPE     N17445   2.665   5.600   5.979  0.0840 -0.3770  0.5347
  157SAPE   HN117446   2.766   5.597   6.004  0.4917 -1.7119 -1.2014
  157SAPE   HN217447   2.660   5.558   5.884 -0.0789  0.4200  0.1897
  157SAPE   HN317448   2.628   5.696   5.965 -0.6600 -1.0648 -2.5546
  157SAPE   C1217449   2.597   5.504   6.067  0.1134 -0.5343 -0.2314
  157SAPE  H12A17450   2.672   5.424   6.087  2.8856  1.2146 -3.0501
  157SAPE  H12B17451   2.503   5.478   6.013 -0.1990 -0.2361  0.1664
  157SAPE   C1117452   2.570   5.569   6.200 -0.1418 -0.0040  0.0204
  157SAPE  H11A17453   2.662   5.610   6.247 -0.6273  0.8317  0.2665
  157SAPE  H11B17454   2.530   5.498   6.276  2.5355 -0.0889  1.4036
  157SAPE     P17455   2.485   5.825   6.196 -0.2386 -0.3269  0.1195
  157SAPE   O1317456   2.570   5.872   6.086  0.1278 -0.3215  0.2827
  157SAPE   O1417457   2.349   5.887   6.208  0.2735 -0.2819 -0.0981
  157SAPE   O1217458   2.473   5.672   6.180  0.8086  0.3156 -0.1277
  157SAPE   O1117459   2.564   5.833   6.331 -0.3014  0.6059  0.1787
  157SAPE    C117460   2.493   5.790   6.448  0.3412  0.1808 -0.3029
  157SAPE    HA17461   2.395   5.842   6.453  0.3177  0.1956 -0.8779
  157SAPE    HB17462   2.472   5.681   6.451  3.3482 -0.4552 -0.5766
  157SAPE    C217463   2.563   5.818   6.584 -0.1076 -0.3852 -0.1117
  157SAPE    HS17464   2.588   5.926   6.577  2.3834 -0.5640  4.0643
  157SAPE   O2117465   2.678   5.730   6.581  0.1823  0.1953  0.3872
  157SAPE   C2117466   2.785   5.777   6.641 -0.8552 -0.2424  0.0448
  157SAPE   O2217467   2.800   5.892   6.679  0.5929  0.3918  0.3275
  157SAPE   C2217468   2.897   5.669   6.643  0.2525  0.4656 -0.3244
  157SAPE   H2R17469   2.850   5.570   6.660  2.3308 -0.3053  1.2258
  157SAPE   H2S17470   2.951   5.659   6.546  0.9548 -1.0558  0.2072
  157SAPE    C317471   2.470   5.796   6.710 -0.3060 -0.0792  0.0600
  157SAPE    HX17472   2.416   5.699   6.706 -1.3017  0.5308 -2.0530
  157SAPE    HY17473   2.382   5.864   6.710 -0.1946  0.0673 -0.3580
  157SAPE   O3117474   2.550   5.799   6.831 -0.2256  1.0632  0.5352
  157SAPE   C3117475   2.570   5.919   6.876  0.5778  0.2356  0.1149
  157SAPE   O3217476   2.524   6.018   6.825  0.1721 -0.1050  0.3833
  157SAPE   C3217477   2.652   5.912   7.010  0.6292  0.2815  0.1357
  157SAPE   H2X17478   2.727   5.830   7.012  1.8496  1.3938  2.5643
  157SAPE   H2Y17479   2.583   5.894   7.095  0.0201  2.8953  0.2397
  157SAPE   C2317480   3.017   5.710   6.749 -0.2975 -0.1302  0.4929
  157SAPE   H3R17481   2.959   5.724   6.843 -1.0760  0.6785 -0.0903
  157SAPE   H3S17482   3.055   5.809   6.717  3.0490 -1.7576 -0.8282
  157SAPE   C2417483   3.126   5.606   6.775  0.1645  0.0566  0.3546
  157SAPE   H4R17484   3.193   5.643   6.857  1.0690 -0.6229 -0.0701
  157SAPE   H4S17485   3.186   5.604   6.682 -0.5607  0.4198 -0.1197
  157SAPE   C2517486   3.065   5.480   6.818 -0.3649  0.2456  0.2324
  157SAPE   H5R17487   3.051   5.412   6.734 -0.6740 -0.7708  1.0977
  157SAPE   C2617488   3.050   5.434   6.940 -0.3333  0.3279  0.1548
  157SAPE   H6R17489   2.979   5.351   6.956 -1.3226  0.8689 -1.2541
  157SAPE   C2717490   3.084   5.502   7.073 -0.6499 -0.2005  0.5622
  157SAPE   H7R17491   3.009   5.583   7.088  1.2655  1.2903  2.4092
  157SAPE   H7S17492   3.177   5.561   7.067 -1.6664  1.5341  1.4110
  157SAPE   C2817493   3.089   5.422   7.203  0.6624 -0.5873 -0.1439
  157SAPE   H8R17494   3.101   5.313   7.191  4.8250 -0.1059 -1.0834
  157SAPE   C2917495   3.075   5.466   7.325  0.3512 -0.1996 -0.3659
  157SAPE   H9R17496   3.078   5.394   7.408 -0.2519 -0.2374 -0.3753
  157SAPE  C21017497   3.059   5.613   7.371 -0.0787  0.0717  0.0553
  157SAPE  H10R17498   3.007   5.666   7.288  0.5208 -0.4320 -0.6507
  157SAPE  H10S17499   3.156   5.667   7.378 -0.1161  0.2961 -0.9838
  157SAPE  C21117500   2.967   5.624   7.489  0.1374 -0.7329 -0.1028
  157SAPE  H11R17501   2.867   5.661   7.463 -0.8113 -1.8062  1.9574
  157SAPE  C21217502   2.993   5.578   7.612 -0.1420  0.7969 -0.5606
  157SAPE  H12R17503   2.918   5.598   7.690  0.5451 -0.2647  0.3696
  157SAPE  C21317504   3.127   5.525   7.655  0.0932  0.3054  0.4504
  157SAPE  H13R17505   3.176   5.592   7.728  2.0042  1.4358 -1.8055
  157SAPE  H13S17506   3.204   5.521   7.575  1.5339 -3.6583  1.8757
  157SAPE  C21417507   3.111   5.382   7.710  0.1489 -0.7090  0.4877
  157SAPE  H14R17508   3.127   5.298   7.642 -0.8177 -0.5078  0.0075
  157SAPE  C21517509   3.107   5.344   7.838  0.1180 -0.2742 -0.5444
  157SAPE  H15R17510   3.109   5.236   7.858 -2.8246 -0.2327  0.0906
  157SAPE  C21617511   3.102   5.442   7.957  0.0039 -0.3018  0.1417
  157SAPE  H16R17512   3.010   5.422   8.016  0.6247 -4.0784  0.0026
  157SAPE  H16S17513   3.087   5.547   7.925  1.1119  0.2660  1.4356
  157SAPE  C21717514   3.207   5.436   8.063 -0.2101  0.6727  0.2488
  157SAPE  H17R17515   3.213   5.346   8.128  0.3608  0.9955  0.6411
  157SAPE  H17S17516   3.174   5.515   8.133  0.3220 -0.6015  1.9715
  157SAPE  C21817517   3.347   5.472   8.016  0.4610  0.0749  0.3138
  157SAPE  H18R17518   3.342   5.577   7.979 -0.2995  0.0057  0.2084
  157SAPE  H18S17519   3.366   5.402   7.932 -1.6887 -0.6538  0.4168
  157SAPE  C21917520   3.454   5.464   8.121 -0.1311 -0.2659  0.1763
  157SAPE  H19R17521   3.555   5.452   8.074 -0.0289 -1.7934  0.7565
  157SAPE  H19S17522   3.431   5.380   8.189 -0.7055 -0.1441  0.1361
  157SAPE  C22017523   3.472   5.589   8.210  0.4845 -0.0013  0.0547
  157SAPE  H20R17524   3.549   5.569   8.288  1.0967  1.5754 -0.1286
  157SAPE  H20S17525   3.375   5.616   8.255  1.1362 -0.6593  1.9174
  157SAPE  H20T17526   3.510   5.682   8.162 -2.1465  0.3735 -1.3864
  157SAPE   C3317527   2.733   6.041   7.043 -0.0438  0.0532 -0.3404
  157SAPE   H3X17528   2.669   6.131   7.052  0.1405 -0.0133  1.9559
  157SAPE   H3Y17529   2.805   6.047   6.958  1.5841 -1.6635  0.8719
  157SAPE   C3417530   2.813   6.022   7.179  0.1115  0.1955  0.2118
  157SAPE   H4X17531   2.863   6.118   7.205  0.1989  1.2815 -3.6717
  157SAPE   H4Y17532   2.887   5.940   7.171  1.0919  1.2821 -2.4457
  157SAPE   C3517533   2.716   5.977   7.298  1.1460 -0.0073  0.0961
  157SAPE   H5X17534   2.672   5.880   7.267 -1.1569  1.1151 -0.2868
  157SAPE   H5Y17535   2.634   6.051   7.309 -0.1163 -0.9246 -2.5474
  157SAPE   C3617536   2.788   5.957   7.430  0.1360 -0.6354  0.4897
  157SAPE   H6X17537   2.829   6.053   7.469  1.6709 -0.2140 -2.0947
  157SAPE   H6Y17538   2.871   5.884   7.418 -0.0200 -1.0539  1.7855
  157SAPE   C3717539   2.694   5.895   7.540  0.1115 -0.6804  0.7064
  157SAPE   H7X17540   2.651   5.798   7.506 -1.4423 -1.3613  4.3684
  157SAPE   H7Y17541   2.608   5.963   7.558 -0.4022 -1.1631  0.0925
  157SAPE   C3817542   2.768   5.872   7.669  0.1811 -0.8330  0.2486
  157SAPE   H8X17543   2.867   5.829   7.642  1.5087  1.2249  1.6453
  157SAPE   H8Y17544   2.719   5.796   7.733  0.8535 -0.7844  0.8266
  157SAPE   C3917545   2.792   5.993   7.757  0.4974 -0.2954  0.2607
  157SAPE   H9X17546   2.708   6.009   7.827 -0.1024 -1.4962 -0.1600
  157SAPE   H9Y17547   2.799   6.081   7.689 -0.4719 -1.0915 -0.9022
  157SAPE  C31017548   2.922   5.979   7.829  0.1437 -0.1910 -0.0132
  157SAPE  H10X17549   3.001   5.957   7.754  3.5220 -1.0183  3.6827
  157SAPE  H10Y17550   2.929   5.899   7.906 -0.6216 -0.4623 -0.2154
  157SAPE  C31117551   2.970   6.110   7.901  0.2965  0.0729  0.1874
  157SAPE  H11X17552   3.067   6.105   7.955 -0.3494  3.0943  1.7559
  157SAPE  H11Y17553   2.898   6.133   7.982 -1.0334 -0.2586 -0.8949
  157SAPE  C31217554   2.970   6.241   7.815 -0.0642 -0.4588  0.1262
  157SAPE  H12X17555   2.863   6.266   7.796 -0.1274 -0.4455  0.4981
  157SAPE  H12Y17556   3.016   6.213   7.717  0.4921 -2.2515  0.8826
  157SAPE  C31317557   3.045   6.359   7.882 -0.6197  0.2185  0.5252
  157SAPE  H13X17558   2.998   6.396   7.976  2.6200  0.1994  2.2219
  157SAPE  H13Y17559   3.040   6.443   7.809  0.4898 -0.2447 -0.0931
  157SAPE  C31417560   3.189   6.331   7.917 -0.0643 -0.1573 -0.4667
  157SAPE  H14X17561   3.242   6.286   7.831 -0.7807 -4.0196  0.9786
  157SAPE  H14Y17562   3.176   6.259   8.001  0.0711 -1.3800 -1.4727
  157SAPE  C31517563   3.269   6.453   7.967 -0.5779  0.4117  0.3437
  157SAPE  H15X17564   3.272   6.524   7.881  0.6020 -1.5808 -1.2995
  157SAPE  H15Y17565   3.369   6.411   7.989 -1.4070 -0.5487  2.4039
  157SAPE  C31617566   3.234   6.522   8.101 -0.1636  0.3787  0.0365
  157SAPE  H16X17567   3.242   6.453   8.188  1.7858 -0.2546 -0.6264
  157SAPE  H16Y17568   3.130   6.560   8.094 -0.1571  0.9036  2.3086
  157SAPE  C31717569   3.314   6.650   8.135 -0.0301  0.2328  0.2284
  157SAPE  H17X17570   3.326   6.715   8.046 -0.9365 -1.1475 -0.9297
  157SAPE  H17Y17571   3.418   6.618   8.160  0.6060  1.5525 -0.6605
  157SAPE  C31817572   3.263   6.717   8.261  0.2806  0.2505  0.2301
  157SAPE  H18X17573   3.305   6.820   8.267  0.4109  0.2806 -1.1415
  157SAPE  H18Y17574   3.297   6.663   8.352  0.9552  2.5226  1.3566
  157SAPE  H18Z17575   3.153   6.729   8.268  0.2898  0.6463 -0.3023
  158SAPE     N17576   4.929   3.202   6.081 -0.4929  0.1806 -0.8732
  158SAPE   HN117577   4.907   3.258   5.996  1.8600  0.5992 -1.2359
  158SAPE   HN217578   5.022   3.239   6.110 -0.9227 -0.0341  0.8094
  158SAPE   HN317579   4.928   3.100   6.058 -0.5478 -0.1977  0.7770
  158SAPE   C1217580   4.840   3.233   6.196 -0.1727  0.5979 -0.8045
  158SAPE  H12A17581   4.900   3.248   6.288 -1.6688  3.0536 -0.1653
  158SAPE  H12B17582   4.768   3.151   6.217  0.4096  0.4642  0.7083
  158SAPE   C1117583   4.767   3.360   6.162  0.3224 -0.8699 -0.6289
  158SAPE  H11A17584   4.682   3.375   6.233  1.3284  1.0048  0.2205
  158SAPE  H11B17585   4.726   3.354   6.060 -3.4629  2.3318  0.5612
  158SAPE     P17586   4.886   3.562   6.288 -0.2337 -0.3007 -0.1567
  158SAPE   O1317587   5.013   3.518   6.349  0.3249 -0.0691  0.3003
  158SAPE   O1417588   4.887   3.703   6.244 -0.2506  0.2761  0.1734
  158SAPE   O1217589   4.853   3.475   6.164 -0.5389 -0.1834  0.3681
  158SAPE   O1117590   4.765   3.536   6.389  0.6381  0.0222  0.1444
  158SAPE    C117591   4.791   3.457   6.505  0.5523  0.0181  0.4374
  158SAPE    HA17592   4.702   3.394   6.528 -1.2506  2.6414  0.9176
  158SAPE    HB17593   4.873   3.383   6.493 -0.5770 -1.2537  0.4369
  158SAPE    C217594   4.829   3.542   6.625 -0.7008 -0.2043 -0.4036
  158SAPE    HS17595   4.933   3.580   6.630 -0.4768 -0.9822  1.1631
  158SAPE   O2117596   4.805   3.463   6.747  0.1372  0.2619 -0.8030
  158SAPE   C2117597   4.900   3.478   6.844 -0.6508 -0.2609  0.8862
  158SAPE   O2217598   5.006   3.540   6.830 -0.0195 -0.4025  0.2510
  158SAPE   C2217599   4.857   3.397   6.972  0.1714 -0.0417  0.0408
  158SAPE   H2R17600   4.749   3.417   6.990 -0.5957 -2.9459 -0.9995
  158SAPE   H2S17601   4.857   3.295   6.929 -1.2494  0.8196 -2.0623
  158SAPE    C317602   4.734   3.672   6.629  0.0129  0.0313  0.4407
  158SAPE    HX17603   4.627   3.645   6.614  0.2669  0.0423 -1.5209
  158SAPE    HY17604   4.746   3.738   6.541 -1.2023 -0.4134 -0.0600
  158SAPE   O3117605   4.760   3.752   6.743  0.7629  0.7035 -1.2394
  158SAPE   C3117606   4.870   3.826   6.751  0.5150 -0.7938  0.4652
  158SAPE   O3217607   4.961   3.822   6.672 -0.6015  0.2605  0.5363
  158SAPE   C3217608   4.868   3.925   6.871  0.0846 -0.4879  0.3814
  158SAPE   H2X17609   4.824   3.880   6.962 -0.0307 -1.1755 -0.0077
  158SAPE   H2Y17610   4.803   4.009   6.837  2.0313  0.8565 -0.1114
  158SAPE   C2317611   4.943   3.416   7.096 -0.8120  0.3015 -0.7592
  158SAPE   H3R17612   5.048   3.435   7.064 -1.1347  0.3221 -1.8296
  158SAPE   H3S17613   4.945   3.320   7.151  0.3536  0.6181 -0.2170
  158SAPE   C2417614   4.904   3.529   7.196 -0.2455 -0.2759 -0.3211
  158SAPE   H4R17615   4.804   3.510   7.241 -0.3451 -1.3390 -0.9894
  158SAPE   H4S17616   4.882   3.618   7.133  2.8941  0.2684 -0.7175
  158SAPE   C2517617   5.009   3.569   7.289  1.0207  0.2002 -0.9348
  158SAPE   H5R17618   5.097   3.613   7.240  2.6736  1.2490  2.8726
  158SAPE   C2617619   5.019   3.546   7.422  0.1913  0.3413 -0.4714
  158SAPE   H6R17620   5.102   3.590   7.479 -0.7143 -1.1855  2.1221
  158SAPE   C2717621   4.917   3.492   7.516 -0.2889  0.0166  0.2832
  158SAPE   H7R17622   4.967   3.426   7.591 -1.6908 -0.4275  0.8525
  158SAPE   H7S17623   4.844   3.422   7.470 -0.5812  0.4648  0.0586
  158SAPE   C2817624   4.833   3.599   7.580  0.1146 -0.4709  0.0593
  158SAPE   H8R17625   4.760   3.653   7.518  0.6671 -0.6042 -0.7158
  158SAPE   C2917626   4.844   3.643   7.705 -0.0531  0.2606 -0.8139
  158SAPE   H9R17627   4.778   3.724   7.737 -1.0548 -0.6563 -0.5306
  158SAPE  C21017628   4.931   3.598   7.817 -0.8613 -0.7455  0.1085
  158SAPE  H10R17629   4.958   3.683   7.883 -0.1858 -1.6613  1.0214
  158SAPE  H10S17630   5.032   3.575   7.779  0.3937  2.7205  1.1205
  158SAPE  C21117631   4.884   3.480   7.903 -0.7494  0.9249 -0.5234
  158SAPE  H11R17632   4.848   3.394   7.845  0.7662  0.2660 -0.5096
  158SAPE  C21217633   4.896   3.467   8.034 -0.0438 -0.0850  0.1442
  158SAPE  H12R17634   4.850   3.379   8.082 -3.6740  1.5298 -0.2613
  158SAPE  C21317635   4.958   3.562   8.138 -0.5230 -0.5531  0.1691
  158SAPE  H13R17636   4.951   3.669   8.107  2.6370 -0.4354 -0.2309
  158SAPE  H13S17637   5.067   3.544   8.139 -0.5287 -0.6922 -1.2037
  158SAPE  C21417638   4.902   3.553   8.276 -0.6782  0.2088 -1.0948
  158SAPE  H14R17639   4.817   3.620   8.295 -2.0918 -1.9686  0.3867
  158SAPE  C21517640   4.948   3.471   8.374  0.1123  0.5438  0.1450
  158SAPE  H15R17641   4.891   3.472   8.469  0.1140  0.4569  0.1469
  158SAPE  C21617642   5.067   3.372   8.352 -0.0678 -0.5009 -0.0170
  158SAPE  H16R17643   5.166   3.419   8.366 -0.0377 -1.0110  1.4945
  158SAPE  H16S17644   5.060   3.348   8.243 -1.0459  0.2923 -0.1434
  158SAPE  C21717645   5.058   3.235   8.412 -0.9779 -0.3805 -0.0605
  158SAPE  H17R17646   4.956   3.200   8.385 -1.4692  2.0688 -1.4628
  158SAPE  H17S17647   5.069   3.239   8.523 -1.7772  0.5472 -0.0124
  158SAPE  C21817648   5.175   3.152   8.364  0.1147 -0.5105 -0.0657
  158SAPE  H18R17649   5.266   3.213   8.382  0.6670 -1.8336  1.7058
  158SAPE  H18S17650   5.174   3.140   8.253  1.5042 -0.5066 -0.0828
  158SAPE  C21917651   5.197   3.009   8.415 -0.0760 -0.0170  0.1462
  158SAPE  H19R17652   5.239   3.019   8.518 -2.5642  2.2952  0.9968
  158SAPE  H19S17653   5.277   2.960   8.355 -0.7211  0.6235 -1.2532
  158SAPE  C22017654   5.070   2.918   8.412 -0.4203 -0.1726  0.1651
  158SAPE  H20R17655   5.041   2.893   8.308 -1.1399  2.5398 -0.3252
  158SAPE  H20S17656   4.982   2.960   8.464 -1.4951  0.4479 -2.0733
  158SAPE  H20T17657   5.093   2.823   8.465 -2.9291 -0.5327  0.6317
  158SAPE   C3317658   5.003   3.981   6.915 -0.0235  0.0205  0.0202
  158SAPE   H3X17659   5.032   4.045   6.829 -3.0590  1.2403 -0.1830
  158SAPE   H3Y17660   5.078   3.900   6.924 -0.0502 -0.0435 -0.3070
  158SAPE   C3417661   4.996   4.052   7.052  0.0946  0.5456 -0.5752
  158SAPE   H4X17662   4.917   4.129   7.057 -1.3676 -0.8404 -1.8147
  158SAPE   H4Y17663   5.098   4.094   7.068 -0.0460  0.4577  0.5560
  158SAPE   C3517664   4.964   3.971   7.180  0.4467 -0.0394 -0.4577
  158SAPE   H5X17665   5.010   3.870   7.187  0.2064 -0.0500  1.3697
  158SAPE   H5Y17666   4.856   3.944   7.175  0.1377  1.0129  0.3125
  158SAPE   C3617667   4.994   4.060   7.305  0.7188 -0.1485  0.5745
  158SAPE   H6X17668   4.932   4.152   7.305  0.8702 -0.0383 -0.7261
  158SAPE   H6Y17669   5.097   4.096   7.283  0.3065  1.1071  0.6778
  158SAPE   C3717670   4.986   3.985   7.441  0.0743 -0.6959 -0.2861
  158SAPE   H7X17671   4.885   3.941   7.458 -0.2613  0.5405  1.0485
  158SAPE   H7Y17672   5.047   3.893   7.444  0.7652 -0.2066  2.2101
  158SAPE   C3817673   5.019   4.076   7.561 -1.2765 -1.2824  0.1419
  158SAPE   H8X17674   4.959   4.169   7.548  0.7454  0.3242  1.9619
  158SAPE   H8Y17675   5.126   4.105   7.556 -1.3323 -1.1937 -0.5901
  158SAPE   C3917676   4.993   4.006   7.697 -0.7028 -0.5752 -0.1936
  158SAPE   H9X17677   5.043   3.908   7.707 -0.9961 -0.5938  1.3173
  158SAPE   H9Y17678   4.883   3.990   7.691 -1.2235  0.7155  4.0035
  158SAPE  C31017679   5.028   4.097   7.814 -0.1961 -0.1643  0.0975
  158SAPE  H10X17680   4.978   4.195   7.797 -0.1365  0.0494  1.1198
  158SAPE  H10Y17681   5.138   4.105   7.812 -0.0944 -1.0141  1.6104
  158SAPE  C31117682   4.974   4.040   7.948  0.7055  0.4765 -0.7045
  158SAPE  H11X17683   4.995   4.111   8.031  2.0618 -0.6017 -0.0928
  158SAPE  H11Y17684   5.038   3.950   7.968  1.0710  0.3904 -2.2328
  158SAPE  C31217685   4.827   4.013   7.946  0.9711  0.3135 -0.6523
  158SAPE  H12X17686   4.828   3.922   7.882  0.8066 -0.3127  0.2256
  158SAPE  H12Y17687   4.778   4.091   7.883  2.1919  1.1101 -0.6422
  158SAPE  C31317688   4.754   4.018   8.081  0.1470  0.8648  0.3956
  158SAPE  H13X17689   4.815   3.961   8.155 -1.0313 -1.1123 -0.1181
  158SAPE  H13Y17690   4.657   3.965   8.072 -0.2174  1.9210 -2.1504
  158SAPE  C31417691   4.725   4.153   8.152 -0.6690 -0.1371 -0.7259
  158SAPE  H14X17692   4.652   4.217   8.097 -2.3330  1.0796  2.6944
  158SAPE  H14Y17693   4.821   4.198   8.187 -1.8388  0.9861  1.1930
  158SAPE  C31517694   4.669   4.126   8.293 -0.1524  0.4504 -0.4761
  158SAPE  H15X17695   4.697   4.204   8.367  1.2934  0.4850 -1.0440
  158SAPE  H15Y17696   4.709   4.026   8.322  2.5222  1.0058 -2.0722
  158SAPE  C31617697   4.515   4.114   8.304  0.3005  0.0887 -0.2915
  158SAPE  H16X17698   4.492   4.037   8.227  0.5430 -0.3660  0.0854
  158SAPE  H16Y17699   4.462   4.208   8.278 -2.1632 -1.2589 -0.2585
  158SAPE  C31717700   4.461   4.084   8.446  0.3481  0.1345  0.0438
  158SAPE  H17X17701   4.495   4.155   8.524  0.5358  2.4308 -2.0375
  158SAPE  H17Y17702   4.497   3.984   8.475 -2.5370 -0.8163  0.5140
  158SAPE  C31817703   4.304   4.093   8.458 -0.5162  0.1903 -0.2017
  158SAPE  H18X17704   4.272   4.062   8.560 -2.6328  1.2539 -0.5099
  158SAPE  H18Y17705   4.253   4.017   8.394  1.2631 -1.2465  0.0398
  158SAPE  H18Z17706   4.267   4.197   8.446  1.1535  0.5512 -2.4624
  159SAPE     N17707   3.620   6.740   6.201 -0.0445 -0.3896  0.4205
  159SAPE   HN117708   3.685   6.760   6.122 -1.5881 -2.6854 -1.5083
  159SAPE   HN217709   3.521   6.747   6.171  0.1003 -2.6460 -0.6547
  159SAPE   HN317710   3.628   6.816   6.271 -0.6775 -0.0925  0.1746
  159SAPE   C1217711   3.648   6.613   6.280 -0.4130 -0.7635  0.6003
  159SAPE  H12A17712   3.659   6.527   6.211 -4.1030 -1.4808  0.7769
  159SAPE  H12B17713   3.563   6.582   6.345  0.1473 -3.1256  0.2633
  159SAPE   C1117714   3.777   6.647   6.361 -0.3975  0.6298  0.5883
  159SAPE  H11A17715   3.805   6.561   6.425 -1.2735  0.0451  0.1910
  159SAPE  H11B17716   3.760   6.730   6.433  1.1299 -0.0481  1.7604
  159SAPE     P17717   4.031   6.690   6.343 -0.3123 -0.1768 -0.0324
  159SAPE   O1317718   4.071   6.553   6.380 -0.6911  0.1161 -0.4814
  159SAPE   O1417719   4.117   6.766   6.249 -0.2833  0.0926 -0.0582
  159SAPE   O1217720   3.887   6.675   6.271 -0.2702  0.3006 -0.3639
  159SAPE   O1117721   3.996   6.781   6.468  0.4821 -0.5486 -0.2397
  159SAPE    C117722   4.104   6.831   6.555 -0.0582  0.2269  1.1095
  159SAPE    HA17723   4.176   6.886   6.491  0.5906 -1.2928  0.5062
  159SAPE    HB17724   4.066   6.907   6.627 -1.9944  0.7870 -0.4655
  159SAPE    C217725   4.179   6.724   6.644  0.8649 -0.4969 -0.2764
  159SAPE    HS17726   4.239   6.660   6.575  2.3368  0.4737  0.0815
  159SAPE   O2117727   4.076   6.662   6.712 -0.1074  0.5546  0.1092
  159SAPE   C2117728   4.090   6.530   6.722 -0.1221  0.4149 -0.3197
  159SAPE   O2217729   4.187   6.462   6.694 -0.5735 -0.0991 -0.6374
  159SAPE   C2217730   3.954   6.464   6.770  0.0355  0.3318  0.5191
  159SAPE   H2R17731   3.934   6.508   6.870 -0.1864 -0.8771  1.0087
  159SAPE   H2S17732   3.879   6.489   6.692  0.4865  0.9588  0.2812
  159SAPE    C317733   4.283   6.792   6.743 -0.2080 -0.2780 -0.2892
  159SAPE    HX17734   4.229   6.871   6.799  0.7489  1.2531 -1.4773
  159SAPE    HY17735   4.362   6.831   6.676 -0.4649  0.0896 -0.3757
  159SAPE   O3117736   4.342   6.691   6.829  0.2617 -0.7159 -0.8771
  159SAPE   C3117737   4.456   6.645   6.801  0.2092 -0.3708  0.4844
  159SAPE   O3217738   4.509   6.667   6.693 -0.2697  0.6902  0.3610
  159SAPE   C3217739   4.518   6.576   6.921 -1.2689  0.7321 -0.5568
  159SAPE   H2X17740   4.549   6.482   6.870 -3.9281 -0.1539 -0.6353
  159SAPE   H2Y17741   4.443   6.547   6.998  1.2806 -3.2970  0.5935
  159SAPE   C2317742   3.953   6.308   6.791  0.0860 -0.2526 -0.2452
  159SAPE   H3R17743   4.041   6.279   6.853 -0.8298 -0.6110  0.9163
  159SAPE   H3S17744   3.965   6.255   6.694  0.3423 -0.2394 -0.2230
  159SAPE   C2417745   3.827   6.265   6.861  0.1441  0.4095  0.2134
  159SAPE   H4R17746   3.739   6.308   6.809  0.8048 -0.6093 -1.8472
  159SAPE   H4S17747   3.814   6.301   6.965  0.6372  0.5062  0.2436
  159SAPE   C2517748   3.811   6.114   6.859 -0.3859  0.0192 -0.2317
  159SAPE   H5R17749   3.804   6.077   6.755 -0.7612 -0.5784 -0.0018
  159SAPE   C2617750   3.822   6.028   6.968  0.3408 -0.4933 -0.6148
  159SAPE   H6R17751   3.784   5.927   6.951  2.7841 -1.1917 -2.1621
  159SAPE   C2717752   3.834   6.071   7.115  0.8058 -0.1824 -0.0787
  159SAPE   H7R17753   3.768   6.018   7.187  0.3886  1.2283  0.5940
  159SAPE   H7S17754   3.818   6.181   7.124  1.2685 -0.0338 -1.0361
  159SAPE   C2817755   3.974   6.043   7.158  0.2007  0.6244 -0.2856
  159SAPE   H8R17756   4.009   5.945   7.121 -0.4185  1.3769 -2.9691
  159SAPE   C2917757   4.055   6.130   7.230  0.4563 -0.3866 -0.0943
  159SAPE   H9R17758   4.159   6.098   7.243  1.6006  1.9116 -2.9021
  159SAPE  C21017759   4.021   6.272   7.279  0.0595  0.0089 -0.3907
  159SAPE  H10R17760   3.986   6.331   7.191  2.3828  1.7149 -0.1984
  159SAPE  H10S17761   4.109   6.326   7.319  1.3229 -0.7418 -2.0945
  159SAPE  C21117762   3.909   6.272   7.381 -1.0631  0.3801 -0.2115
  159SAPE  H11R17763   3.806   6.300   7.355 -0.2858  1.0558 -2.7346
  159SAPE  C21217764   3.919   6.229   7.505 -0.7746  0.6565  0.1936
  159SAPE  H12R17765   3.832   6.234   7.572 -1.0468 -0.6239 -0.0479
  159SAPE  C21317766   4.045   6.178   7.565 -0.5799  0.1474 -0.2783
  159SAPE  H13R17767   4.087   6.256   7.631  1.9513 -0.4484 -1.1415
  159SAPE  H13S17768   4.120   6.168   7.484  0.1289  2.4409  0.0895
  159SAPE  C21417769   4.032   6.054   7.642  0.2999 -0.6562 -0.1874
  159SAPE  H14R17770   4.030   5.963   7.580 -0.5247 -1.1138  0.5086
  159SAPE  C21517771   4.032   6.043   7.775 -0.2947  0.7718  0.0152
  159SAPE  H15R17772   4.008   5.946   7.822  0.7410  1.1008  1.2420
  159SAPE  C21617773   4.043   6.141   7.890  0.3190  0.3618  0.1410
  159SAPE  H16R17774   3.972   6.121   7.974 -0.1206  2.5441  0.3129
  159SAPE  H16S17775   4.019   6.246   7.861  0.3780  0.3591  0.0823
  159SAPE  C21717776   4.182   6.130   7.932 -0.5265  0.0830 -1.2044
  159SAPE  H17R17777   4.189   6.201   8.018  1.9638 -1.2332 -0.2351
  159SAPE  H17S17778   4.243   6.160   7.844 -2.3660 -0.8187 -2.7951
  159SAPE  C21817779   4.230   5.995   7.998 -0.0564  0.6066 -0.0493
  159SAPE  H18R17780   4.336   6.001   8.030 -0.1317  0.6509  0.1877
  159SAPE  H18S17781   4.229   5.913   7.923  0.0071  1.8135 -1.3928
  159SAPE  C21917782   4.149   5.966   8.128 -0.0130  0.4008 -0.3049
  159SAPE  H19R17783   4.177   5.861   8.153 -1.2563  0.1085 -0.0890
  159SAPE  H19S17784   4.041   5.962   8.102 -0.8199  1.3961  2.6807
  159SAPE  C22017785   4.186   6.051   8.246  0.9126 -0.2018 -0.2298
  159SAPE  H20R17786   4.295   6.037   8.263  0.8491  1.9553  2.1178
  159SAPE  H20S17787   4.138   6.017   8.340 -1.4712  0.0093 -1.3407
  159SAPE  H20T17788   4.176   6.160   8.231  2.4444  0.0773  0.6674
  159SAPE   C3317789   4.643   6.642   6.982  0.0544 -0.7835  0.7167
  159SAPE   H3X17790   4.638   6.752   6.998 -2.0358 -0.9037  1.0360
  159SAPE   H3Y17791   4.719   6.626   6.903  1.9577  0.3035  2.2788
  159SAPE   C3417792   4.686   6.582   7.114 -0.1521  0.1279  0.5791
  159SAPE   H4X17793   4.684   6.471   7.108  0.3379 -0.0004  2.4869
  159SAPE   H4Y17794   4.632   6.622   7.203  1.8585 -1.2645  2.4986
  159SAPE   C3517795   4.828   6.628   7.156 -0.3657 -0.4804  0.4406
  159SAPE   H5X17796   4.840   6.738   7.168  2.7082 -0.6866 -0.4462
  159SAPE   H5Y17797   4.893   6.592   7.074 -0.4477  0.5783 -0.1074
  159SAPE   C3617798   4.882   6.550   7.276 -0.0257  0.1667 -0.1673
  159SAPE   H6X17799   4.993   6.552   7.282 -0.1206  2.0782  1.4256
  159SAPE   H6Y17800   4.852   6.443   7.272 -1.1434  0.4478  0.5841
  159SAPE   C3717801   4.829   6.600   7.413  0.0687  0.1295 -1.3282
  159SAPE   H7X17802   4.723   6.568   7.418 -0.1703  1.1347  0.8891
  159SAPE   H7Y17803   4.835   6.710   7.427  2.4616  0.2734 -3.1649
  159SAPE   C3817804   4.903   6.546   7.533  0.3098  0.0295  0.2645
  159SAPE   H8X17805   4.854   6.589   7.623 -0.5961  0.3466 -0.3743
  159SAPE   H8Y17806   5.011   6.567   7.548  0.3842 -1.7542  2.4460
  159SAPE   C3917807   4.902   6.399   7.523  0.0962  0.0546 -0.3236
  159SAPE   H9X17808   4.979   6.362   7.453  0.5084  0.7179 -0.2279
  159SAPE   H9Y17809   4.799   6.368   7.498 -0.7867  1.7630  1.0252
  159SAPE  C31017810   4.943   6.329   7.657 -0.1528  0.6832 -0.9526
  159SAPE  H10X17811   4.928   6.220   7.646  1.3189  0.2291  1.3073
  159SAPE  H10Y17812   4.875   6.363   7.738  0.6236 -0.6155  0.2414
  159SAPE  C31117813   5.084   6.348   7.715  0.1105  0.8739  0.1317
  159SAPE  H11X17814   5.098   6.453   7.750 -0.0245  1.3532 -1.2059
  159SAPE  H11Y17815   5.151   6.329   7.627 -0.2310  1.5640 -0.2830
  159SAPE  C31217816   5.112   6.232   7.820  0.4469 -0.0960 -0.5957
  159SAPE  H12X17817   5.217   6.245   7.856 -0.2057  0.7119  1.0840
  159SAPE  H12Y17818   5.097   6.131   7.777 -0.0965  0.3241 -1.3951
  159SAPE  C31317819   5.024   6.256   7.945 -0.7999 -0.0614  0.0077
  159SAPE  H13X17820   4.916   6.263   7.921 -1.2485 -1.9399  1.3051
  159SAPE  H13Y17821   5.034   6.361   7.979 -1.5086 -0.1084  0.3670
  159SAPE  C31417822   5.022   6.154   8.061  0.7623 -0.1859 -0.5739
  159SAPE  H14X17823   5.126   6.113   8.061  0.9321  0.2253 -1.2819
  159SAPE  H14Y17824   4.963   6.068   8.024 -1.1022  0.6212  0.4710
  159SAPE  C31517825   4.985   6.196   8.205  0.8421 -0.0769  0.3383
  159SAPE  H15X17826   4.890   6.254   8.207 -0.2333 -1.7570 -0.5824
  159SAPE  H15Y17827   5.058   6.266   8.250  0.6105  0.6639 -0.4434
  159SAPE  C31617828   4.983   6.083   8.313  0.3412  0.0185  0.3050
  159SAPE  H16X17829   5.016   6.117   8.413 -0.3690  2.1805 -0.1711
  159SAPE  H16Y17830   5.052   6.003   8.280  1.9347  1.1094  0.9454
  159SAPE  C31717831   4.842   6.025   8.331 -0.4195  0.5473  0.3653
  159SAPE  H17X17832   4.817   5.992   8.227  0.1409  0.7121  0.1771
  159SAPE  H17Y17833   4.766   6.103   8.348 -0.5757  0.7109 -0.9676
  159SAPE  C31817834   4.836   5.914   8.438  0.5781  0.4025  0.7097
  159SAPE  H18X17835   4.741   5.856   8.446  0.1376  0.5078 -2.8552
  159SAPE  H18Y17836   4.859   5.950   8.541  3.1934 -1.8301  0.9458
  159SAPE  H18Z17837   4.911   5.833   8.429 -2.0845 -2.2209  1.2339
  160SAPE     N17838   4.836   5.355   6.183 -0.3173 -0.5167  0.1284
  160SAPE   HN117839   4.762   5.295   6.142 -1.2422  0.7158 -0.0243
  160SAPE   HN217840   4.801   5.441   6.231 -2.2909 -1.0419 -0.3149
  160SAPE   HN317841   4.895   5.381   6.102 -1.0039 -0.5198 -0.3743
  160SAPE   C1217842   4.933   5.279   6.270 -0.4797 -0.3576  0.0635
  160SAPE  H12A17843   5.008   5.222   6.211  0.3644  0.4964  0.3029
  160SAPE  H12B17844   4.865   5.203   6.316  0.3414 -1.9231 -1.2759
  160SAPE   C1117845   4.999   5.371   6.376 -0.4182  0.0002  0.2989
  160SAPE  H11A17846   5.040   5.462   6.327  1.0186  0.0286  1.5098
  160SAPE  H11B17847   5.084   5.321   6.428 -0.7313 -0.4875  0.3405
  160SAPE     P17848   4.831   5.329   6.573 -0.2566 -0.4724 -0.3690
  160SAPE   O1317849   4.700   5.300   6.510 -0.1721 -0.3791 -0.9322
  160SAPE   O1417850   4.921   5.221   6.610  0.3690 -0.1029  0.3415
  160SAPE   O1217851   4.898   5.411   6.464  0.4645  0.1775  0.1735
  160SAPE   O1117852   4.808   5.441   6.683 -0.3551  1.0051  0.0558
  160SAPE    C117853   4.914   5.484   6.773  0.2700  0.5219 -0.0171
  160SAPE    HA17854   5.016   5.458   6.735 -0.6671  0.3947 -2.5198
  160SAPE    HB17855   4.913   5.592   6.797 -0.7498  0.2168  1.3493
  160SAPE    C217856   4.898   5.413   6.908  0.2862  0.5284  0.2125
  160SAPE    HS17857   4.875   5.307   6.884  1.1967  0.1858  0.8563
  160SAPE   O2117858   4.782   5.466   6.975  0.1074 -0.2037  0.3575
  160SAPE   C2117859   4.722   5.393   7.067 -0.8249  0.0146 -0.4554
  160SAPE   O2217860   4.725   5.272   7.084 -0.1067 -0.0038  0.1933
  160SAPE   C2217861   4.613   5.481   7.130 -1.3277  0.6359 -0.1615
  160SAPE   H2R17862   4.637   5.590   7.128 -1.0549  0.6326  1.7805
  160SAPE   H2S17863   4.522   5.467   7.068 -0.3372 -0.4031 -1.4095
  160SAPE    C317864   5.023   5.429   7.006  0.6407  0.4403  0.1255
  160SAPE    HX17865   5.019   5.533   7.043 -0.1356  0.0414  1.1799
  160SAPE    HY17866   5.118   5.419   6.949 -0.2095  1.5061 -1.5031
  160SAPE   O3117867   5.010   5.343   7.117 -0.0649 -0.4545 -0.1920
  160SAPE   C3117868   5.083   5.234   7.131 -0.0782  0.2172  0.4399
  160SAPE   O3217869   5.179   5.206   7.061  0.5859 -0.1732  0.4202
  160SAPE   C3217870   5.056   5.170   7.263  0.5793  0.2897  0.1157
  160SAPE   H2X17871   4.946   5.162   7.272  0.4549  0.1073 -1.3664
  160SAPE   H2Y17872   5.087   5.239   7.344 -1.8765  2.8974 -1.0756
  160SAPE   C2317873   4.587   5.436   7.283  0.2582  0.4962 -0.3447
  160SAPE   H3R17874   4.582   5.325   7.284 -0.6685  0.5078 -2.1093
  160SAPE   H3S17875   4.489   5.479   7.313  1.3199  2.1768  0.8774
  160SAPE   C2417876   4.682   5.501   7.390 -0.1665 -0.0950 -0.4635
  160SAPE   H4R17877   4.652   5.467   7.491  1.1358 -0.3249 -0.1368
  160SAPE   H4S17878   4.681   5.612   7.390 -2.0373 -0.0866 -1.7718
  160SAPE   C2517879   4.822   5.447   7.377  0.4512 -0.3774  0.4281
  160SAPE   H5R17880   4.834   5.400   7.278  0.7773  0.1474  0.2138
  160SAPE   C2617881   4.918   5.434   7.470  0.7278  0.0007  0.0356
  160SAPE   H6R17882   5.022   5.415   7.438 -0.1230 -0.1733 -2.7948
  160SAPE   C2717883   4.908   5.464   7.612 -0.3082  0.5852 -0.2576
  160SAPE   H7R17884   4.805   5.451   7.653 -0.1891  1.0363  0.1946
  160SAPE   H7S17885   4.923   5.573   7.629 -0.5186  0.8080 -1.4690
  160SAPE   C2817886   5.001   5.380   7.696  0.6805 -0.3465  0.6716
  160SAPE   H8R17887   5.061   5.299   7.652 -0.4313  0.0856 -1.7510
  160SAPE   C2917888   5.011   5.413   7.827 -0.4716  0.3972 -0.8142
  160SAPE   H9R17889   5.083   5.358   7.889 -0.5696  2.5407  1.2844
  160SAPE  C21017890   4.949   5.521   7.908 -0.3026 -0.0666  0.3090
  160SAPE  H10R17891   4.879   5.575   7.842 -2.1178  2.6853  4.2884
  160SAPE  H10S17892   5.029   5.596   7.928  0.7669 -0.2639 -2.9926
  160SAPE  C21117893   4.885   5.457   8.026 -0.2952 -0.2755 -0.1845
  160SAPE  H11R17894   4.796   5.400   7.995  1.3858 -2.5350 -0.9950
  160SAPE  C21217895   4.922   5.441   8.149  0.3835 -0.2774 -0.2816
  160SAPE  H12R17896   4.861   5.380   8.216  1.8498 -0.9242  0.5019
  160SAPE  C21317897   5.055   5.486   8.209  0.0609  0.2461  0.1253
  160SAPE  H13R17898   5.033   5.565   8.283 -3.1295 -1.2653  0.8937
  160SAPE  H13S17899   5.113   5.542   8.132  0.8114  0.4292  0.8187
  160SAPE  C21417900   5.151   5.378   8.255 -0.7316  0.0090  0.5232
  160SAPE  H14R17901   5.134   5.281   8.206  2.0241  0.9177 -2.4132
  160SAPE  C21517902   5.251   5.398   8.339  1.2783 -0.7895 -0.4072
  160SAPE  H15R17903   5.324   5.319   8.363  2.1595 -0.1327 -0.8671
  160SAPE  C21617904   5.289   5.533   8.399  0.5820  0.2685  0.3856
  160SAPE  H16R17905   5.244   5.616   8.340  0.8382  1.8319  2.3173
  160SAPE  H16S17906   5.400   5.544   8.406  0.7484 -0.0352 -1.5267
  160SAPE  C21717907   5.240   5.557   8.550  0.4930 -0.4254  0.1231
  160SAPE  H17R17908   5.295   5.494   8.622 -3.4604 -1.0150  2.7330
  160SAPE  H17S17909   5.140   5.511   8.547  0.4807 -0.4516  0.9273
  160SAPE  C21817910   5.260   5.706   8.589  0.2584 -0.4535  0.1481
  160SAPE  H18R17911   5.210   5.773   8.517  0.4367 -1.0896 -0.5764
  160SAPE  H18S17912   5.370   5.722   8.585  0.3758  0.3534  4.3465
  160SAPE  C21917913   5.188   5.741   8.726 -0.4452  1.1986 -0.3069
  160SAPE  H19R17914   5.217   5.847   8.741  0.3938  0.8348  0.7472
  160SAPE  H19S17915   5.238   5.680   8.804 -0.6259 -0.3198 -1.3716
  160SAPE  C22017916   5.036   5.726   8.735 -0.2786  0.4234 -0.1485
  160SAPE  H20R17917   5.004   5.621   8.717 -1.1678  0.5521  0.6317
  160SAPE  H20S17918   4.983   5.782   8.656 -3.1790 -0.1890  1.2730
  160SAPE  H20T17919   5.009   5.759   8.838 -1.3608 -3.0870  0.7612
  160SAPE   C3317920   5.114   5.032   7.278  0.8640 -0.4431  0.3763
  160SAPE   H3X17921   5.222   5.048   7.301  0.8646 -0.3284  0.2934
  160SAPE   H3Y17922   5.092   4.963   7.194  3.2940  0.2315 -0.8766
  160SAPE   C3417923   5.047   4.958   7.394 -0.6304 -0.0032  0.5078
  160SAPE   H4X17924   5.105   4.864   7.408  1.7984  1.2694 -0.7562
  160SAPE   H4Y17925   4.948   4.916   7.368  0.0868 -1.7118  0.4353
  160SAPE   C3517926   5.069   5.036   7.528 -0.5481  0.0666  0.2124
  160SAPE   H5X17927   4.998   5.121   7.541  1.1738  1.3310  1.5513
  160SAPE   H5Y17928   5.170   5.082   7.525 -0.4126 -0.2294  0.2520
  160SAPE   C3617929   5.045   4.944   7.649  0.9019  0.4659 -0.1439
  160SAPE   H6X17930   5.097   4.847   7.661 -1.5120 -0.4214  4.6555
  160SAPE   H6Y17931   4.940   4.909   7.643  1.2950 -0.5035 -1.6363
  160SAPE   C3717932   5.075   5.005   7.783  0.0035  0.2191  0.2470
  160SAPE   H7X17933   5.029   5.106   7.790 -0.0808  0.1922  0.0736
  160SAPE   H7Y17934   5.184   5.020   7.771  0.0093 -0.9298 -1.2224
  160SAPE   C3817935   5.061   4.919   7.916  0.1051  0.3939 -0.3030
  160SAPE   H8X17936   5.124   4.832   7.890 -0.1280  0.4832 -1.1898
  160SAPE   H8Y17937   4.956   4.883   7.924  0.7666 -1.2886  1.1558
  160SAPE   C3917938   5.100   4.990   8.044 -0.3813 -0.4455  0.4555
  160SAPE   H9X17939   5.026   5.065   8.078  0.6818  0.9503 -0.2394
  160SAPE   H9Y17940   5.192   5.051   8.027 -1.1554  1.0760  1.6515
  160SAPE  C31017941   5.136   4.900   8.164 -0.1077  0.4695 -0.3078
  160SAPE  H10X17942   5.214   4.829   8.130  0.6796  1.8344 -1.3665
  160SAPE  H10Y17943   5.048   4.834   8.186 -0.4422  0.4149 -1.7590
  160SAPE  C31117944   5.171   4.971   8.298  0.1947  0.1677 -0.4751
  160SAPE  H11X17945   5.213   5.072   8.283  1.0144 -0.0707  0.2144
  160SAPE  H11Y17946   5.247   4.903   8.342  0.4464  0.5452 -0.3280
  160SAPE  C31217947   5.042   5.006   8.378 -0.1916  0.5705  0.0517
  160SAPE  H12X17948   5.001   4.905   8.400  1.3295 -0.1024 -0.1118
  160SAPE  H12Y17949   4.965   5.050   8.311 -0.2650 -1.2848 -1.1460
  160SAPE  C31317950   5.065   5.083   8.506  0.7547  0.1978  0.3308
  160SAPE  H13X17951   5.121   5.174   8.475 -0.8617  1.2394  0.4122
  160SAPE  H13Y17952   5.131   5.021   8.570 -1.3880  2.3080  4.7574
  160SAPE  C31417953   4.940   5.120   8.591 -0.1115  0.1296  0.0486
  160SAPE  H14X17954   4.978   5.127   8.695 -0.5420 -2.5741  0.4272
  160SAPE  H14Y17955   4.867   5.036   8.595  1.5451 -1.3616 -0.3641
  160SAPE  C31517956   4.891   5.254   8.537  0.0485 -0.2157  0.1381
  160SAPE  H15X17957   4.870   5.257   8.428 -1.2800 -0.9125  0.3567
  160SAPE  H15Y17958   4.979   5.320   8.540 -0.6511  0.7969 -1.2841
  160SAPE  C31617959   4.780   5.307   8.611  0.0385 -0.1638 -0.7664
  160SAPE  H16X17960   4.814   5.347   8.708  0.7763 -0.5684 -0.8531
  160SAPE  H16Y17961   4.704   5.231   8.638 -0.0474  0.2181  0.0552
  160SAPE  C31717962   4.706   5.421   8.537  0.2481  0.8573 -0.9771
  160SAPE  H17X17963   4.643   5.391   8.451  0.7978  0.4132 -1.2257
  160SAPE  H17Y17964   4.781   5.497   8.505  1.1227  0.6328  0.4582
  160SAPE  C31817965   4.591   5.488   8.621 -0.3541  0.2415 -0.2167
  160SAPE  H18X17966   4.495   5.431   8.611  0.9164 -1.5108 -3.0429
  160SAPE  H18Y17967   4.566   5.586   8.574  3.1522  1.4148  0.2565
  160SAPE  H18Z17968   4.613   5.491   8.730  2.2965 -1.5787 -0.6763
  161SOPE     N17969   3.568   0.826  10.560 -0.7057 -0.1257 -0.1341
  161SOPE   HN117970   3.647   0.792  10.503 -1.9384  1.5378 -2.9535
  161SOPE   HN217971   3.532   0.758  10.629 -0.4538  0.1075  0.2295
  161SOPE   HN317972   3.491   0.841  10.491  0.5011 -0.2992 -1.5417
  161SOPE   C1217973   3.607   0.944  10.647 -0.1775 -0.3113 -0.6635
  161SOPE  H12A17974   3.592   1.029  10.577 -0.4385 -0.0310 -0.2632
  161SOPE  H12B17975   3.710   0.918  10.681  0.4600  0.9055 -1.6031
  161SOPE   C1117976   3.516   0.966  10.767  0.2435  0.7626  0.5561
  161SOPE  H11A17977   3.544   1.049  10.835  1.7351 -0.0062  0.9010
  161SOPE  H11B17978   3.508   0.882  10.838  0.6032 -1.1648 -1.6004
  161SOPE     P17979   3.313   1.118  10.716  0.5699  0.0408 -0.2631
  161SOPE   O1317980   3.395   1.229  10.662 -0.0680 -0.2674 -0.0676
  161SOPE   O1417981   3.259   1.129  10.854  0.5714  0.3837 -0.3964
  161SOPE   O1217982   3.382   0.982  10.713 -0.2395  0.3101  0.3332
  161SOPE   O1117983   3.183   1.103  10.623  0.1973  0.0276  0.5351
  161SOPE    C117984   3.110   0.982  10.625  0.0311  0.3296 -0.0022
  161SOPE    HA17985   3.003   1.007  10.610  0.1287 -0.4412 -2.0489
  161SOPE    HB17986   3.113   0.925  10.720  0.1914 -2.5181 -1.6897
  161SOPE    C217987   3.141   0.874  10.515  0.0335  0.3054 -0.1360
  161SOPE    HS17988   3.232   0.824  10.555 -0.9601 -0.4086  1.2779
  161SOPE   O2117989   3.162   0.948  10.390 -0.1425 -0.4450  0.5522
  161SOPE   C2117990   3.276   0.950  10.334  0.0524 -1.0238  0.8432
  161SOPE   O2217991   3.376   0.896  10.377  0.2038  0.0876 -0.3713
  161SOPE   C2217992   3.266   1.022  10.200 -0.8436 -0.2653  0.1261
  161SOPE   H2R17993   3.305   1.124  10.216 -0.9745 -0.2277  0.2043
  161SOPE   H2S17994   3.168   1.029  10.148 -1.7199  0.9041  1.9280
  161SOPE    C317995   3.024   0.774  10.486  0.0258 -0.1349  0.3264
  161SOPE    HX17996   2.942   0.836  10.446 -0.1728  0.6342  1.8834
  161SOPE    HY17997   2.974   0.747  10.582  0.9509 -0.5609  0.6953
  161SOPE   O3117998   3.058   0.667  10.390 -0.6965  0.3526  1.0264
  161SOPE   C3117999   3.150   0.577  10.439 -0.2605  0.2428  0.7608
  161SOPE   O3218000   3.195   0.581  10.548 -0.4258  0.1285 -0.5593
  161SOPE   C3218001   3.180   0.475  10.330  1.7052  0.1745 -0.6920
  161SOPE   H2X18002   3.129   0.504  10.236  1.3534  0.2640 -0.4728
  161SOPE   H2Y18003   3.137   0.377  10.358  1.4482  0.5194  0.1176
  161SOPE   C2318004   3.364   0.966  10.097  0.3780  0.0658  0.1709
  161SOPE   H3R18005   3.441   0.896  10.135 -2.1972 -1.5761  2.5609
  161SOPE   H3S18006   3.414   1.055  10.054  2.4820 -1.6581 -1.1037
  161SOPE   C2418007   3.289   0.896   9.980 -0.5068 -0.6484 -0.2930
  161SOPE   H4R18008   3.209   0.965   9.947  0.2354  0.4260  0.1166
  161SOPE   H4S18009   3.367   0.895   9.900  0.5940  1.7030  0.6757
  161SOPE   C2518010   3.233   0.763  10.027 -0.2377 -0.6532 -0.3617
  161SOPE   H5R18011   3.320   0.700  10.055 -1.1927 -0.8514  2.3815
  161SOPE   H5S18012   3.164   0.775  10.113 -1.8627  0.4095 -1.7814
  161SOPE   C2618013   3.148   0.689   9.920 -0.6456 -0.0148  0.5909
  161SOPE   H6R18014   3.097   0.605   9.971  0.6339 -0.6907  0.7694
  161SOPE   H6S18015   3.078   0.767   9.882  0.6321  1.9954  2.2142
  161SOPE   C2718016   3.229   0.620   9.807  0.5697 -0.5731 -0.9014
  161SOPE   H7R18017   3.310   0.689   9.773 -0.2938  2.2524  2.4763
  161SOPE   H7S18018   3.276   0.528   9.847  0.3042  0.2153  1.2745
  161SOPE   C2818019   3.128   0.585   9.697  0.2981  0.6315 -0.2102
  161SOPE   H8R18020   3.063   0.513   9.751 -1.0896  0.6775 -1.7716
  161SOPE   H8S18021   3.073   0.677   9.667 -0.2120  0.5680  0.5277
  161SOPE   C2918022   3.195   0.527   9.573 -0.0774 -0.8694 -0.4883
  161SOPE   H9118023   3.216   0.419   9.582 -2.0773 -1.3910 -1.6943
  161SOPE  C21018024   3.227   0.588   9.456  0.0856 -0.6343  0.0243
  161SOPE  H10118025   3.276   0.531   9.375 -1.2178 -2.3437  0.4332
  161SOPE  C21118026   3.205   0.732   9.424 -0.2844 -0.2259  0.2104
  161SOPE  H11R18027   3.296   0.789   9.453  0.3338 -1.2580  0.3152
  161SOPE  H11S18028   3.114   0.771   9.475  0.0957 -0.0029  0.7217
  161SOPE  C21218029   3.173   0.758   9.277  0.0045 -0.3098 -0.2348
  161SOPE  H12R18030   3.128   0.859   9.272 -0.3473 -0.4619 -0.1456
  161SOPE  H12S18031   3.099   0.687   9.233 -1.1317 -0.1133  1.3107
  161SOPE  C21318032   3.300   0.779   9.186 -0.8021 -0.2575  0.1051
  161SOPE  H13R18033   3.355   0.683   9.196  0.3156  0.0542 -2.8535
  161SOPE  H13S18034   3.366   0.860   9.222 -0.3678 -0.3246 -0.5397
  161SOPE  C21418035   3.272   0.813   9.038 -0.1761  0.6773 -0.3783
  161SOPE  H14R18036   3.224   0.913   9.025 -0.9204  0.1954 -1.4471
  161SOPE  H14S18037   3.197   0.739   9.003 -2.0553  0.4128  3.8855
  161SOPE  C21518038   3.399   0.799   8.956 -0.1944 -0.1667  0.1343
  161SOPE  H15R18039   3.442   0.698   8.974  0.5877  0.0331 -0.5942
  161SOPE  H15S18040   3.475   0.874   8.988 -1.0363  0.8746 -0.2797
  161SOPE  C21618041   3.370   0.829   8.810 -0.0434  0.1219 -0.8198
  161SOPE  H16R18042   3.463   0.859   8.757  0.8693 -0.2294  0.5289
  161SOPE  H16S18043   3.301   0.916   8.809 -0.4120 -0.1472  0.1024
  161SOPE  C21718044   3.309   0.698   8.741  0.1322  0.1211  0.2354
  161SOPE  H17R18045   3.234   0.645   8.804 -0.1528 -1.3597 -1.3269
  161SOPE  H17S18046   3.399   0.637   8.721  0.2408 -0.1390  1.4953
  161SOPE  C21818047   3.247   0.723   8.604  0.3297  0.8088  0.1141
  161SOPE  H18R18048   3.143   0.762   8.600 -0.2171 -0.4657  1.3793
  161SOPE  H18S18049   3.269   0.635   8.540 -0.2380 -0.1334  1.1859
  161SOPE  H18T18050   3.315   0.785   8.542 -0.0281  0.9852 -0.1046
  161SOPE   C3318051   3.331   0.462  10.310 -0.2442  0.4224 -0.6165
  161SOPE   H3X18052   3.377   0.463  10.411 -0.3394  0.5670 -0.5750
  161SOPE   H3Y18053   3.370   0.552  10.257 -0.4150  0.4331 -0.7264
  161SOPE   C3418054   3.380   0.341  10.237  0.1303  0.1737 -0.0947
  161SOPE   H4X18055   3.337   0.258  10.297  2.4492 -1.3361 -0.4354
  161SOPE   H4Y18056   3.490   0.328  10.238  0.3164  1.3490 -1.6988
  161SOPE   C3518057   3.326   0.332  10.092 -0.4972  0.0392 -0.0203
  161SOPE   H5X18058   3.347   0.422  10.031 -2.1302  0.3883 -0.1038
  161SOPE   H5Y18059   3.215   0.336  10.099 -0.5396 -0.4645 -0.4157
  161SOPE   C3618060   3.372   0.208  10.019  0.3677  0.4407 -0.4302
  161SOPE   H6X18061   3.334   0.119  10.075 -3.3116  2.2146  0.0377
  161SOPE   H6Y18062   3.483   0.211  10.014  0.4785 -0.7394  0.9543
  161SOPE   C3718063   3.330   0.202   9.867 -0.7533  0.2524 -0.2931
  161SOPE   H7X18064   3.358   0.299   9.822  0.2161 -0.1430 -0.5609
  161SOPE   H7Y18065   3.220   0.188   9.861 -0.8986  0.8976  0.7941
  161SOPE   C3818066   3.408   0.092   9.787  0.1558  0.7085  0.9659
  161SOPE   H8X18067   3.365  -0.000   9.832  1.9906 -0.5484  0.1898
  161SOPE   H8Y18068   3.513   0.087   9.822  0.1073 -0.4939  0.9680
  161SOPE   C3918069   3.382   0.100   9.635  0.0921  0.5121  0.0720
  161SOPE   H9X18070   3.293   0.160   9.607 -0.4888 -1.1303 -1.7097
  161SOPE   H9Y18071   3.367  -0.007   9.609  1.2355  0.5239 -0.6616
  161SOPE  C31018072   3.497   0.172   9.565 -0.6026 -0.3764 -0.5806
  161SOPE  H10X18073   3.600   0.140   9.588 -0.2425  0.6987 -0.6641
  161SOPE  H10Y18074   3.496   0.274   9.609  3.3475 -0.8317  0.7007
  161SOPE  C31118075   3.462   0.162   9.417 -0.1838  0.3349  0.4412
  161SOPE  H11X18076   3.359   0.203   9.410 -0.5805 -0.7721 -0.2874
  161SOPE  H11Y18077   3.457   0.055   9.388 -1.4024  0.7113 -0.8184
  161SOPE  C31218078   3.568   0.227   9.325  0.7903 -0.0417 -0.0320
  161SOPE  H12X18079   3.669   0.187   9.351  1.1964  0.7387 -0.4270
  161SOPE  H12Y18080   3.572   0.336   9.341 -2.5494  0.1355 -0.1068
  161SOPE  C31318081   3.536   0.203   9.173  0.0929  0.5343  0.1247
  161SOPE  H13X18082   3.430   0.225   9.151  0.5672  0.3933 -2.4652
  161SOPE  H13Y18083   3.557   0.095   9.155  2.3687  0.7361  1.2771
  161SOPE  C31418084   3.627   0.280   9.077  0.3919 -0.2588  0.1541
  161SOPE  H14X18085   3.620   0.382   9.120  1.0817  0.2631 -0.9440
  161SOPE  H14Y18086   3.573   0.289   8.980  0.3052 -0.8981  0.1419
  161SOPE  C31518087   3.767   0.228   9.069 -0.1439 -0.3388 -0.2286
  161SOPE  H15X18088   3.767   0.126   9.024 -0.9681 -0.4466  0.0089
  161SOPE  H15Y18089   3.830   0.227   9.161 -3.0440 -1.5774  1.8133
  161SOPE  C31618090   3.838   0.318   8.965  0.0436 -0.5932 -0.2652
  161SOPE  H16X18091   3.945   0.293   8.978  0.0374 -1.4802 -1.7722
  161SOPE  H16Y18092   3.819   0.425   8.988  1.7810 -0.6706  1.6380
  161SOPE  C31718093   3.812   0.297   8.815  0.5236 -0.4369 -0.0227
  161SOPE  H17X18094   3.704   0.302   8.787  0.5139  1.1493  0.2231
  161SOPE  H17Y18095   3.834   0.190   8.796 -2.4287 -1.3058  1.1112
  161SOPE  C31818096   3.891   0.385   8.720 -0.4444 -0.3141  0.0836
  161SOPE  H18X18097   4.000   0.378   8.738 -0.3890  1.7928  0.6962
  161SOPE  H18Y18098   3.865   0.491   8.742 -0.0902 -0.4277  1.0589
  161SOPE  H18Z18099   3.862   0.372   8.613 -3.2460  0.0878  0.7611
  162SOPE     N18100   2.178   1.241  10.822  0.1824 -0.0416 -0.3675
  162SOPE   HN118101   2.099   1.225  10.757  0.3959 -0.1349 -0.6101
  162SOPE   HN218102   2.147   1.225  10.920 -1.7367  0.9909 -0.7959
  162SOPE   HN318103   2.205   1.340  10.809  0.8889 -0.3116 -1.0797
  162SOPE   C1218104   2.295   1.142  10.798  0.9219  0.8538 -0.5304
  162SOPE  H12A18105   2.368   1.170  10.877 -0.2767 -1.3801  1.4422
  162SOPE  H12B18106   2.328   1.155  10.693  2.9937 -1.8800 -0.2919
  162SOPE   C1118107   2.261   0.994  10.815 -0.2123  0.2450 -0.0907
  162SOPE  H11A18108   2.350   0.928  10.822 -0.4302 -0.0344  0.0747
  162SOPE  H11B18109   2.203   0.967  10.724 -0.9089  1.5857 -0.0398
  162SOPE     P18110   2.085   0.850  10.937  0.2199  0.5178 -0.0298
  162SOPE   O1318111   1.990   0.868  11.050  0.1046  0.8530  0.0352
  162SOPE   O1418112   2.171   0.725  10.935 -0.3295 -0.2506  0.1709
  162SOPE   O1218113   2.180   0.973  10.932 -0.6889  0.2624 -0.7106
  162SOPE   O1118114   2.011   0.851  10.795  0.1182 -0.6341 -0.0205
  162SOPE    C118115   1.920   0.741  10.781  0.2992 -0.4552  0.3040
  162SOPE    HA18116   1.839   0.773  10.713  0.7386  3.5782  1.5501
  162SOPE    HB18117   1.866   0.711  10.873  0.0386  0.3268  0.4086
  162SOPE    C218118   1.986   0.621  10.705  0.1828 -1.1654  0.6647
  162SOPE    HS18119   2.094   0.622  10.732  0.1787 -0.5308  0.6653
  162SOPE   O2118120   1.968   0.626  10.557 -0.1222  0.0051  0.2597
  162SOPE   C2118121   2.052   0.549  10.486 -0.0090  0.5854 -0.2914
  162SOPE   O2218122   2.135   0.470  10.536 -0.6798 -0.7631 -0.8236
  162SOPE   C2218123   2.025   0.572  10.332 -0.1429 -0.2102  0.0715
  162SOPE   H2R18124   1.919   0.590  10.306 -0.3768 -1.2222  0.3005
  162SOPE   H2S18125   2.041   0.475  10.280 -3.4388 -0.2926 -0.8913
  162SOPE    C318126   1.928   0.491  10.762 -0.1215 -0.7221  0.3339
  162SOPE    HX18127   1.929   0.487  10.873 -0.8503  1.1339  0.4169
  162SOPE    HY18128   1.995   0.409  10.730 -1.6080 -1.1345 -1.8460
  162SOPE   O3118129   1.787   0.476  10.726 -0.1003 -0.4688 -0.0559
  162SOPE   C3118130   1.748   0.353  10.698 -0.1454 -0.1037  0.3203
  162SOPE   O3218131   1.822   0.259  10.683 -0.9545  0.1149  0.3361
  162SOPE   C3218132   1.597   0.358  10.680 -0.3005  0.3398 -0.0992
  162SOPE   H2X18133   1.571   0.466  10.671 -1.4269 -0.0354 -1.4807
  162SOPE   H2Y18134   1.543   0.327  10.773 -0.9250  3.0331  0.4861
  162SOPE   C2318135   2.108   0.689  10.279  0.0755  0.2384  0.1915
  162SOPE   H3R18136   2.100   0.784  10.335  0.4634  0.0531  0.5581
  162SOPE   H3S18137   2.084   0.721  10.175  0.3405  2.3034  0.7421
  162SOPE   C2418138   2.249   0.651  10.276 -0.2648 -0.1968 -0.0342
  162SOPE   H4R18139   2.292   0.632  10.377 -2.3060 -0.8058  0.7356
  162SOPE   H4S18140   2.247   0.553  10.224 -1.8850  0.7450 -1.7909
  162SOPE   C2518141   2.346   0.751  10.201 -0.4313 -0.3374 -0.1191
  162SOPE   H5R18142   2.348   0.837  10.271 -2.0234 -1.1467  0.9489
  162SOPE   H5S18143   2.446   0.702  10.209  1.8755  3.9787 -1.2548
  162SOPE   C2618144   2.302   0.786  10.062  0.1068 -0.2003 -0.5273
  162SOPE   H6R18145   2.269   0.693  10.010  1.5893 -0.3670 -1.1779
  162SOPE   H6S18146   2.203   0.832  10.083 -1.1272 -3.1995  0.6006
  162SOPE   C2718147   2.398   0.870   9.983 -0.5010 -0.0153 -0.7592
  162SOPE   H7R18148   2.433   0.958  10.041 -1.6600 -0.1706  0.2061
  162SOPE   H7S18149   2.488   0.808   9.960  0.6563  1.6264 -0.7402
  162SOPE   C2818150   2.338   0.924   9.851  0.6684 -0.1312  0.0914
  162SOPE   H8R18151   2.254   0.993   9.875  0.8920  0.0132  0.4624
  162SOPE   H8S18152   2.406   0.995   9.798  0.1469 -1.3549 -2.2684
  162SOPE   C2918153   2.276   0.823   9.760  0.6123  0.2484  0.1987
  162SOPE   H9118154   2.186   0.771   9.798  0.1772  1.4152  0.7754
  162SOPE  C21018155   2.314   0.781   9.638 -0.5964 -0.0108  0.1715
  162SOPE  H10118156   2.263   0.701   9.583 -2.2779  0.7019  0.6456
  162SOPE  C21118157   2.439   0.833   9.569 -0.1999  0.2259  0.2444
  162SOPE  H11R18158   2.487   0.747   9.518 -1.9468 -1.1236  0.8033
  162SOPE  H11S18159   2.511   0.875   9.642 -0.6890  0.0170  0.8541
  162SOPE  C21218160   2.417   0.930   9.450  0.5229 -0.0895  0.3019
  162SOPE  H12R18161   2.517   0.960   9.411  0.4178 -0.2263 -0.0725
  162SOPE  H12S18162   2.373   1.027   9.481  0.5402  0.1396 -0.3801
  162SOPE  C21318163   2.339   0.869   9.337 -0.4411 -0.2184  0.0759
  162SOPE  H13R18164   2.235   0.843   9.365 -0.3360 -0.7273 -0.0047
  162SOPE  H13S18165   2.383   0.768   9.325 -1.2540 -0.5659  0.0049
  162SOPE  C21418166   2.353   0.944   9.200 -0.0646  0.2352 -0.0544
  162SOPE  H14R18167   2.286   0.888   9.131  1.3775 -1.7150  0.0756
  162SOPE  H14S18168   2.454   0.941   9.156  0.0017 -0.8490  0.1432
  162SOPE  C21518169   2.290   1.087   9.214 -0.0865  0.5974  0.3263
  162SOPE  H15R18170   2.331   1.149   9.296 -2.1745 -0.4464  2.2005
  162SOPE  H15S18171   2.182   1.074   9.237 -0.3387 -1.9728 -2.0323
  162SOPE  C21618172   2.307   1.168   9.086 -0.0294 -0.3411  0.1423
  162SOPE  H16R18173   2.414   1.157   9.061  0.0513  0.8005 -0.0470
  162SOPE  H16S18174   2.303   1.277   9.105  0.0360 -0.1014 -1.1675
  162SOPE  C21718175   2.213   1.153   8.969 -0.2975 -0.2494 -0.6523
  162SOPE  H17R18176   2.117   1.208   8.983  1.0686  2.3785 -1.3776
  162SOPE  H17S18177   2.174   1.051   8.946 -1.0226 -0.0604 -0.2594
  162SOPE  C21818178   2.275   1.205   8.847 -0.0625  0.0361 -0.4595
  162SOPE  H18R18179   2.209   1.178   8.762  0.8016 -0.8074 -0.8714
  162SOPE  H18S18180   2.378   1.167   8.828 -0.6447 -1.0417 -1.5207
  162SOPE  H18T18181   2.273   1.316   8.854 -1.3496 -0.1171  2.2512
  162SOPE   C3318182   1.535   0.259  10.569  0.8664 -0.2805  0.2235
  162SOPE   H3X18183   1.426   0.257  10.589  0.9983  0.8035  1.0883
  162SOPE   H3Y18184   1.575   0.156  10.570  1.0638 -0.1955  1.4220
  162SOPE   C3418185   1.545   0.307  10.426  0.3649  0.0408  0.2109
  162SOPE   H4X18186   1.512   0.413  10.418 -2.6484 -0.9119 -0.5051
  162SOPE   H4Y18187   1.475   0.256  10.356 -1.9292  4.4146 -0.8585
  162SOPE   C3518188   1.681   0.309  10.358 -0.3479  0.4040  0.3569
  162SOPE   H5X18189   1.727   0.208  10.363  0.0809  0.7260  4.1667
  162SOPE   H5Y18190   1.744   0.384  10.411  1.0967  2.1603 -3.6001
  162SOPE   C3618191   1.668   0.349  10.211 -0.2410  0.0480 -0.6424
  162SOPE   H6X18192   1.671   0.460  10.208  0.2847  0.1414  1.8495
  162SOPE   H6Y18193   1.568   0.314  10.179 -0.3654  0.6766 -0.9450
  162SOPE   C3718194   1.774   0.286  10.118 -0.1472  0.5001  0.7709
  162SOPE   H7X18195   1.749   0.178  10.108 -0.7347  0.7950 -1.1592
  162SOPE   H7Y18196   1.876   0.291  10.160 -0.2904 -1.0520  1.3353
  162SOPE   C3818197   1.771   0.349   9.980 -0.3215  0.0209  0.8726
  162SOPE   H8X18198   1.817   0.449   9.989 -0.4341  0.0291  1.4061
  162SOPE   H8Y18199   1.663   0.361   9.955  0.1300  2.4297  0.0552
  162SOPE   C3918200   1.839   0.254   9.877  0.1092  0.5590 -0.9361
  162SOPE   H9X18201   1.762   0.174   9.873  1.6956 -0.9480 -1.6992
  162SOPE   H9Y18202   1.926   0.202   9.920 -1.9949 -2.1654  0.1460
  162SOPE  C31018203   1.854   0.318   9.741 -0.0872 -0.1320  0.4365
  162SOPE  H10X18204   1.953   0.368   9.738  1.1694 -2.3476  2.4276
  162SOPE  H10Y18205   1.781   0.393   9.704 -3.5874 -3.5629  0.0636
  162SOPE  C31118206   1.869   0.208   9.633  0.3393 -0.0521  1.0918
  162SOPE  H11X18207   1.780   0.142   9.643 -0.5326  0.7712 -1.0591
  162SOPE  H11Y18208   1.960   0.147   9.646 -0.4801 -1.4609  0.3080
  162SOPE  C31218209   1.874   0.277   9.493 -0.3872  0.2825 -0.1608
  162SOPE  H12X18210   1.963   0.344   9.485  0.6889 -1.3110 -2.1866
  162SOPE  H12Y18211   1.785   0.339   9.469 -1.0776 -1.0105 -1.0173
  162SOPE  C31318212   1.879   0.186   9.370  0.6857 -0.4609 -0.2968
  162SOPE  H13X18213   1.797   0.112   9.361  2.4160 -2.3701 -0.6449
  162SOPE  H13Y18214   1.969   0.121   9.375 -1.8700 -3.9393  3.8926
  162SOPE  C31418215   1.878   0.269   9.241 -0.3083  0.3865  0.4689
  162SOPE  H14X18216   1.937   0.363   9.240 -0.0386  0.2192 -0.4961
  162SOPE  H14Y18217   1.775   0.307   9.226 -1.4849 -3.0239 -0.5111
  162SOPE  C31518218   1.911   0.171   9.119 -0.1789 -0.4603  0.2994
  162SOPE  H15X18219   1.844   0.083   9.124 -1.6491  0.4614 -2.0846
  162SOPE  H15Y18220   2.013   0.137   9.146 -0.1172  0.5064  1.3395
  162SOPE  C31618221   1.914   0.244   8.979 -0.6810 -0.2161 -0.9747
  162SOPE  H16X18222   1.984   0.330   8.987 -1.1273  0.0158  0.6089
  162SOPE  H16Y18223   1.810   0.281   8.966 -0.2881  0.9377 -0.9153
  162SOPE  C31718224   1.938   0.157   8.856 -0.1247  0.3747 -0.1113
  162SOPE  H17X18225   2.039   0.111   8.856  1.2569  3.3188  1.0091
  162SOPE  H17Y18226   1.958   0.234   8.778  3.7709 -0.6330 -0.2135
  162SOPE  C31818227   1.839   0.044   8.821 -0.2850 -0.1715  0.0473
  162SOPE  H18X18228   1.877  -0.023   8.741 -0.0089  2.0922 -1.7716
  162SOPE  H18Y18229   1.744   0.093   8.790  0.3443  1.0161 -0.0514
  162SOPE  H18Z18230   1.814  -0.020   8.908  0.6436 -0.1952  0.3105
  163SOPE     N18231   3.286   3.952  11.303  0.4357  0.3508  0.3646
  163SOPE   HN118232   3.233   3.997  11.381 -1.0429  0.3395 -0.6035
  163SOPE   HN218233   3.312   3.856  11.331 -0.9813  0.2357  1.3714
  163SOPE   HN318234   3.373   4.006  11.282  0.4908  0.4035  0.7233
  163SOPE   C1218235   3.196   3.949  11.177 -0.0154 -0.5753 -0.0741
  163SOPE  H12A18236   3.127   3.862  11.185 -1.7382  0.6292 -1.3494
  163SOPE  H12B18237   3.260   3.949  11.087 -0.3367 -0.5589 -0.3026
  163SOPE   C1118238   3.108   4.074  11.166 -0.2155 -0.0872  0.3969
  163SOPE  H11A18239   3.170   4.160  11.200  0.0446  0.0492 -0.4220
  163SOPE  H11B18240   3.025   4.075  11.240  1.2843 -0.0323  2.1063
  163SOPE     P18241   2.938   4.007  10.973  0.0130 -0.1472  0.0747
  163SOPE   O1318242   2.820   4.103  10.961 -0.0760 -0.8564 -0.4520
  163SOPE   O1418243   2.914   3.884  11.061 -0.2233 -0.4936  1.1024
  163SOPE   O1218244   3.059   4.088  11.035  0.5882 -0.2049 -0.0127
  163SOPE   O1118245   2.980   3.948  10.829  0.1926 -0.2193  0.1597
  163SOPE    C118246   3.052   4.038  10.741  0.5801 -0.0994 -0.3293
  163SOPE    HA18247   3.087   3.981  10.652  2.2472  2.9200 -1.6790
  163SOPE    HB18248   3.143   4.077  10.790  1.6482 -3.8939  0.9266
  163SOPE    C218249   2.963   4.148  10.676 -0.2891  0.2681 -0.2450
  163SOPE    HS18250   2.918   4.206  10.759 -1.4363 -2.8569  1.3792
  163SOPE   O2118251   2.872   4.083  10.581 -0.3201 -0.5456 -0.0129
  163SOPE   C2118252   2.773   4.160  10.550 -0.5154  0.4118  0.2353
  163SOPE   O2218253   2.747   4.272  10.591 -0.0760  0.2426  0.2959
  163SOPE   C2218254   2.694   4.092  10.436  0.1284  0.0781 -0.1378
  163SOPE   H2R18255   2.651   4.000  10.481  2.0525 -0.2700  1.0001
  163SOPE   H2S18256   2.770   4.069  10.358 -0.1667  0.5104 -0.5598
  163SOPE    C318257   3.049   4.261  10.603  0.0882 -0.9425 -0.8535
  163SOPE    HX18258   3.114   4.309  10.679 -1.0988  1.3241 -1.2138
  163SOPE    HY18259   2.983   4.334  10.551 -0.6034  0.8642  2.4365
  163SOPE   O3118260   3.148   4.199  10.517 -0.5399  0.0542 -0.2649
  163SOPE   C3118261   3.111   4.187  10.386 -0.1139 -0.1888 -0.0886
  163SOPE   O3218262   3.013   4.246  10.345  0.2884  0.8258  0.4087
  163SOPE   C3218263   3.207   4.091  10.316  0.2793  0.3431 -0.0083
  163SOPE   H2X18264   3.163   3.989  10.315  0.9974  0.0169  1.0810
  163SOPE   H2Y18265   3.303   4.085  10.370  1.0158  2.0997 -1.0757
  163SOPE   C2318266   2.575   4.171  10.379 -0.1698 -0.4036 -0.1588
  163SOPE   H3R18267   2.509   4.219  10.455 -2.0203 -1.7576 -0.8834
  163SOPE   H3S18268   2.496   4.111  10.328 -0.4060 -0.0473 -0.2142
  163SOPE   C2418269   2.625   4.273  10.277  0.1780  0.8501 -0.1435
  163SOPE   H4R18270   2.700   4.342  10.322 -0.4156  1.5662 -0.2381
  163SOPE   H4S18271   2.688   4.220  10.203  0.3392 -0.9115  1.2307
  163SOPE   C2518272   2.508   4.345  10.207  0.3935 -0.0440  0.3352
  163SOPE   H5R18273   2.435   4.285  10.150  1.7101 -2.2793  0.9025
  163SOPE   H5S18274   2.454   4.403  10.285  2.5333  0.1167  1.7423
  163SOPE   C2618275   2.563   4.445  10.105 -0.1373  0.1606  0.3326
  163SOPE   H6R18276   2.501   4.537  10.107 -2.2206 -1.2209  2.1305
  163SOPE   H6S18277   2.663   4.480  10.141  0.1545  1.7481 -1.9445
  163SOPE   C2718278   2.571   4.378   9.970  0.0818  0.1654 -0.0797
  163SOPE   H7R18279   2.593   4.271   9.989  0.2356  0.0567 -0.8558
  163SOPE   H7S18280   2.473   4.381   9.919  0.7450 -1.0025 -1.4928
  163SOPE   C2818281   2.680   4.444   9.883 -0.0560 -0.1948 -0.1858
  163SOPE   H8R18282   2.782   4.432   9.926  0.9108  1.8983 -1.7874
  163SOPE   H8S18283   2.681   4.393   9.785 -0.8398  0.9674 -0.8073
  163SOPE   C2918284   2.646   4.589   9.864 -0.5014 -0.0316 -0.6022
  163SOPE   H9118285   2.691   4.643   9.949  1.2596 -4.5696  1.5106
  163SOPE  C21018286   2.576   4.653   9.776  0.0272 -1.1475  1.2437
  163SOPE  H10118287   2.561   4.761   9.786  0.4190 -1.0832  1.1420
  163SOPE  C21118288   2.519   4.592   9.654 -0.5415 -0.4291  0.7965
  163SOPE  H11R18289   2.416   4.550   9.652 -1.2675  1.3398  0.0663
  163SOPE  H11S18290   2.576   4.503   9.619  0.4954 -0.2879  2.1016
  163SOPE  C21218291   2.539   4.668   9.526  0.3182  0.3522 -0.3635
  163SOPE  H12R18292   2.646   4.676   9.497  0.5331 -2.9755 -0.6853
  163SOPE  H12S18293   2.504   4.772   9.542  1.5409  0.5347  1.2588
  163SOPE  C21318294   2.459   4.622   9.404 -0.2343  0.2859 -0.7586
  163SOPE  H13R18295   2.358   4.645   9.446  0.6340  1.4761  0.7325
  163SOPE  H13S18296   2.476   4.513   9.397  0.2049  0.0688  2.4973
  163SOPE  C21418297   2.495   4.704   9.283  0.1884 -0.4524  1.0325
  163SOPE  H14R18298   2.605   4.705   9.265  0.1643 -1.1075  0.8281
  163SOPE  H14S18299   2.453   4.804   9.304 -0.0759 -0.7083  1.7350
  163SOPE  C21518300   2.411   4.676   9.148 -0.4785  0.2016 -0.4549
  163SOPE  H15R18301   2.308   4.697   9.184  0.7317 -0.2772  3.5836
  163SOPE  H15S18302   2.417   4.568   9.122 -1.1589  0.2172 -0.6880
  163SOPE  C21618303   2.456   4.766   9.032 -0.7163  0.0442  0.8612
  163SOPE  H16R18304   2.558   4.732   9.003 -0.9035  0.7364 -0.6282
  163SOPE  H16S18305   2.469   4.871   9.066  1.5783  0.4560 -1.1343
  163SOPE  C21718306   2.357   4.764   8.911  0.6228 -0.1426  1.1023
  163SOPE  H17R18307   2.384   4.855   8.852  1.0009 -0.2536  1.1004
  163SOPE  H17S18308   2.253   4.780   8.948 -0.0236  0.0673 -0.7875
  163SOPE  C21818309   2.362   4.642   8.829  0.0610  1.1739 -0.4340
  163SOPE  H18R18310   2.458   4.638   8.773  1.7945  1.1606  2.4196
  163SOPE  H18S18311   2.280   4.640   8.754  0.9868 -0.5807 -1.4148
  163SOPE  H18T18312   2.355   4.557   8.900  0.1322  1.3224 -0.2481
  163SOPE   C3318313   3.241   4.121  10.172  0.3148 -1.0339 -1.1473
  163SOPE   H3X18314   3.318   4.047  10.143  1.7651 -0.2185  0.5500
  163SOPE   H3Y18315   3.290   4.219  10.151  1.1412 -0.6245  2.3425
  163SOPE   C3418316   3.120   4.107  10.080  0.5068 -0.7706 -0.7715
  163SOPE   H4X18317   3.043   4.185  10.097  0.1581 -1.3533  0.3206
  163SOPE   H4Y18318   3.067   4.014  10.109  0.9106 -0.2602  1.7030
  163SOPE   C3518319   3.171   4.107   9.940  0.8999 -0.2731 -0.1284
  163SOPE   H5X18320   3.236   4.020   9.916  2.3750  0.5363  0.8812
  163SOPE   H5Y18321   3.232   4.199   9.928  0.6671  0.1522  1.8754
  163SOPE   C3618322   3.057   4.108   9.830 -0.7794 -0.5239 -0.3977
  163SOPE   H6X18323   2.981   4.182   9.862 -2.2185 -1.6240 -1.1857
  163SOPE   H6Y18324   3.023   4.002   9.836 -1.1512 -0.5473 -2.3422
  163SOPE   C3718325   3.104   4.151   9.690  1.2294  0.4900  0.4649
  163SOPE   H7X18326   3.189   4.084   9.662 -0.1124 -0.4712 -1.4974
  163SOPE   H7Y18327   3.156   4.249   9.690  0.4558  0.9002  1.0164
  163SOPE   C3818328   2.987   4.160   9.593  0.2724  0.1683 -0.0769
  163SOPE   H8X18329   2.924   4.250   9.606 -3.1840 -2.2641  0.9073
  163SOPE   H8Y18330   2.910   4.082   9.613 -0.0553 -0.1350 -2.3655
  163SOPE   C3918331   3.024   4.141   9.441 -0.2994 -0.1100 -0.5164
  163SOPE   H9X18332   2.923   4.140   9.395 -0.3200  0.5958 -0.4944
  163SOPE   H9Y18333   3.048   4.034   9.427  1.9409  0.5857 -2.3650
  163SOPE  C31018334   3.137   4.227   9.396 -0.1282  0.3249  0.0440
  163SOPE  H10X18335   3.227   4.185   9.447  0.0932  0.9114  0.1313
  163SOPE  H10Y18336   3.134   4.334   9.423  0.1055  0.4021 -0.2316
  163SOPE  C31118337   3.158   4.220   9.244 -0.3023 -0.0856 -0.5090
  163SOPE  H11X18338   3.084   4.278   9.185 -0.8337  0.6208  0.8220
  163SOPE  H11Y18339   3.155   4.112   9.219  1.9147 -0.1524 -0.6137
  163SOPE  C31218340   3.298   4.263   9.197 -0.4405  0.3032  0.1277
  163SOPE  H12X18341   3.375   4.210   9.257 -1.0047 -0.0779  0.5219
  163SOPE  H12Y18342   3.315   4.371   9.213 -0.6352  0.7231 -2.3598
  163SOPE  C31318343   3.332   4.230   9.053 -0.0798 -1.1297  0.3523
  163SOPE  H13X18344   3.325   4.119   9.049 -0.2053 -1.0758 -1.1938
  163SOPE  H13Y18345   3.437   4.262   9.041 -0.8956  0.9147 -1.6564
  163SOPE  C31418346   3.252   4.298   8.945  0.4517  0.2576 -0.5623
  163SOPE  H14X18347   3.248   4.404   8.978  0.1322  0.7031 -1.9689
  163SOPE  H14Y18348   3.144   4.269   8.945  0.8703 -1.3740  2.1759
  163SOPE  C31518349   3.321   4.297   8.807 -0.4081 -1.0036  0.5670
  163SOPE  H15X18350   3.421   4.345   8.804  0.3373 -2.3848  2.3234
  163SOPE  H15Y18351   3.264   4.355   8.731  1.0398 -2.3013 -1.5477
  163SOPE  C31618352   3.345   4.154   8.759 -0.6453 -0.1603 -0.1814
  163SOPE  H16X18353   3.271   4.085   8.805 -0.4580 -2.1877 -2.7962
  163SOPE  H16Y18354   3.443   4.128   8.803  0.1245  1.5957 -0.8029
  163SOPE  C31718355   3.337   4.128   8.607  0.0325  0.3047  0.1024
  163SOPE  H17X18356   3.359   4.022   8.581 -0.0694 -0.1155  1.6483
  163SOPE  H17Y18357   3.419   4.190   8.566  0.5633  1.1443  2.3883
  163SOPE  C31818358   3.206   4.161   8.539  0.3267  0.3388 -0.0012
  163SOPE  H18X18359   3.183   4.269   8.542 -0.3226  0.2238 -0.6592
  163SOPE  H18Y18360   3.121   4.099   8.576  0.4517  0.1101 -0.0921
  163SOPE  H18Z18361   3.217   4.137   8.431  2.0726  2.4745 -0.3197
  164SOPE     N18362   4.829   2.605  10.723 -0.5426 -0.0645  0.5258
  164SOPE   HN118363   4.725   2.597  10.724 -0.4250 -1.7895  0.7264
  164SOPE   HN218364   4.863   2.558  10.809 -0.4103  1.8045  1.5200
  164SOPE   HN318365   4.835   2.705  10.748  4.7443  0.4705 -2.1169
  164SOPE   C1218366   4.904   2.602  10.590 -0.3378 -0.4060  0.4077
  164SOPE  H12A18367   4.832   2.630  10.510 -0.7102  0.6480  1.1002
  164SOPE  H12B18368   4.929   2.495  10.573 -1.7638 -0.5821 -0.7434
  164SOPE   C1118369   5.036   2.681  10.597 -0.8333 -0.4644  0.1247
  164SOPE  H11A18370   5.007   2.788  10.610 -2.1068 -0.5449 -2.0260
  164SOPE  H11B18371   5.096   2.667  10.505  0.0424  1.3647  0.3810
  164SOPE     P18372   5.250   2.720  10.744 -0.0070 -0.2707  0.3690
  164SOPE   O1318373   5.337   2.626  10.817 -0.0087  0.1627 -0.3506
  164SOPE   O1418374   5.218   2.855  10.796  0.5277  0.6043  0.3103
  164SOPE   O1218375   5.116   2.644  10.712  0.4521 -0.0642 -0.1349
  164SOPE   O1118376   5.307   2.745  10.602  0.3430  0.3783  0.1842
  164SOPE    C118377   5.371   2.621  10.547  0.1504  0.1527 -0.2732
  164SOPE    HA18378   5.298   2.539  10.534 -0.1403  0.1392  1.2541
  164SOPE    HB18379   5.454   2.582  10.610  1.3233  0.8202 -1.3865
  164SOPE    C218380   5.442   2.647  10.411 -0.0841 -0.0894 -0.4701
  164SOPE    HS18381   5.487   2.554  10.368  0.6383  1.3353 -2.8848
  164SOPE   O2118382   5.537   2.748  10.417 -0.1135  0.2433  0.0177
  164SOPE   C2118383   5.655   2.711  10.465  0.0812  0.3871  0.4154
  164SOPE   O2218384   5.704   2.603  10.483  0.9206  1.0482 -0.0725
  164SOPE   C2218385   5.732   2.842  10.480 -0.4904 -0.0304  0.2232
  164SOPE   H2R18386   5.754   2.865  10.586  0.3826  1.7715 -0.3351
  164SOPE   H2S18387   5.671   2.928  10.445 -1.0585 -0.6935 -0.4653
  164SOPE    C318388   5.332   2.704  10.306  0.1579 -0.0505 -0.2785
  164SOPE    HX18389   5.401   2.750  10.232 -1.0269  0.2848 -1.1858
  164SOPE    HY18390   5.284   2.789  10.358  1.3897 -0.0307  0.8608
  164SOPE   O3118391   5.243   2.609  10.245 -0.0857  0.6094  0.2601
  164SOPE   C3118392   5.165   2.664  10.153  0.5871 -0.9967 -0.6213
  164SOPE   O3218393   5.151   2.783  10.129 -0.2980 -0.1293  0.4519
  164SOPE   C3218394   5.084   2.553  10.089  0.3413 -0.3796  0.0520
  164SOPE   H2X18395   5.008   2.601  10.025 -0.3113 -0.7953  0.5098
  164SOPE   H2Y18396   5.029   2.496  10.167  0.1987 -0.3827 -0.0508
  164SOPE   C2318397   5.865   2.837  10.407 -0.0499 -0.0684 -0.1567
  164SOPE   H3R18398   5.913   2.738  10.425  0.2897  0.4694  2.0403
  164SOPE   H3S18399   5.927   2.913  10.459  1.6350 -1.8596  0.5221
  164SOPE   C2418400   5.831   2.858  10.257  0.8236 -0.4955 -0.1005
  164SOPE   H4R18401   5.773   2.773  10.213 -1.3619  0.3212  1.1408
  164SOPE   H4S18402   5.770   2.948  10.236 -2.1449 -1.8017  2.5097
  164SOPE   C2518403   5.963   2.888  10.182 -0.0595  0.4325  0.6026
  164SOPE   H5R18404   6.013   2.966  10.242  0.5303 -0.3799  1.1852
  164SOPE   H5S18405   6.024   2.795  10.183  0.1342  0.5072 -1.4263
  164SOPE   C2618406   5.952   2.927  10.030  0.2613  0.6854 -0.1454
  164SOPE   H6R18407   5.887   2.854   9.978 -0.0591  0.2301  0.8918
  164SOPE   H6S18408   5.901   3.025  10.027  1.0942  1.2423  2.2794
  164SOPE   C2718409   6.089   2.925   9.959  0.8327 -0.2080 -0.5107
  164SOPE   H7R18410   6.167   2.925  10.037 -1.2099 -0.9603  1.5632
  164SOPE   H7S18411   6.089   2.826   9.910 -1.5236 -1.5776  2.1361
  164SOPE   C2818412   6.107   3.042   9.852  0.1029  0.3901 -0.3995
  164SOPE   H8R18413   6.017   3.052   9.788  1.2229 -1.8142 -2.4173
  164SOPE   H8S18414   6.124   3.138   9.905  0.4669 -0.7575  1.6262
  164SOPE   C2918415   6.222   3.029   9.754  0.7612 -0.2387 -0.6073
  164SOPE   H9118416   6.317   2.989   9.793  0.8143 -0.3667 -0.8656
  164SOPE  C21018417   6.210   3.053   9.620  0.1762 -0.1084 -0.0765
  164SOPE  H10118418   6.292   3.016   9.556  1.5118 -0.1748  1.6110
  164SOPE  C21118419   6.083   3.113   9.555 -0.0755 -0.3143 -0.0481
  164SOPE  H11R18420   6.096   3.222   9.567  0.2794 -0.2669 -0.8163
  164SOPE  H11S18421   5.987   3.079   9.597 -1.0111  1.2894 -0.8685
  164SOPE  C21218422   6.061   3.102   9.403 -0.3709  0.8909  0.1471
  164SOPE  H12R18423   5.966   3.157   9.381 -1.6218 -0.4563  1.9859
  164SOPE  H12S18424   6.042   2.998   9.370 -2.3316  1.3718 -0.3155
  164SOPE  C21318425   6.170   3.172   9.319 -0.0209  0.2643  0.2112
  164SOPE  H13R18426   6.263   3.112   9.330  0.2402  0.5221 -0.6131
  164SOPE  H13S18427   6.183   3.268   9.374 -0.0240  1.0244 -1.1077
  164SOPE  C21418428   6.143   3.176   9.167  0.0465  0.5289  0.5994
  164SOPE  H14R18429   6.055   3.243   9.155  1.7259  2.5809 -0.5519
  164SOPE  H14S18430   6.116   3.075   9.129 -0.5755  1.4538 -1.4928
  164SOPE  C21518431   6.252   3.235   9.086 -0.7732  0.3296  0.7663
  164SOPE  H15R18432   6.353   3.192   9.102 -1.2082 -1.5618 -1.2548
  164SOPE  H15S18433   6.252   3.344   9.108  2.7511  0.7947 -1.1916
  164SOPE  C21618434   6.224   3.232   8.934  0.0429  0.2583  0.2213
  164SOPE  H16R18435   6.210   3.126   8.905 -0.2940 -0.2754  2.2341
  164SOPE  H16S18436   6.318   3.275   8.894  0.5948  1.2900  2.5095
  164SOPE  C21718437   6.098   3.313   8.893 -0.0243 -0.3421 -0.2921
  164SOPE  H17R18438   6.117   3.418   8.924 -0.7383  0.4135 -2.2767
  164SOPE  H17S18439   6.008   3.278   8.948 -0.5991 -3.1766 -2.8925
  164SOPE  C21818440   6.052   3.306   8.745 -0.7851  0.4357 -0.0464
  164SOPE  H18R18441   6.121   3.358   8.675 -0.1501 -0.4940 -0.1175
  164SOPE  H18S18442   5.957   3.363   8.736 -1.9749 -1.4242  0.6306
  164SOPE  H18T18443   6.031   3.202   8.714  0.2062  0.5030 -0.9770
  164SOPE   C3318444   5.167   2.461  10.001  0.3676  0.5489  0.4851
  164SOPE   H3X18445   5.097   2.390   9.950  0.5995  1.2823 -0.8669
  164SOPE   H3Y18446   5.225   2.389  10.063 -0.6631  0.7241  1.6847
  164SOPE   C3418447   5.257   2.526   9.897  1.0440 -0.2819 -0.1349
  164SOPE   H4X18448   5.340   2.458   9.869 -0.3027 -1.9099 -0.2755
  164SOPE   H4Y18449   5.311   2.612   9.943  0.4678  0.2887 -0.5250
  164SOPE   C3518450   5.173   2.574   9.784 -0.6703  0.1930 -0.4329
  164SOPE   H5X18451   5.073   2.621   9.797 -0.7208  0.3521 -1.3434
  164SOPE   H5Y18452   5.149   2.485   9.721 -1.1460  0.7431 -1.0351
  164SOPE   C3618453   5.249   2.666   9.683 -0.1559  0.8883 -0.1576
  164SOPE   H6X18454   5.347   2.632   9.642  0.1038  0.8593  0.4772
  164SOPE   H6Y18455   5.271   2.761   9.735 -1.1239  1.2704 -0.4409
  164SOPE   C3718456   5.158   2.708   9.571  0.1939  0.2906 -0.1502
  164SOPE   H7X18457   5.054   2.725   9.606  0.3680 -0.2949  0.6616
  164SOPE   H7Y18458   5.159   2.620   9.503 -0.0538 -1.1651  1.7093
  164SOPE   C3818459   5.209   2.833   9.496  0.5304  0.5427 -0.0333
  164SOPE   H8X18460   5.309   2.813   9.452  0.7653  0.7086  0.4198
  164SOPE   H8Y18461   5.230   2.921   9.562 -0.6260  0.0500  1.0095
  164SOPE   C3918462   5.115   2.875   9.378  0.0946  0.2090 -0.1596
  164SOPE   H9X18463   5.030   2.936   9.413  1.1182  1.2246  0.6035
  164SOPE   H9Y18464   5.067   2.792   9.321  0.3844 -0.3753  0.4440
  164SOPE  C31018465   5.190   2.942   9.259 -0.2948  0.3261 -0.5986
  164SOPE  H10X18466   5.256   2.869   9.207  0.5324  0.6309  0.0166
  164SOPE  H10Y18467   5.247   3.031   9.292 -1.6659  0.7548  0.6689
  164SOPE  C31118468   5.080   2.996   9.157  0.4449 -0.4160 -0.3238
  164SOPE  H11X18469   5.138   3.064   9.091 -1.8104  1.4829 -0.4076
  164SOPE  H11Y18470   5.010   3.059   9.215 -0.3068 -0.4788 -1.1666
  164SOPE  C31218471   5.013   2.891   9.071 -0.7022  0.1078 -0.6033
  164SOPE  H12X18472   4.961   2.833   9.150 -0.9122  0.7553 -0.2623
  164SOPE  H12Y18473   5.079   2.814   9.027  1.7712  0.6685  1.9992
  164SOPE  C31318474   4.923   2.949   8.961 -0.5713  0.0430 -0.3197
  164SOPE  H13X18475   4.989   2.998   8.886  3.1365 -1.4392  1.8598
  164SOPE  H13Y18476   4.872   3.030   9.018  0.6682 -0.4950  1.6033
  164SOPE  C31418477   4.834   2.858   8.890 -0.0065  0.0298 -0.0594
  164SOPE  H14X18478   4.805   2.777   8.961  0.8942 -1.3285 -1.2258
  164SOPE  H14Y18479   4.889   2.799   8.814 -0.8462 -0.1775 -0.5202
  164SOPE  C31518480   4.717   2.924   8.820 -0.0082  0.0585  0.1560
  164SOPE  H15X18481   4.653   2.972   8.896 -0.8620  0.0980 -0.5822
  164SOPE  H15Y18482   4.667   2.831   8.787  0.4135 -1.0650  2.5768
  164SOPE  C31618483   4.760   3.013   8.694  0.1908 -0.0497  0.5526
  164SOPE  H16X18484   4.797   2.939   8.620 -0.3647 -1.9891  2.1322
  164SOPE  H16Y18485   4.840   3.077   8.735 -1.2026  0.8360  1.9576
  164SOPE  C31718486   4.648   3.107   8.637  0.1380 -0.2244  0.0662
  164SOPE  H17X18487   4.630   3.180   8.719  0.8670 -0.4247  0.4031
  164SOPE  H17Y18488   4.551   3.057   8.617  0.0174  0.1458 -0.2755
  164SOPE  C31818489   4.689   3.196   8.522  0.2019 -0.8130  0.0174
  164SOPE  H18X18490   4.779   3.253   8.553  0.5680 -2.0152  1.1826
  164SOPE  H18Y18491   4.602   3.264   8.506  1.0749  0.1965 -0.4792
  164SOPE  H18Z18492   4.705   3.136   8.430 -4.2536  0.3413 -1.6629
  165SOPE     N18493   4.605   3.595  11.293 -0.0937 -0.0284  0.1906
  165SOPE   HN118494   4.543   3.513  11.307  0.4509 -0.6445 -0.8986
  165SOPE   HN218495   4.672   3.607  11.372  2.8765 -1.1917 -2.0612
  165SOPE   HN318496   4.541   3.676  11.279 -2.1659 -1.6962 -0.1943
  165SOPE   C1218497   4.691   3.581  11.169  0.5947 -0.3030  0.4142
  165SOPE  H12A18498   4.743   3.483  11.177 -0.9343 -1.0330  1.5412
  165SOPE  H12B18499   4.763   3.665  11.175 -0.6214  1.2154 -4.3033
  165SOPE   C1118500   4.613   3.590  11.031  0.1076  0.4406 -0.7029
  165SOPE  H11A18501   4.537   3.509  11.033  1.5958 -0.9455  1.5306
  165SOPE  H11B18502   4.689   3.559  10.957  0.4567 -1.0077  0.2407
  165SOPE     P18503   4.422   3.762  10.950  0.1799 -0.3317  0.0929
  165SOPE   O1318504   4.435   3.908  10.913  0.6892  0.1252 -0.5658
  165SOPE   O1418505   4.318   3.725  11.045 -0.1843 -0.3280 -0.5924
  165SOPE   O1218506   4.559   3.724  11.014 -0.6079  0.5223 -0.2280
  165SOPE   O1118507   4.402   3.666  10.832  0.0883  0.0202  0.0529
  165SOPE    C118508   4.454   3.672  10.701  0.1571 -0.0146 -0.2604
  165SOPE    HA18509   4.470   3.570  10.658 -0.1650  1.0192 -2.9211
  165SOPE    HB18510   4.549   3.730  10.702 -0.3250  0.7694 -0.3268
  165SOPE    C218511   4.349   3.738  10.600 -0.5965 -0.2789 -0.3266
  165SOPE    HS18512   4.330   3.843  10.631  0.2205 -0.0582 -0.5691
  165SOPE   O2118513   4.234   3.652  10.604 -0.2533 -0.0465  0.0482
  165SOPE   C2118514   4.133   3.711  10.552 -0.2429  0.4279  0.2674
  165SOPE   O2218515   4.119   3.828  10.526  0.3644 -0.2201  0.6000
  165SOPE   C2218516   4.017   3.612  10.522  1.2549  0.3605 -0.7753
  165SOPE   H2R18517   3.930   3.679  10.503  0.1249 -0.1095  2.5105
  165SOPE   H2S18518   3.995   3.540  10.603  2.9259 -0.4574 -1.0509
  165SOPE    C318519   4.407   3.735  10.454 -0.1020 -0.0536 -0.0038
  165SOPE    HX18520   4.335   3.783  10.383 -0.4193 -1.4858 -0.6589
  165SOPE    HY18521   4.410   3.628  10.425  1.0101 -0.6265  2.2008
  165SOPE   O3118522   4.546   3.784  10.452  0.2411  0.2818 -0.3626
  165SOPE   C3118523   4.555   3.929  10.452  0.8139  0.1876  0.0381
  165SOPE   O3218524   4.450   3.996  10.460  0.0722 -0.0826 -0.3668
  165SOPE   C3218525   4.695   3.985  10.440 -0.0675  0.4565 -0.2166
  165SOPE   H2X18526   4.760   3.900  10.412  0.9611  1.9473 -2.4815
  165SOPE   H2Y18527   4.737   4.021  10.536  1.0509  1.4872 -1.0805
  165SOPE   C2318528   4.058   3.522  10.394 -0.1748 -1.0805 -0.2471
  165SOPE   H3R18529   3.975   3.449  10.377  0.0656 -1.2319 -0.7630
  165SOPE   H3S18530   4.142   3.460  10.432  0.3314  0.3179  0.9260
  165SOPE   C2418531   4.091   3.603  10.274 -0.2931 -0.0086  0.0110
  165SOPE   H4R18532   4.018   3.687  10.280 -0.9958 -0.6467  0.4255
  165SOPE   H4S18533   4.196   3.640  10.283 -0.0791 -0.5599 -0.1837
  165SOPE   C2518534   4.093   3.538  10.135 -0.5766  0.0223  0.1506
  165SOPE   H5R18535   4.171   3.462  10.116 -2.3459 -1.6762 -0.4554
  165SOPE   H5S18536   4.000   3.478  10.135 -0.7708  0.3155 -0.9020
  165SOPE   C2618537   4.106   3.641  10.021  0.2895  0.4374  0.5366
  165SOPE   H6R18538   4.021   3.711  10.036  0.2216  0.3407  0.6034
  165SOPE   H6S18539   4.199   3.702  10.019 -0.6252  1.8443 -0.8785
  165SOPE   C2718540   4.097   3.576   9.884 -0.5137 -0.1048 -0.8107
  165SOPE   H7R18541   4.143   3.475   9.889 -0.3190  0.0355  0.4917
  165SOPE   H7S18542   3.991   3.549   9.870 -0.4435 -0.5611 -0.4644
  165SOPE   C2818543   4.160   3.660   9.769  0.2825  0.1154 -0.9413
  165SOPE   H8R18544   4.256   3.697   9.810  1.2592 -0.9730 -2.2047
  165SOPE   H8S18545   4.195   3.590   9.690  3.7399 -1.0851  1.5457
  165SOPE   C2918546   4.087   3.775   9.709  0.4131  0.1325 -0.1073
  165SOPE   H9118547   4.083   3.855   9.785  0.1293  0.4885 -0.4977
  165SOPE  C21018548   4.029   3.788   9.588  0.8117  0.2091 -0.1028
  165SOPE  H10118549   3.989   3.888   9.563  0.5737  1.1270  3.6251
  165SOPE  C21118550   4.037   3.675   9.485 -0.1105  0.5941 -0.7480
  165SOPE  H11R18551   4.128   3.614   9.503 -0.9560 -0.4248  0.1482
  165SOPE  H11S18552   4.056   3.716   9.383 -2.2840 -0.5906 -1.6528
  165SOPE  C21218553   3.908   3.593   9.472 -0.0003 -0.6022 -0.0999
  165SOPE  H12R18554   3.827   3.653   9.425 -0.2407 -0.9714 -0.1676
  165SOPE  H12S18555   3.878   3.549   9.569 -1.6630 -2.2517 -1.3070
  165SOPE  C21318556   3.926   3.468   9.387 -0.4187 -0.2423 -0.2824
  165SOPE  H13R18557   3.836   3.405   9.381 -0.8280  0.6486 -4.9688
  165SOPE  H13S18558   4.021   3.412   9.400  0.2325  0.8371 -0.3000
  165SOPE  C21418559   3.933   3.511   9.234 -0.4904  0.2425 -0.4551
  165SOPE  H14R18560   4.030   3.564   9.220 -0.0217 -0.5856 -0.3330
  165SOPE  H14S18561   3.850   3.586   9.232 -1.0896 -0.4020  0.0645
  165SOPE  C21518562   3.896   3.416   9.124 -0.5075 -0.0162 -0.1757
  165SOPE  H15R18563   3.800   3.364   9.144  0.2824 -1.7005 -0.7404
  165SOPE  H15S18564   3.968   3.332   9.130 -1.5290 -1.0298 -1.7598
  165SOPE  C21618565   3.919   3.476   8.988  0.0581 -0.3231  0.2704
  165SOPE  H16R18566   4.022   3.516   8.974  0.0716 -1.1070 -2.0605
  165SOPE  H16S18567   3.847   3.559   8.975 -0.0841 -0.0037  2.8291
  165SOPE  C21718568   3.899   3.380   8.872  0.2970  0.1929 -0.5565
  165SOPE  H17R18569   3.801   3.341   8.908  0.7065  0.8748  1.3632
  165SOPE  H17S18570   3.980   3.305   8.865 -0.2629 -0.4209 -0.5349
  165SOPE  C21818571   3.879   3.463   8.743  0.2072 -0.3017 -0.2153
  165SOPE  H18R18572   3.967   3.527   8.719  0.9697 -0.8306  1.1554
  165SOPE  H18S18573   3.787   3.523   8.754  0.7570  0.2242  1.7080
  165SOPE  H18T18574   3.860   3.387   8.664 -0.9463  0.6578 -0.8723
  165SOPE   C3318575   4.706   4.105  10.338  0.2281  0.1948  0.1982
  165SOPE   H3X18576   4.795   4.166  10.365 -0.2194  0.7605  0.4072
  165SOPE   H3Y18577   4.625   4.178  10.356  0.4694  0.4897  0.1059
  165SOPE   C3418578   4.723   4.043  10.199 -0.1543  0.0656  0.7704
  165SOPE   H4X18579   4.764   3.943  10.221  0.7262  0.6417  1.7652
  165SOPE   H4Y18580   4.789   4.110  10.138  1.4268 -1.9637  0.2082
  165SOPE   C3518581   4.592   4.034  10.120  0.6216  0.4190 -1.0994
  165SOPE   H5X18582   4.548   4.132  10.090 -0.1687  0.6515  0.7357
  165SOPE   H5Y18583   4.516   3.983  10.182  0.1338  0.5345 -1.5925
  165SOPE   C3618584   4.621   3.953   9.995  0.0468 -0.7124 -0.3321
  165SOPE   H6X18585   4.637   3.844  10.010  0.1392 -0.6446  0.0769
  165SOPE   H6Y18586   4.709   4.001   9.947 -1.8105  0.9534 -2.1479
  165SOPE   C3718587   4.516   3.973   9.886 -1.0569  1.3058  0.7588
  165SOPE   H7X18588   4.500   4.081   9.864  0.0961  0.5941 -4.0773
  165SOPE   H7Y18589   4.425   3.930   9.932 -1.4263  1.8109  0.5188
  165SOPE   C3818590   4.562   3.905   9.759  0.0256  0.8365  0.4846
  165SOPE   H8X18591   4.586   3.797   9.771 -0.2321  0.6201 -0.8133
  165SOPE   H8Y18592   4.655   3.955   9.725  0.7042 -0.6596  0.0796
  165SOPE   C3918593   4.466   3.915   9.639  0.2779  0.1740  1.2766
  165SOPE   H9X18594   4.445   4.023   9.621 -1.1161 -0.3135 -0.2009
  165SOPE   H9Y18595   4.371   3.869   9.673 -0.4971  0.9298  0.1692
  165SOPE  C31018596   4.515   3.846   9.507 -0.0710  0.6303 -0.2136
  165SOPE  H10X18597   4.546   3.740   9.521 -1.3245  0.2474 -0.2028
  165SOPE  H10Y18598   4.603   3.905   9.474  1.1629 -0.4016  1.1338
  165SOPE  C31118599   4.407   3.827   9.399 -0.1489  0.2459  0.5150
  165SOPE  H11X18600   4.352   3.923   9.392  0.5706  0.6279 -0.0255
  165SOPE  H11Y18601   4.316   3.768   9.421  1.0817 -2.5748 -1.7025
  165SOPE  C31218602   4.463   3.782   9.269  0.7443 -0.1890  0.2767
  165SOPE  H12X18603   4.525   3.693   9.290 -1.1342 -1.8413 -1.0307
  165SOPE  H12Y18604   4.525   3.863   9.224  0.6162  0.3564  1.0611
  165SOPE  C31318605   4.351   3.760   9.157 -0.4579  0.2892 -0.0527
  165SOPE  H13X18606   4.285   3.674   9.182  1.1946 -0.7661  0.7555
  165SOPE  H13Y18607   4.392   3.714   9.065 -0.0737  0.8950 -0.1859
  165SOPE  C31418608   4.275   3.888   9.115 -1.1238  0.2940 -0.0771
  165SOPE  H14X18609   4.344   3.969   9.085 -0.5081 -0.0507  0.3928
  165SOPE  H14Y18610   4.217   3.908   9.208  0.6938 -1.4593  1.4746
  165SOPE  C31518611   4.173   3.866   9.008  0.9583 -0.1409 -0.6730
  165SOPE  H15X18612   4.099   3.950   9.010  1.6133  0.4763 -2.0711
  165SOPE  H15Y18613   4.111   3.779   9.040  0.4313  0.4656  0.0005
  165SOPE  C31618614   4.223   3.832   8.871 -0.2673 -0.7807  0.5048
  165SOPE  H16X18615   4.276   3.735   8.871 -1.0388 -1.2134 -1.6300
  165SOPE  H16Y18616   4.300   3.909   8.851 -1.9516  0.9620  0.5365
  165SOPE  C31718617   4.104   3.813   8.773 -0.7695 -0.1888  0.4521
  165SOPE  H17X18618   4.042   3.728   8.807  1.1095 -0.1906  4.1109
  165SOPE  H17Y18619   4.143   3.783   8.673  0.8097  0.7170  0.7678
  165SOPE  C31818620   4.012   3.935   8.746  0.4391  0.6015 -0.4519
  165SOPE  H18X18621   3.935   3.904   8.672 -0.0295 -2.6941  1.3097
  165SOPE  H18Y18622   4.062   4.021   8.696  1.3681  0.8010  0.8120
  165SOPE  H18Z18623   3.971   3.971   8.843 -2.0975 -0.1181 -1.2103
  166SOPE     N18624   0.704   3.805  10.988  0.2253  0.5183 -0.9276
  166SOPE   HN118625   0.707   3.706  10.957  0.2129 -0.6653  2.5675
  166SOPE   HN218626   0.712   3.861  10.900  0.5847  2.7476  0.4660
  166SOPE   HN318627   0.796   3.815  11.036  0.2189 -0.5623 -0.6890
  166SOPE   C1218628   0.573   3.839  11.063  0.7147 -0.4768  1.3211
  166SOPE  H12A18629   0.576   3.939  11.110  0.0431 -0.5749  1.5757
  166SOPE  H12B18630   0.558   3.756  11.135  0.5756 -0.0857  1.7415
  166SOPE   C1118631   0.456   3.841  10.962 -0.5998 -0.1527 -0.7206
  166SOPE  H11A18632   0.480   3.926  10.895  1.7599  0.2524  0.5649
  166SOPE  H11B18633   0.362   3.858  11.019  0.8777  0.6760  1.5252
  166SOPE     P18634   0.327   3.693  10.796 -0.0052  0.5643 -0.1214
  166SOPE   O1318635   0.203   3.706  10.878  0.5586 -0.0211  0.0123
  166SOPE   O1418636   0.341   3.572  10.718 -0.5737  0.4776  0.3432
  166SOPE   O1218637   0.454   3.716  10.888  0.1991 -0.1344 -0.2547
  166SOPE   O1118638   0.339   3.818  10.701  0.6042 -0.3664  0.1551
  166SOPE    C118639   0.460   3.866  10.633  0.3385 -1.0692  0.0704
  166SOPE    HA18640   0.540   3.790  10.644 -1.1246 -2.7200 -0.4786
  166SOPE    HB18641   0.499   3.960  10.677  0.8114  0.2818 -3.1332
  166SOPE    C218642   0.427   3.890  10.487  0.1637 -0.1349  0.0732
  166SOPE    HS18643   0.525   3.878  10.438  0.5637  1.1735  0.5171
  166SOPE   O2118644   0.381   4.020  10.458 -0.1681  0.0370  0.3344
  166SOPE   C2118645   0.472   4.115  10.433  0.3162  0.0980  0.7386
  166SOPE   O2218646   0.591   4.096  10.417 -0.0620 -0.2228  0.5124
  166SOPE   C2218647   0.410   4.259  10.423  0.1408  0.2026  0.8701
  166SOPE   H2R18648   0.435   4.297  10.525  3.2896 -1.3058  0.7375
  166SOPE   H2S18649   0.304   4.256  10.389  1.2587 -1.1206 -2.7164
  166SOPE    C318650   0.333   3.780  10.433  0.1501 -0.3291 -0.3503
  166SOPE    HX18651   0.236   3.813  10.475 -0.2863 -1.0218 -0.8185
  166SOPE    HY18652   0.346   3.675  10.468  0.4499  0.5761  2.3599
  166SOPE   O3118653   0.323   3.791  10.286  0.2499  0.0635 -1.0120
  166SOPE   C3118654   0.424   3.732  10.227  0.3318  0.4553  0.1833
  166SOPE   O3218655   0.507   3.659  10.280 -0.0137 -0.4863  0.4326
  166SOPE   C3218656   0.420   3.752  10.072 -0.6819  0.2340  0.8624
  166SOPE   H2X18657   0.416   3.862  10.058 -1.1872 -0.2027 -2.9103
  166SOPE   H2Y18658   0.325   3.717  10.027 -1.1650  2.6029 -0.0029
  166SOPE   C2318659   0.501   4.346  10.325 -0.3114  0.3924  0.1207
  166SOPE   H3R18660   0.606   4.339  10.361 -0.1467  0.4347 -0.3591
  166SOPE   H3S18661   0.481   4.455  10.331 -0.0122  0.4181  0.7289
  166SOPE   C2418662   0.500   4.301  10.176 -0.1705 -0.1730  0.2928
  166SOPE   H4R18663   0.487   4.192  10.164 -0.8675  0.1876 -2.4445
  166SOPE   H4S18664   0.406   4.347  10.139 -0.1150 -0.8119 -0.6375
  166SOPE   C2518665   0.616   4.348  10.084  0.0371  0.4054 -0.1378
  166SOPE   H5R18666   0.624   4.457  10.106 -2.7450  0.4952  0.7669
  166SOPE   H5S18667   0.700   4.287  10.123  0.4258 -1.1628 -3.3544
  166SOPE   C2618668   0.594   4.318   9.939 -0.7686  0.3325 -0.5259
  166SOPE   H6R18669   0.586   4.208   9.928  2.6424 -0.1376  1.0644
  166SOPE   H6S18670   0.494   4.363   9.921 -1.9733 -1.9240  0.4136
  166SOPE   C2718671   0.717   4.354   9.856  0.5739  0.2029  0.2152
  166SOPE   H7R18672   0.720   4.465   9.861 -1.2783  0.1677  2.9712
  166SOPE   H7S18673   0.806   4.309   9.906  0.0478  1.7666  2.6324
  166SOPE   C2818674   0.692   4.293   9.712  0.4190 -0.4419 -0.4829
  166SOPE   H8R18675   0.794   4.295   9.668  0.4781  0.5518 -0.3155
  166SOPE   H8S18676   0.656   4.188   9.714 -0.6139 -0.0932 -1.0090
  166SOPE   C2918677   0.604   4.382   9.632 -0.1108 -0.2308 -0.4840
  166SOPE   H9118678   0.515   4.418   9.685  1.0583 -0.7259  1.8436
  166SOPE  C21018679   0.624   4.433   9.505 -0.0865  0.4266 -0.2538
  166SOPE  H10118680   0.546   4.496   9.461 -1.0150 -0.0100  0.7314
  166SOPE  C21118681   0.735   4.384   9.413 -0.3800 -0.1458 -0.0403
  166SOPE  H11R18682   0.823   4.366   9.478 -0.8899 -1.8021  0.2197
  166SOPE  H11S18683   0.773   4.448   9.330  1.6846 -2.5238 -1.0100
  166SOPE  C21218684   0.695   4.247   9.341 -0.3265 -0.3402  0.9867
  166SOPE  H12R18685   0.603   4.269   9.283 -0.2321 -1.1541  0.5151
  166SOPE  H12S18686   0.673   4.165   9.413  1.1775 -2.7481 -1.1900
  166SOPE  C21318687   0.794   4.198   9.237 -0.1910 -0.7477  0.1608
  166SOPE  H13R18688   0.753   4.098   9.213  0.0297 -1.0689  1.1067
  166SOPE  H13S18689   0.889   4.179   9.291 -0.1780  0.2101  0.4760
  166SOPE  C21418690   0.822   4.287   9.121 -0.2408 -0.3246 -0.4176
  166SOPE  H14R18691   0.872   4.382   9.150  1.4026 -1.7638  1.6413
  166SOPE  H14S18692   0.724   4.307   9.074  0.0608  0.0254 -0.9065
  166SOPE  C21518693   0.916   4.238   9.008  0.4570  0.4573 -0.1219
  166SOPE  H15R18694   0.883   4.135   8.982  1.4803 -0.1774  1.0519
  166SOPE  H15S18695   1.014   4.229   9.059 -0.6941 -0.0072  2.0848
  166SOPE  C21618696   0.908   4.325   8.874  0.0078  0.5636  0.0011
  166SOPE  H16R18697   0.799   4.339   8.855 -0.5722 -1.6076  1.4560
  166SOPE  H16S18698   0.949   4.265   8.790  0.5822 -0.0451  0.7143
  166SOPE  C21718699   0.973   4.459   8.879 -0.0301  0.0064 -0.4138
  166SOPE  H17R18700   1.083   4.473   8.877  0.2355 -2.0142 -1.6906
  166SOPE  H17S18701   0.940   4.508   8.973  0.2040  0.2564 -0.4626
  166SOPE  C21818702   0.914   4.534   8.761  0.7647  0.0631 -0.1235
  166SOPE  H18R18703   0.804   4.535   8.778  0.8708  0.3929  0.5456
  166SOPE  H18S18704   0.928   4.477   8.667 -0.7514 -1.9095  0.7904
  166SOPE  H18T18705   0.946   4.640   8.755  1.7979 -0.2028  0.6297
  166SOPE   C3318706   0.538   3.679  10.004 -0.4449  0.2788  0.0053
  166SOPE   H3X18707   0.626   3.684  10.071 -0.4662  2.4167 -0.0794
  166SOPE   H3Y18708   0.551   3.724   9.903  1.6948 -2.1383 -0.8558
  166SOPE   C3418709   0.509   3.531   9.981  0.2106 -0.0389 -0.1798
  166SOPE   H4X18710   0.482   3.489  10.080  2.0478  0.0604  0.3897
  166SOPE   H4Y18711   0.600   3.473   9.954  0.5974  1.3498 -1.9127
  166SOPE   C3518712   0.408   3.508   9.863 -0.1895 -0.6196  0.4270
  166SOPE   H5X18713   0.365   3.607   9.833 -0.5247 -0.6051  0.9559
  166SOPE   H5Y18714   0.330   3.436   9.897  0.1002  0.1898  2.8704
  166SOPE   C3618715   0.483   3.458   9.737 -0.7040 -0.0836 -0.0693
  166SOPE   H6X18716   0.530   3.361   9.766 -0.7098  0.3349  1.3757
  166SOPE   H6Y18717   0.566   3.531   9.736 -0.5498 -0.2498  0.6336
  166SOPE   C3718718   0.409   3.460   9.602 -0.3874 -0.2319  0.6910
  166SOPE   H7X18719   0.379   3.558   9.559 -0.8122 -1.4482 -1.8845
  166SOPE   H7Y18720   0.309   3.412   9.611 -0.6340  0.0230 -0.6349
  166SOPE   C3818721   0.495   3.381   9.504 -0.8781  1.0522 -0.5017
  166SOPE   H8X18722   0.602   3.387   9.533 -0.4763  2.8806 -2.2751
  166SOPE   H8Y18723   0.482   3.426   9.403 -0.3567 -0.1772 -1.1350
  166SOPE   C3918724   0.445   3.230   9.491  0.5733  0.2805  0.4106
  166SOPE   H9X18725   0.334   3.236   9.489  0.6556  2.0823 -1.0345
  166SOPE   H9Y18726   0.484   3.182   9.583 -0.8022 -0.3115  0.7021
  166SOPE  C31018727   0.505   3.153   9.373 -0.3373  1.0854 -0.8297
  166SOPE  H10X18728   0.510   3.049   9.413  0.5266  0.5964 -2.1638
  166SOPE  H10Y18729   0.608   3.178   9.338 -0.3074  0.2766 -1.3400
  166SOPE  C31118730   0.402   3.153   9.253  0.4306 -0.1148  0.0184
  166SOPE  H11X18731   0.384   3.261   9.235  1.0477  0.1082  0.7245
  166SOPE  H11Y18732   0.310   3.115   9.303  1.3334  1.8286  3.3124
  166SOPE  C31218733   0.443   3.070   9.136 -0.2203  0.6345 -0.5716
  166SOPE  H12X18734   0.352   3.028   9.087 -0.4589  0.0399  0.3774
  166SOPE  H12Y18735   0.510   2.987   9.164 -0.7390  0.0079 -1.1645
  166SOPE  C31318736   0.512   3.149   9.026  0.5579  0.3589 -0.2011
  166SOPE  H13X18737   0.584   3.216   9.078 -1.4365  1.6232  1.0168
  166SOPE  H13Y18738   0.434   3.211   8.978  0.5707  0.0675 -0.5989
  166SOPE  C31418739   0.601   3.070   8.928  0.1968  0.1663 -0.3184
  166SOPE  H14X18740   0.652   2.984   8.978  3.4682  2.5891  0.6769
  166SOPE  H14Y18741   0.687   3.132   8.895  0.2707 -0.3303 -1.0693
  166SOPE  C31518742   0.515   3.013   8.813 -0.1412 -0.3962 -0.3717
  166SOPE  H15X18743   0.477   3.104   8.762  0.8612  0.2784  0.0779
  166SOPE  H15Y18744   0.434   2.948   8.854 -0.3247  0.4712  0.6475
  166SOPE  C31618745   0.600   2.954   8.706  0.0182  0.5075  0.1140
  166SOPE  H16X18746   0.611   2.849   8.739  0.6069  0.2347 -0.9205
  166SOPE  H16Y18747   0.699   3.000   8.688  0.2701  0.2621  0.8859
  166SOPE  C31718748   0.517   2.959   8.575 -1.1672  0.3080  0.1933
  166SOPE  H17X18749   0.497   3.063   8.540  1.8430  1.4247  1.5544
  166SOPE  H17Y18750   0.422   2.909   8.601 -0.1984 -1.6656  0.0143
  166SOPE  C31818751   0.588   2.877   8.468 -0.1386  0.1326  0.3675
  166SOPE  H18X18752   0.570   2.769   8.485 -0.9796  0.4386  1.5003
  166SOPE  H18Y18753   0.699   2.883   8.466 -0.1998  0.9141 -2.9311
  166SOPE  H18Z18754   0.561   2.907   8.364  0.1583  0.3210  0.3441
  167SOPE     N18755   2.631   1.366   5.980  0.4196  0.0544  0.2154
  167SOPE   HN118756   2.597   1.273   5.948  1.1198 -0.2030  0.2157
  167SOPE   HN218757   2.729   1.357   6.014 -0.0902 -4.8547  0.6502
  167SOPE   HN318758   2.571   1.391   6.061 -0.1478  0.4319 -0.3126
  167SOPE   C1218759   2.596   1.479   5.884 -0.2355  0.3190  0.0147
  167SOPE  H12A18760   2.544   1.427   5.800 -0.5885 -0.2553  0.5872
  167SOPE  H12B18761   2.689   1.524   5.843  0.4893 -1.2535 -0.0932
  167SOPE   C1118762   2.510   1.592   5.942  0.4581  0.7766 -0.2039
  167SOPE  H11A18763   2.464   1.646   5.857 -1.3356  0.5590  0.6091
  167SOPE  H11B18764   2.589   1.657   5.985  1.4629 -0.9759  0.6551
  167SOPE     P18765   2.290   1.655   6.065  0.2672  0.0053  0.5543
  167SOPE   O1318766   2.184   1.626   5.968  0.1304 -0.0145 -0.1328
  167SOPE   O1418767   2.331   1.800   6.073 -0.1336  0.4927  0.2696
  167SOPE   O1218768   2.415   1.551   6.039  0.0870 -0.4548 -0.5838
  167SOPE   O1118769   2.239   1.613   6.209  0.1074  0.0658 -0.8483
  167SOPE    C118770   2.157   1.497   6.224  0.0339  0.1863 -0.2328
  167SOPE    HA18771   2.196   1.414   6.162  2.4906  2.0205 -1.2338
  167SOPE    HB18772   2.054   1.517   6.188 -0.1812 -1.8238 -0.8130
  167SOPE    C218773   2.145   1.449   6.369 -0.8268  0.6280  0.2390
  167SOPE    HS18774   2.123   1.340   6.364  0.1858  0.3909  0.8338
  167SOPE   O2118775   2.040   1.530   6.433  0.2865  0.4117 -0.2949
  167SOPE   C2118776   1.936   1.460   6.488 -0.5304 -0.8227  0.7000
  167SOPE   O2218777   1.939   1.337   6.487  0.8897  0.4724  0.4466
  167SOPE   C2218778   1.818   1.550   6.541 -0.4304 -0.1441 -0.3656
  167SOPE   H2R18779   1.741   1.483   6.585 -0.8547  1.5588  1.5617
  167SOPE   H2S18780   1.769   1.593   6.451  1.2263  0.2130 -1.1032
  167SOPE    C318781   2.269   1.457   6.465  0.4892 -0.9133  0.8659
  167SOPE    HX18782   2.319   1.555   6.447  2.0855 -1.7933  0.4315
  167SOPE    HY18783   2.342   1.387   6.419  0.4458  0.5418 -1.5275
  167SOPE   O3118784   2.248   1.419   6.600 -0.6601  0.1072  0.0758
  167SOPE   C3118785   2.342   1.467   6.673  0.1013  0.6361  0.1928
  167SOPE   O3218786   2.441   1.537   6.646 -0.0361 -0.4648  0.3232
  167SOPE   C3218787   2.318   1.419   6.814  0.6134 -0.4913  0.3820
  167SOPE   H2X18788   2.269   1.319   6.816 -0.0640 -0.1340  1.7787
  167SOPE   H2Y18789   2.252   1.499   6.854  0.0673 -0.3753 -0.7062
  167SOPE   C2318790   1.846   1.667   6.644 -0.2467  0.1849 -0.6421
  167SOPE   H3R18791   1.782   1.749   6.606 -0.4819 -0.3498 -1.4136
  167SOPE   H3S18792   1.951   1.699   6.624  0.6575 -0.4070  2.9180
  167SOPE   C2418793   1.818   1.642   6.789  0.1888  0.4409  0.7405
  167SOPE   H4R18794   1.839   1.733   6.850  0.1592  2.9921 -2.9105
  167SOPE   H4S18795   1.712   1.611   6.803  0.0036  1.4001  1.5205
  167SOPE   C2518796   1.920   1.540   6.849  0.0667  0.0669 -0.2848
  167SOPE   H5R18797   1.892   1.451   6.787  2.8523 -0.4127 -0.9108
  167SOPE   H5S18798   2.026   1.570   6.835  0.8962 -1.8859  1.5458
  167SOPE   C2618799   1.888   1.516   6.998 -0.1429  0.4894  0.3550
  167SOPE   H6R18800   1.882   1.611   7.056  3.8336  1.0228  0.0351
  167SOPE   H6S18801   1.786   1.475   7.007  0.3385 -0.7133  0.4168
  167SOPE   C2718802   1.984   1.419   7.075  0.3554  0.4307  0.7525
  167SOPE   H7R18803   1.992   1.323   7.020  1.7756  0.9007  0.1109
  167SOPE   H7S18804   2.086   1.463   7.066  0.0274  0.9757 -0.4481
  167SOPE   C2818805   1.944   1.392   7.222 -0.0239  0.5815 -0.9188
  167SOPE   H8R18806   1.852   1.329   7.224  0.9619 -0.8423  0.4972
  167SOPE   H8S18807   2.033   1.338   7.261  0.1586 -0.1800 -2.3621
  167SOPE   C2918808   1.917   1.516   7.302  0.1762  0.6675  0.7756
  167SOPE   H9118809   1.941   1.613   7.256 -2.8369  1.4291  0.7680
  167SOPE  C21018810   1.853   1.527   7.421 -0.0096  0.0228  0.2676
  167SOPE  H10118811   1.850   1.628   7.464 -1.6521  0.4837 -0.8600
  167SOPE  C21118812   1.796   1.421   7.506  0.3886 -0.1418  0.2234
  167SOPE  H11R18813   1.844   1.398   7.603 -0.5192  1.5123  1.0868
  167SOPE  H11S18814   1.812   1.325   7.453  2.0651 -0.3448  1.0562
  167SOPE  C21218815   1.647   1.435   7.532  0.2536 -0.0399 -0.0330
  167SOPE  H12R18816   1.587   1.468   7.445  0.6529 -2.3203 -1.1953
  167SOPE  H12S18817   1.642   1.511   7.613  3.2552  0.1208  0.0630
  167SOPE  C21318818   1.587   1.309   7.595 -0.4829 -0.7360 -0.4028
  167SOPE  H13R18819   1.638   1.225   7.544 -1.6606 -1.3691 -0.5696
  167SOPE  H13S18820   1.476   1.305   7.583 -0.8571  1.3533  1.9027
  167SOPE  C21418821   1.608   1.304   7.747  0.0421 -0.1280 -0.1823
  167SOPE  H14R18822   1.544   1.385   7.786  0.2659 -0.1309  0.1866
  167SOPE  H14S18823   1.712   1.335   7.770 -0.0592  0.2159 -0.1868
  167SOPE  C21518824   1.583   1.161   7.797 -0.5610  0.9120 -0.8770
  167SOPE  H15R18825   1.620   1.087   7.723 -0.4662  1.0538 -0.9713
  167SOPE  H15S18826   1.477   1.138   7.820 -0.0780 -0.2423  0.2453
  167SOPE  C21618827   1.646   1.138   7.931  0.6475  0.7160 -0.4591
  167SOPE  H16R18828   1.592   1.197   8.008 -0.1260  0.9164 -1.1594
  167SOPE  H16S18829   1.746   1.187   7.933 -0.3382  2.7538 -0.4106
  167SOPE  C21718830   1.663   0.986   7.966 -0.2666  0.2552 -0.0949
  167SOPE  H17R18831   1.571   0.962   8.024  1.0631 -2.1296  1.1137
  167SOPE  H17S18832   1.745   0.965   8.038 -0.0422 -2.2395 -1.0367
  167SOPE  C21818833   1.680   0.880   7.862  0.4854 -0.3550 -0.4817
  167SOPE  H18R18834   1.767   0.888   7.793 -0.0287  0.5346 -1.0388
  167SOPE  H18S18835   1.593   0.879   7.793 -0.1569 -0.3614  0.3183
  167SOPE  H18T18836   1.696   0.780   7.909  4.1266 -0.2187 -1.2422
  167SOPE   C3318837   2.447   1.424   6.904  0.1936 -0.2225 -0.1668
  167SOPE   H3X18838   2.487   1.527   6.894  0.1964 -0.1044  0.9817
  167SOPE   H3Y18839   2.535   1.359   6.885 -0.3839 -0.6242 -1.4590
  167SOPE   C3418840   2.414   1.410   7.055 -0.3638 -0.2791 -0.6575
  167SOPE   H4X18841   2.412   1.302   7.080  0.5811  0.0459  0.8593
  167SOPE   H4Y18842   2.315   1.457   7.070 -0.3530 -1.1037  2.1535
  167SOPE   C3518843   2.525   1.491   7.135  0.3772 -0.4083 -0.2745
  167SOPE   H5X18844   2.522   1.597   7.101 -0.2942 -0.2243  0.3419
  167SOPE   H5Y18845   2.620   1.440   7.106  0.8593  0.5868 -0.4655
  167SOPE   C3618846   2.495   1.489   7.294  0.0005 -0.9727  0.8870
  167SOPE   H6X18847   2.592   1.509   7.342  0.7861 -0.9833 -0.6523
  167SOPE   H6Y18848   2.485   1.379   7.306  2.1808 -1.4724 -1.3077
  167SOPE   C3718849   2.369   1.566   7.343  0.0427 -0.6750 -0.4324
  167SOPE   H7X18850   2.305   1.572   7.253 -0.2239 -2.1618 -0.3527
  167SOPE   H7Y18851   2.414   1.664   7.371  1.2597 -1.1505 -0.6753
  167SOPE   C3818852   2.284   1.513   7.460  0.0489  0.2439  0.0480
  167SOPE   H8X18853   2.246   1.415   7.422  2.3503 -0.8786  0.4941
  167SOPE   H8Y18854   2.202   1.586   7.476  0.1292  0.2958  0.2248
  167SOPE   C3918855   2.353   1.496   7.594  1.0144  0.2888  0.6253
  167SOPE   H9X18856   2.390   1.596   7.624 -0.1973  1.4902 -1.7931
  167SOPE   H9Y18857   2.442   1.429   7.588  0.2427 -0.6154 -1.1192
  167SOPE  C31018858   2.269   1.447   7.711 -0.4764 -0.4611  0.2004
  167SOPE  H10X18859   2.193   1.521   7.744  1.3372  1.8122 -0.5555
  167SOPE  H10Y18860   2.338   1.434   7.797 -0.1346 -3.0386 -0.4406
  167SOPE  C31118861   2.200   1.308   7.703  0.1990  0.2579  0.0020
  167SOPE  H11X18862   2.277   1.228   7.707 -0.0554 -0.0537 -1.1988
  167SOPE  H11Y18863   2.148   1.299   7.605 -1.1968 -2.6308  0.9641
  167SOPE  C31218864   2.101   1.275   7.808 -0.4279 -0.1951 -0.1468
  167SOPE  H12X18865   2.066   1.175   7.773 -0.0698 -0.4661  0.2621
  167SOPE  H12Y18866   2.009   1.336   7.823  0.4712  1.3191 -0.7347
  167SOPE  C31318867   2.164   1.262   7.948 -0.1853  0.4258  0.0299
  167SOPE  H13X18868   2.148   1.358   8.001 -1.5192  0.2535 -0.0567
  167SOPE  H13Y18869   2.274   1.248   7.945 -0.4655 -2.3752  1.8332
  167SOPE  C31418870   2.098   1.150   8.028  0.6763 -0.2103  0.0461
  167SOPE  H14X18871   2.129   1.047   8.001  1.6545  0.2377 -0.5755
  167SOPE  H14Y18872   1.989   1.145   8.011  0.7540  0.7025 -0.7479
  167SOPE  C31518873   2.105   1.170   8.174 -0.1606 -0.2921 -0.2044
  167SOPE  H15X18874   2.055   1.080   8.216  1.4234  0.0024  2.4252
  167SOPE  H15Y18875   2.059   1.263   8.214 -2.8581 -0.5476 -2.5075
  167SOPE  C31618876   2.251   1.160   8.232 -0.8376 -0.0422 -0.0938
  167SOPE  H16X18877   2.311   1.229   8.169  0.7597 -0.1527  1.2491
  167SOPE  H16Y18878   2.286   1.058   8.207  2.0425  1.0468 -0.7504
  167SOPE  C31718879   2.252   1.197   8.376  0.7648  0.7308 -0.5880
  167SOPE  H17X18880   2.149   1.221   8.411 -0.1512 -2.0741 -1.2373
  167SOPE  H17Y18881   2.318   1.285   8.389  1.6841  0.3589 -2.5478
  167SOPE  C31818882   2.310   1.099   8.476 -0.4676  0.4679 -1.0049
  167SOPE  H18X18883   2.290   1.141   8.578  1.4452 -0.1718 -0.3444
  167SOPE  H18Y18884   2.420   1.085   8.470 -0.2397  2.0487 -0.8454
  167SOPE  H18Z18885   2.270   0.996   8.476  0.2874  0.1459  0.8987
  168SOPE     N18886   2.047   4.763   6.315  0.5047  0.1913 -0.2425
  168SOPE   HN118887   1.947   4.735   6.324  0.4358 -0.3252 -2.4761
  168SOPE   HN218888   2.059   4.836   6.242  1.8653 -1.1856 -1.4216
  168SOPE   HN318889   2.103   4.678   6.294  1.8463  0.0063  3.6677
  168SOPE   C1218890   2.086   4.839   6.437 -0.3114  1.1415  0.8321
  168SOPE  H12A18891   2.189   4.878   6.421  0.1345 -0.3266  0.0576
  168SOPE  H12B18892   2.073   4.771   6.523 -2.4953 -1.4631 -1.4528
  168SOPE   C1118893   1.989   4.950   6.451 -0.7476  0.1377  0.2558
  168SOPE  H11A18894   2.025   5.008   6.539 -0.6185 -0.2459  0.4565
  168SOPE  H11B18895   1.892   4.900   6.468  0.0039 -0.9742  1.3378
  168SOPE     P18896   1.933   5.177   6.360  0.5951 -0.3336  0.6039
  168SOPE   O1318897   1.822   5.178   6.459  1.1396 -0.2979  0.2543
  168SOPE   O1418898   1.903   5.237   6.231 -0.4046  0.3467  0.5924
  168SOPE   O1218899   1.994   5.039   6.337 -0.3201  0.2371  0.4061
  168SOPE   O1118900   2.058   5.246   6.421 -0.4024 -0.2615  0.1514
  168SOPE    C118901   2.087   5.381   6.413  0.4975  0.2531  0.0929
  168SOPE    HA18902   2.010   5.438   6.357 -0.5659 -1.2266  0.0119
  168SOPE    HB18903   2.190   5.391   6.374  1.3351  1.7910  2.6020
  168SOPE    C218904   2.102   5.432   6.559 -0.3319  0.2544 -0.2493
  168SOPE    HS18905   2.178   5.368   6.610 -0.4070  1.6684  1.7102
  168SOPE   O2118906   1.971   5.437   6.619 -0.3026 -0.3531 -0.9404
  168SOPE   C2118907   1.944   5.341   6.710 -0.5255  0.5477  0.3182
  168SOPE   O2218908   2.018   5.248   6.729 -0.4769 -0.3476  0.0441
  168SOPE   C2218909   1.806   5.368   6.761 -0.2367 -0.7001 -0.9754
  168SOPE   H2R18910   1.732   5.308   6.705 -0.6207 -1.1924  0.0349
  168SOPE   H2S18911   1.777   5.475   6.753  1.2134 -0.1859  0.3549
  168SOPE    C318912   2.155   5.574   6.564 -0.7783 -0.5573 -1.1228
  168SOPE    HX18913   2.097   5.647   6.504 -0.0392  0.6337 -0.4119
  168SOPE    HY18914   2.254   5.570   6.515  0.2209 -3.6742  0.9997
  168SOPE   O3118915   2.164   5.626   6.702 -0.4479  0.1733  0.1544
  168SOPE   C3118916   2.062   5.698   6.743 -0.5060  0.0388 -0.3635
  168SOPE   O3218917   1.969   5.742   6.676  0.8310 -0.1541  0.6594
  168SOPE   C3218918   2.075   5.703   6.896  0.2641 -0.0436  0.1519
  168SOPE   H2X18919   2.164   5.645   6.930 -0.1795 -1.1281 -0.5234
  168SOPE   H2Y18920   1.989   5.650   6.942  1.8327 -1.4467  1.5728
  168SOPE   C2318921   1.787   5.323   6.913  0.6047 -0.6178 -0.5298
  168SOPE   H3R18922   1.828   5.221   6.926  2.3432  0.2074  0.5949
  168SOPE   H3S18923   1.682   5.312   6.946  0.3123  1.5419 -0.6678
  168SOPE   C2418924   1.868   5.411   7.004 -0.0448 -0.3989  0.8219
  168SOPE   H4R18925   1.922   5.343   7.074 -2.1644 -1.3661  1.5631
  168SOPE   H4S18926   1.955   5.457   6.953  0.3264  0.2077  1.9601
  168SOPE   C2518927   1.787   5.512   7.090  0.3299  0.0265 -0.6709
  168SOPE   H5R18928   1.837   5.611   7.101  1.1470 -0.6784  2.6633
  168SOPE   H5S18929   1.687   5.529   7.044 -0.3188 -0.3932  0.5540
  168SOPE   C2618930   1.763   5.447   7.228 -0.3273 -0.2037 -0.3352
  168SOPE   H6R18931   1.666   5.493   7.258 -0.4849 -1.3532  1.0209
  168SOPE   H6S18932   1.730   5.341   7.220 -0.4440 -0.1142 -1.0236
  168SOPE   C2718933   1.881   5.465   7.320 -0.2665  1.1064 -0.4583
  168SOPE   H7R18934   1.965   5.409   7.274  0.8054  2.3065  0.0254
  168SOPE   H7S18935   1.887   5.575   7.320  0.1341  1.0923 -1.7620
  168SOPE   C2818936   1.853   5.416   7.461  0.0636  0.2314  0.0533
  168SOPE   H8R18937   1.926   5.468   7.526 -0.2416  0.8141 -0.0669
  168SOPE   H8S18938   1.761   5.456   7.509 -0.0196  1.0254 -0.7439
  168SOPE   C2918939   1.874   5.264   7.469 -0.1404  0.1914  0.6242
  168SOPE   H9118940   1.863   5.210   7.374 -0.1718 -2.3487  2.0381
  168SOPE  C21018941   1.906   5.191   7.575  0.4855 -0.2692  0.5206
  168SOPE  H10118942   1.929   5.085   7.559  0.8471  0.1249 -1.6883
  168SOPE  C21118943   1.928   5.251   7.711 -1.0613  0.6469 -1.2474
  168SOPE  H11R18944   1.831   5.296   7.744 -0.6526  1.2609 -0.8837
  168SOPE  H11S18945   2.009   5.326   7.705  0.0069 -0.2396  1.5424
  168SOPE  C21218946   1.963   5.133   7.818 -0.7281 -0.0310  0.0614
  168SOPE  H12R18947   2.040   5.068   7.771 -1.8872 -0.5283 -1.2071
  168SOPE  H12S18948   1.880   5.063   7.844  0.3627 -0.8806  1.3562
  168SOPE  C21318949   2.014   5.194   7.941 -0.3359 -0.0369  0.5357
  168SOPE  H13R18950   1.941   5.268   7.978 -1.2240 -0.6912  0.1248
  168SOPE  H13S18951   2.110   5.243   7.918 -0.8001  1.2564  1.3221
  168SOPE  C21418952   2.050   5.092   8.053  0.2472  0.6670  0.8674
  168SOPE  H14R18953   2.133   5.034   8.008  0.7741  1.1755  1.1818
  168SOPE  H14S18954   1.953   5.042   8.072  0.1360  0.8812  0.8614
  168SOPE  C21518955   2.108   5.158   8.183  0.0941 -0.5936 -0.1341
  168SOPE  H15R18956   2.026   5.206   8.239  1.2534 -0.1562  1.2286
  168SOPE  H15S18957   2.179   5.241   8.162 -1.4696  1.3209  1.8802
  168SOPE  C21618958   2.155   5.055   8.295  0.2945 -0.2207  0.3409
  168SOPE  H16R18959   2.224   4.990   8.238  0.4513  0.4160 -0.2040
  168SOPE  H16S18960   2.070   4.993   8.331  0.8897 -0.5687  1.1551
  168SOPE  C21718961   2.235   5.119   8.406  0.2479  0.4423  0.3515
  168SOPE  H17R18962   2.322   5.177   8.369  0.2252  1.8400  2.4104
  168SOPE  H17S18963   2.275   5.044   8.477  0.4720  0.0175 -0.2188
  168SOPE  C21818964   2.152   5.219   8.486  0.9763  0.2386  0.1649
  168SOPE  H18R18965   2.058   5.169   8.516 -0.6638  2.8272 -0.4875
  168SOPE  H18S18966   2.130   5.308   8.423 -3.2350 -2.5271 -2.5144
  168SOPE  H18T18967   2.197   5.241   8.586 -0.3862 -1.1385  1.1070
  168SOPE   C3318968   2.090   5.843   6.947  0.3732 -0.3202 -0.0434
  168SOPE   H3X18969   1.995   5.895   6.924  0.2271  0.4064  2.1199
  168SOPE   H3Y18970   2.174   5.906   6.908  0.2016  0.0689  0.2082
  168SOPE   C3418971   2.099   5.853   7.098 -0.1325  0.3936 -0.2791
  168SOPE   H4X18972   2.020   5.790   7.144 -0.6658  2.0322  1.1164
  168SOPE   H4Y18973   2.074   5.958   7.125 -1.0588  0.3008 -0.7742
  168SOPE   C3518974   2.235   5.817   7.147 -0.5036  0.2949 -1.1497
  168SOPE   H5X18975   2.314   5.843   7.073 -0.2533 -1.9718 -1.7289
  168SOPE   H5Y18976   2.247   5.707   7.161  1.0984  0.4860 -0.9102
  168SOPE   C3618977   2.261   5.881   7.289 -0.1013  0.2463  0.3307
  168SOPE   H6X18978   2.242   5.990   7.284 -3.6023 -0.2327  1.5069
  168SOPE   H6Y18979   2.371   5.873   7.303  0.1169 -0.9071 -1.7515
  168SOPE   C3718980   2.193   5.824   7.412 -0.1366  0.2338 -0.8266
  168SOPE   H7X18981   2.209   5.714   7.412 -2.2022 -0.1175  0.9244
  168SOPE   H7Y18982   2.082   5.824   7.400 -0.1544 -2.1224 -1.0134
  168SOPE   C3818983   2.231   5.890   7.552  0.1762 -0.5120 -0.1579
  168SOPE   H8X18984   2.341   5.893   7.558  0.4275 -4.9430 -0.6641
  168SOPE   H8Y18985   2.191   5.824   7.632  0.7482  0.5869  1.0398
  168SOPE   C3918986   2.186   6.033   7.554  0.5366 -0.6416 -0.0543
  168SOPE   H9X18987   2.079   6.037   7.524  0.7962  3.6394 -0.6355
  168SOPE   H9Y18988   2.241   6.089   7.476 -0.3119 -0.9092 -0.8520
  168SOPE  C31018989   2.205   6.103   7.684  0.2109  0.3257 -0.4005
  168SOPE  H10X18990   2.145   6.037   7.750  2.4209 -0.4497  0.8959
  168SOPE  H10Y18991   2.151   6.198   7.667  0.5071  0.3507 -1.1991
  168SOPE  C31118992   2.349   6.110   7.738  1.1071 -0.4189 -0.4324
  168SOPE  H11X18993   2.431   6.157   7.679  3.0813  0.2556  2.7235
  168SOPE  H11Y18994   2.393   6.010   7.758  2.7137  0.3740  0.0895
  168SOPE  C31218995   2.353   6.176   7.871  0.5725  0.3634 -1.0817
  168SOPE  H12X18996   2.276   6.135   7.940  1.6000 -0.2836 -0.3034
  168SOPE  H12Y18997   2.335   6.284   7.852  2.7592  0.4567 -2.7426
  168SOPE  C31318998   2.483   6.171   7.952 -0.7821 -0.1355 -0.1462
  168SOPE  H13X18999   2.552   6.232   7.889 -0.0854 -0.4321  0.3258
  168SOPE  H13Y19000   2.506   6.063   7.953  0.8202  0.1363 -2.7021
  168SOPE  C31419001   2.457   6.218   8.095  1.2271 -0.0086 -0.0177
  168SOPE  H14X19002   2.373   6.161   8.140  0.9705  0.6333  0.3309
  168SOPE  H14Y19003   2.421   6.324   8.098 -0.6878 -0.6049 -1.1724
  168SOPE  C31519004   2.577   6.202   8.182  0.5916  0.1686 -0.0444
  168SOPE  H15X19005   2.627   6.103   8.179  1.5831  0.6510  0.5510
  168SOPE  H15Y19006   2.559   6.228   8.288 -0.7854  0.1001 -0.2538
  168SOPE  C31619007   2.694   6.289   8.124  0.9124  0.0132  0.1226
  168SOPE  H16X19008   2.658   6.393   8.105 -1.7404 -1.2157 -2.0050
  168SOPE  H16Y19009   2.721   6.244   8.026  0.1298  2.7811 -1.4082
  168SOPE  C31719010   2.818   6.305   8.220 -0.3991 -0.0160 -0.4308
  168SOPE  H17X19011   2.876   6.393   8.184 -4.0241  2.6208 -0.0379
  168SOPE  H17Y19012   2.883   6.216   8.205 -0.2731 -0.0224  0.1381
  168SOPE  C31819013   2.789   6.336   8.369 -0.3017 -0.2310 -0.1157
  168SOPE  H18X19014   2.747   6.243   8.412 -1.1103  0.1227 -0.1385
  168SOPE  H18Y19015   2.717   6.420   8.371  0.7060  0.6410 -0.1736
  168SOPE  H18Z19016   2.884   6.372   8.415  0.3834  1.0191 -2.4291
  169SOPE     N19017   4.510   0.554   6.627 -0.4281  0.0988 -0.0468
  169SOPE   HN119018   4.484   0.454   6.640  0.9999 -0.4296 -1.2627
  169SOPE   HN219019   4.570   0.553   6.543  0.4730 -0.6974  0.5969
  169SOPE   HN319020   4.577   0.579   6.702 -0.8171  0.4148  0.2014
  169SOPE   C1219021   4.401   0.650   6.586  0.4911 -0.3268  0.1980
  169SOPE  H12A19022   4.445   0.752   6.572 -0.4875  0.1716  0.7244
  169SOPE  H12B19023   4.343   0.662   6.679  2.3938 -0.6542  1.4561
  169SOPE   C1119024   4.302   0.602   6.485  0.6184 -0.2309 -0.1359
  169SOPE  H11A19025   4.357   0.580   6.391  2.0200 -0.1870  0.6573
  169SOPE  H11B19026   4.238   0.692   6.476  1.4527  0.2971 -0.9243
  169SOPE     P19027   4.114   0.423   6.448 -0.3814 -0.1761  0.3695
  169SOPE   O1319028   4.165   0.304   6.374 -0.3863 -0.3476  0.0164
  169SOPE   O1419029   4.052   0.529   6.365 -0.2300 -0.3457 -0.0581
  169SOPE   O1219030   4.228   0.487   6.531  0.1968 -0.2205 -0.6016
  169SOPE   O1119031   4.025   0.369   6.567 -0.1072  0.4160  1.3346
  169SOPE    C119032   3.977   0.459   6.662  0.1712 -0.3575 -0.4564
  169SOPE    HA19033   3.866   0.452   6.664  0.0694 -0.0210 -3.1088
  169SOPE    HB19034   3.997   0.566   6.642 -1.6933  0.4910  1.9359
  169SOPE    C219035   4.041   0.434   6.797 -0.6140 -0.6925 -0.4600
  169SOPE    HS19036   4.149   0.411   6.788 -0.3922 -0.7389  2.1175
  169SOPE   O2119037   3.960   0.323   6.843  0.3722 -0.3496 -0.2406
  169SOPE   C2119038   4.032   0.234   6.917 -0.0259  0.0075  0.0609
  169SOPE   O2219039   4.144   0.257   6.953 -0.0984 -0.2251 -0.3214
  169SOPE   C2219040   3.936   0.115   6.944  0.0142  0.7391  0.0814
  169SOPE   H2R19041   3.913   0.090   6.838  1.5468  0.4623 -0.2013
  169SOPE   H2S19042   3.847   0.162   6.990  0.5719  0.0685  1.8683
  169SOPE    C319043   4.029   0.568   6.878  0.2216  0.1325  0.2652
  169SOPE    HX19044   3.920   0.583   6.871  0.3502  0.6320 -0.7859
  169SOPE    HY19045   4.072   0.659   6.830  0.7125  0.5751  1.5323
  169SOPE   O3119046   4.073   0.565   7.015 -1.0788  0.2020 -0.0374
  169SOPE   C3119047   4.205   0.585   7.025 -0.3428 -0.3360  0.4685
  169SOPE   O3219048   4.280   0.604   6.928 -0.2081  0.1245  0.2872
  169SOPE   C3219049   4.262   0.592   7.168 -0.7650 -1.0824  0.7152
  169SOPE   H2X19050   4.264   0.702   7.184  0.7976 -0.9940  0.0308
  169SOPE   H2Y19051   4.366   0.554   7.166 -0.4301 -0.1318 -1.0292
  169SOPE   C2319052   3.998  -0.002   7.023  0.2001  0.2173  0.2611
  169SOPE   H3R19053   4.109   0.003   7.021  0.1474  1.8213  0.4743
  169SOPE   H3S19054   3.976  -0.103   6.983 -1.1437 -0.5317  2.8006
  169SOPE   C2419055   3.948  -0.003   7.172  0.3242 -0.6543  0.0906
  169SOPE   H4R19056   3.984   0.089   7.221 -2.0127  0.5136 -0.3078
  169SOPE   H4S19057   3.837   0.003   7.175  0.4114  1.1713 -0.0032
  169SOPE   C2519058   3.994  -0.131   7.239  0.1061  0.1724 -0.3507
  169SOPE   H5R19059   3.979  -0.221   7.175  1.0313 -0.3669  0.1664
  169SOPE   H5S19060   4.105  -0.124   7.236  0.3917 -2.5592  1.6286
  169SOPE   C2619061   3.943  -0.151   7.383 -0.1240 -0.0257  0.3385
  169SOPE   H6R19062   3.833  -0.159   7.389 -0.2556  1.3738 -0.1289
  169SOPE   H6S19063   3.977  -0.253   7.411  1.6245 -0.2859 -2.5556
  169SOPE   C2719064   4.005  -0.066   7.487  0.3476 -0.1737 -0.1658
  169SOPE   H7R19065   4.112  -0.091   7.506  1.0910  2.6004 -0.4212
  169SOPE   H7S19066   4.001   0.036   7.444  0.5521  0.3711  1.0563
  169SOPE   C2819067   3.939  -0.064   7.623  0.8198 -0.1004  0.4272
  169SOPE   H8R19068   3.988   0.021   7.676  3.0106 -0.1728 -1.4473
  169SOPE   H8S19069   3.833  -0.034   7.606  1.0639  0.0406 -0.8974
  169SOPE   C2919070   3.945  -0.201   7.688  0.2823  0.3457 -0.1560
  169SOPE   H9119071   3.909  -0.285   7.627  2.4839 -0.8910  0.1907
  169SOPE  C21019072   4.001  -0.251   7.798 -0.5061 -0.3633 -0.1635
  169SOPE  H10119073   3.997  -0.360   7.810 -3.3559 -0.1506  1.1250
  169SOPE  C21119074   4.082  -0.167   7.890  0.1915 -0.3904  0.2703
  169SOPE  H11R19075   4.031  -0.071   7.911 -0.5390 -0.5021 -0.9312
  169SOPE  H11S19076   4.181  -0.153   7.841 -0.0356  1.6994  0.3556
  169SOPE  C21219077   4.113  -0.233   8.023  0.3499  0.0890  0.1056
  169SOPE  H12R19078   4.132  -0.340   8.000 -0.4628 -0.1415  0.5134
  169SOPE  H12S19079   4.020  -0.229   8.082  1.0751 -3.9223  1.6266
  169SOPE  C21319080   4.229  -0.173   8.108 -0.2400 -0.3058 -0.3602
  169SOPE  H13R19081   4.226  -0.062   8.111  1.3736 -0.2134 -1.3604
  169SOPE  H13S19082   4.326  -0.187   8.056 -1.1613 -0.1038 -2.2160
  169SOPE  C21419083   4.228  -0.224   8.252  1.1915 -0.8182 -0.9411
  169SOPE  H14R19084   4.229  -0.334   8.242 -3.2716 -0.7567 -3.8994
  169SOPE  H14S19085   4.131  -0.205   8.303  2.6308 -2.7997  2.6740
  169SOPE  C21519086   4.355  -0.178   8.324 -0.0816  1.2530  0.0596
  169SOPE  H15R19087   4.365  -0.068   8.318 -0.7220  1.3594  0.9682
  169SOPE  H15S19088   4.449  -0.210   8.273 -0.2126  1.2219 -0.1651
  169SOPE  C21619089   4.360  -0.213   8.478  0.0195 -0.5095  0.0779
  169SOPE  H16R19090   4.361  -0.322   8.496  2.4307 -0.4245  0.6893
  169SOPE  H16S19091   4.265  -0.177   8.523  0.2202 -1.3958  1.2411
  169SOPE  C21719092   4.483  -0.154   8.545  0.5194 -0.5268  0.8004
  169SOPE  H17R19093   4.487  -0.045   8.524 -0.1993 -0.2524  2.0420
  169SOPE  H17S19094   4.572  -0.202   8.500  1.1642 -0.7674  2.2999
  169SOPE  C21819095   4.481  -0.179   8.700 -0.5520 -0.3495  0.6151
  169SOPE  H18R19096   4.388  -0.140   8.746  0.6916  2.3071  0.9457
  169SOPE  H18S19097   4.563  -0.132   8.758 -1.0402  0.6408  0.5160
  169SOPE  H18T19098   4.477  -0.288   8.724  0.9387 -0.6245 -0.3032
  169SOPE   C3319099   4.166   0.528   7.262 -0.2926 -0.3416 -0.5634
  169SOPE   H3X19100   4.161   0.422   7.228  0.0948 -0.5824  0.1299
  169SOPE   H3Y19101   4.062   0.566   7.256 -0.1499  0.6179  2.5879
  169SOPE   C3419102   4.223   0.528   7.401 -0.8988 -0.0246  0.2200
  169SOPE   H4X19103   4.286   0.617   7.418 -1.8279  1.2889 -2.9134
  169SOPE   H4Y19104   4.289   0.440   7.418 -1.3438 -0.2125  1.0168
  169SOPE   C3519105   4.114   0.519   7.502 -0.0518 -0.1213 -0.9949
  169SOPE   H5X19106   4.039   0.448   7.460  0.0808  0.3723 -2.0842
  169SOPE   H5Y19107   4.059   0.615   7.500  0.4311  0.2064  0.6767
  169SOPE   C3619108   4.162   0.491   7.650 -0.3217 -0.0068 -0.0827
  169SOPE   H6X19109   4.070   0.500   7.712  1.0994 -3.1573  2.6860
  169SOPE   H6Y19110   4.227   0.577   7.676 -0.5510  0.4014 -0.8510
  169SOPE   C3719111   4.240   0.359   7.680 -0.0051  0.0006  0.3858
  169SOPE   H7X19112   4.337   0.369   7.627 -0.7078 -0.8128 -1.0964
  169SOPE   H7Y19113   4.194   0.264   7.646  1.6735 -1.9088  3.3103
  169SOPE   C3819114   4.275   0.344   7.828 -0.5524  0.4761 -0.4670
  169SOPE   H8X19115   4.353   0.265   7.837  0.2704  1.3369 -0.0400
  169SOPE   H8Y19116   4.306   0.444   7.866 -1.3531  1.4705 -2.3582
  169SOPE   C3919117   4.154   0.288   7.907  0.8629 -0.1940 -0.3498
  169SOPE   H9X19118   4.119   0.195   7.857  0.1254 -1.8951  3.1545
  169SOPE   H9Y19119   4.072   0.362   7.919 -0.4303 -1.3612 -1.7237
  169SOPE  C31019120   4.184   0.257   8.053 -0.6902 -0.4345  0.5880
  169SOPE  H10X19121   4.214   0.348   8.110 -0.3993  0.9995 -1.8051
  169SOPE  H10Y19122   4.269   0.186   8.060  2.0381  2.5000 -1.2884
  169SOPE  C31119123   4.063   0.184   8.116 -0.0085  0.1038  0.7401
  169SOPE  H11X19124   4.039   0.100   8.047  5.0842 -1.0811  0.1908
  169SOPE  H11Y19125   3.977   0.254   8.125 -0.0457  0.1981 -0.2635
  169SOPE  C31219126   4.086   0.130   8.257  0.2692 -0.2392 -0.7375
  169SOPE  H12X19127   4.162   0.049   8.260 -0.1665 -0.6490 -0.6717
  169SOPE  H12Y19128   3.988   0.085   8.283  0.5010 -0.7001 -0.6522
  169SOPE  C31319129   4.123   0.240   8.359 -0.0898  0.6605 -0.1143
  169SOPE  H13X19130   4.036   0.258   8.425  0.3463 -0.1019  0.6858
  169SOPE  H13Y19131   4.160   0.336   8.317 -0.4184  1.2213  0.8660
  169SOPE  C31419132   4.238   0.190   8.442 -0.1465 -0.5965 -0.1775
  169SOPE  H14X19133   4.320   0.169   8.370 -1.4277 -1.2319 -1.4834
  169SOPE  H14Y19134   4.209   0.091   8.483 -2.0730 -0.1098 -0.2809
  169SOPE  C31519135   4.276   0.261   8.575 -0.2995 -0.0053  0.1119
  169SOPE  H15X19136   4.183   0.263   8.637 -0.0591  2.5459  0.4615
  169SOPE  H15Y19137   4.305   0.366   8.555 -0.1976 -0.1515 -0.5138
  169SOPE  C31619138   4.385   0.181   8.646 -1.2695 -0.6244  0.6552
  169SOPE  H16X19139   4.467   0.152   8.578 -0.9369 -2.3512  1.7726
  169SOPE  H16Y19140   4.348   0.086   8.690 -0.6033  0.1105  2.8275
  169SOPE  C31719141   4.447   0.261   8.761 -0.2375 -1.0154  0.0600
  169SOPE  H17X19142   4.367   0.289   8.833 -2.1961 -0.0672 -2.4113
  169SOPE  H17Y19143   4.479   0.360   8.723  0.4867 -0.6002  1.7197
  169SOPE  C31819144   4.560   0.203   8.846  0.2006  0.8524  0.0285
  169SOPE  H18X19145   4.565   0.259   8.942 -1.3614  1.1693 -0.0602
  169SOPE  H18Y19146   4.657   0.199   8.792  0.9372 -1.0023  1.4159
  169SOPE  H18Z19147   4.537   0.096   8.869 -0.9271  1.0791  0.0017
  170SOPE     N19148   5.697   5.637   6.384 -0.1838  0.2243 -0.0803
  170SOPE   HN119149   5.715   5.575   6.302 -2.1588 -0.6101  0.0850
  170SOPE   HN219150   5.775   5.619   6.450  0.4156 -1.5940 -1.2338
  170SOPE   HN319151   5.605   5.603   6.420  0.2818 -1.2835 -0.2770
  170SOPE   C1219152   5.698   5.785   6.354 -0.0326  0.3669 -0.0339
  170SOPE  H12A19153   5.693   5.785   6.243  1.4979 -1.5808 -0.1376
  170SOPE  H12B19154   5.789   5.834   6.394  1.5229 -0.7141 -2.1235
  170SOPE   C1119155   5.577   5.863   6.413  1.0374  0.3393  0.4734
  170SOPE  H11A19156   5.594   5.965   6.373 -3.4565  1.9615  2.3527
  170SOPE  H11B19157   5.588   5.852   6.523  1.8162 -1.3252  0.2543
  170SOPE     P19158   5.346   5.729   6.402  0.2228 -0.3914 -0.1997
  170SOPE   O1319159   5.416   5.598   6.410 -0.7361 -0.3183 -0.4127
  170SOPE   O1419160   5.224   5.731   6.316  0.3444  0.2138  0.0054
  170SOPE   O1219161   5.447   5.837   6.349  0.0501 -0.3561 -0.2147
  170SOPE   O1119162   5.315   5.768   6.549  0.7829  0.0814  0.0818
  170SOPE    C119163   5.276   5.903   6.582  0.1221 -0.1023 -0.1602
  170SOPE    HA19164   5.209   5.948   6.506  2.3108  3.8937  0.1382
  170SOPE    HB19165   5.368   5.966   6.582  1.2592 -1.7123  1.6976
  170SOPE    C219166   5.203   5.910   6.719  0.5636  0.4906  0.5854
  170SOPE    HS19167   5.210   6.012   6.763 -0.0798 -0.3761  2.7876
  170SOPE   O2119168   5.268   5.817   6.806  0.4569  0.5318  0.6544
  170SOPE   C2119169   5.388   5.861   6.853 -0.1618 -0.0430  1.3263
  170SOPE   O2219170   5.438   5.965   6.822  0.5922 -0.4142 -0.1922
  170SOPE   C2219171   5.439   5.753   6.955 -0.2150  0.1440  0.1333
  170SOPE   H2R19172   5.548   5.777   6.953  0.1127 -1.3491 -0.2643
  170SOPE   H2S19173   5.417   5.647   6.934 -1.5088 -0.2984  3.4683
  170SOPE    C319174   5.050   5.866   6.711 -0.7421 -0.0735  0.2422
  170SOPE    HX19175   5.047   5.767   6.661 -0.3952  0.1914 -0.3077
  170SOPE    HY19176   5.002   5.939   6.642 -0.5593  1.0689  1.3068
  170SOPE   O3119177   4.991   5.844   6.844  0.2767  0.2679  0.1538
  170SOPE   C3119178   4.878   5.911   6.864 -0.4648 -0.3899  0.2067
  170SOPE   O3219179   4.846   6.006   6.801  0.5342  0.3517  0.3604
  170SOPE   C3219180   4.808   5.880   6.993  0.2237  0.8335  0.1265
  170SOPE   H2X19181   4.853   5.791   7.042 -0.7671 -0.8642 -1.9720
  170SOPE   H2Y19182   4.704   5.840   6.982  0.6339 -0.2207  0.0273
  170SOPE   C2319183   5.375   5.770   7.098 -0.3579 -0.6232 -0.2978
  170SOPE   H3R19184   5.385   5.876   7.129  0.0422 -0.4337 -1.0434
  170SOPE   H3S19185   5.431   5.713   7.175  0.4546 -0.6631 -0.9136
  170SOPE   C2419186   5.227   5.729   7.103 -0.1772  0.0564 -1.1240
  170SOPE   H4R19187   5.160   5.803   7.052 -0.8496 -0.1714 -0.5821
  170SOPE   H4S19188   5.213   5.637   7.043 -0.1284 -0.3226 -0.5614
  170SOPE   C2519189   5.180   5.706   7.249  0.1150  0.5894  0.3385
  170SOPE   H5R19190   5.069   5.701   7.239  0.2996 -0.5330 -1.4253
  170SOPE   H5S19191   5.215   5.610   7.294 -0.7377 -0.0304 -0.2950
  170SOPE   C2619192   5.209   5.817   7.353 -0.7815 -0.5573 -0.2603
  170SOPE   H6R19193   5.313   5.800   7.388 -0.2521  1.0764 -1.0451
  170SOPE   H6S19194   5.208   5.919   7.310  0.8227 -1.2676 -2.0899
  170SOPE   C2719195   5.113   5.827   7.470 -0.0718 -0.0634 -0.1257
  170SOPE   H7R19196   5.097   5.931   7.504 -2.5877 -0.6615  0.5953
  170SOPE   H7S19197   5.014   5.784   7.444  0.0148  0.3782 -1.2219
  170SOPE   C2819198   5.154   5.745   7.594  0.3077  0.1524  0.1218
  170SOPE   H8R19199   5.064   5.757   7.657  1.1530  1.7718  1.0872
  170SOPE   H8S19200   5.159   5.636   7.578  0.0245  0.5226 -2.7896
  170SOPE   C2919201   5.282   5.787   7.655 -0.7644 -0.8376 -0.2621
  170SOPE   H9119202   5.367   5.766   7.588 -1.1855  1.0347 -1.4045
  170SOPE  C21019203   5.311   5.840   7.775 -0.6210 -0.2331  0.1186
  170SOPE  H10119204   5.415   5.871   7.788  0.0276 -0.4768 -3.7840
  170SOPE  C21119205   5.209   5.856   7.881 -0.4283  0.0967  0.4903
  170SOPE  H11R19206   5.124   5.792   7.847  0.2632 -0.0233 -1.0606
  170SOPE  H11S19207   5.180   5.964   7.885 -0.4455  0.0869  0.6308
  170SOPE  C21219208   5.238   5.804   8.027  0.6934  0.0294 -0.6535
  170SOPE  H12R19209   5.280   5.707   8.063 -1.1834  0.0452  1.6982
  170SOPE  H12S19210   5.142   5.812   8.080  1.4293  1.1252  0.5304
  170SOPE  C21319211   5.341   5.897   8.103 -0.0479  0.1690  1.1176
  170SOPE  H13R19212   5.303   6.000   8.088 -0.6106  0.1597  2.4064
  170SOPE  H13S19213   5.437   5.894   8.048  0.0429  0.4252  1.2596
  170SOPE  C21419214   5.359   5.864   8.254 -0.0995 -0.4318 -0.1481
  170SOPE  H14R19215   5.394   5.760   8.271 -2.9810 -1.5047 -0.4902
  170SOPE  H14S19216   5.257   5.863   8.298 -0.1404  1.5033 -0.1663
  170SOPE  C21519217   5.443   5.954   8.342  0.2529  0.2182 -0.4551
  170SOPE  H15R19218   5.456   5.916   8.446 -1.0966 -2.1580 -1.1198
  170SOPE  H15S19219   5.392   6.052   8.353 -0.4987 -0.4723  3.0729
  170SOPE  C21619220   5.583   5.971   8.286 -0.9868 -0.6440  0.2516
  170SOPE  H16R19221   5.566   6.018   8.186 -1.6834 -2.1155 -0.3357
  170SOPE  H16S19222   5.633   5.872   8.277  0.5564  0.0902  0.5966
  170SOPE  C21719223   5.675   6.060   8.374  0.1885 -0.4890 -0.4324
  170SOPE  H17R19224   5.673   6.013   8.475 -0.0542 -0.5402 -0.4624
  170SOPE  H17S19225   5.631   6.161   8.379 -0.5205 -0.8064 -0.2741
  170SOPE  C21819226   5.816   6.079   8.328 -0.7328  0.8936  0.2032
  170SOPE  H18R19227   5.879   6.107   8.415 -1.7887  0.5327  1.0979
  170SOPE  H18S19228   5.840   6.157   8.252  0.5701 -1.7235 -2.1495
  170SOPE  H18T19229   5.851   5.981   8.288  2.1407  1.8828  0.1556
  170SOPE   C3319230   4.825   5.997   7.094  0.2201  0.6309 -0.2025
  170SOPE   H3X19231   4.784   6.096   7.066 -0.4775  0.5883  0.6639
  170SOPE   H3Y19232   4.934   6.019   7.097  0.4734 -0.3707 -1.4661
  170SOPE   C3419233   4.766   5.958   7.229 -0.4583 -0.4777 -0.0567
  170SOPE   H4X19234   4.820   5.871   7.271 -0.6964  0.0108  1.2892
  170SOPE   H4Y19235   4.659   5.929   7.228  0.1091 -2.6619 -0.1353
  170SOPE   C3519236   4.782   6.080   7.318  0.1473 -0.9364  0.2144
  170SOPE   H5X19237   4.743   6.178   7.282  2.2975  0.1765  0.8022
  170SOPE   H5Y19238   4.889   6.097   7.344  0.5153 -0.0046 -1.8025
  170SOPE   C3619239   4.711   6.066   7.456 -0.7166  0.4062 -0.2211
  170SOPE   H6X19240   4.602   6.060   7.440 -0.4404 -1.3351 -1.6888
  170SOPE   H6Y19241   4.737   6.159   7.511  1.8578  1.6207 -3.3064
  170SOPE   C3719242   4.776   5.951   7.526 -0.9476  0.0785 -0.0014
  170SOPE   H7X19243   4.886   5.966   7.527 -1.2701  2.7577 -0.3079
  170SOPE   H7Y19244   4.750   5.862   7.464 -0.6646  2.0691 -3.1322
  170SOPE   C3819245   4.731   5.946   7.670 -0.4225 -0.2795 -0.1759
  170SOPE   H8X19246   4.633   5.894   7.669  0.4778 -2.0357  0.6214
  170SOPE   H8Y19247   4.721   6.053   7.699 -1.6012 -0.1298 -1.0802
  170SOPE   C3919248   4.825   5.890   7.773  0.0158  0.3181  0.7422
  170SOPE   H9X19249   4.912   5.959   7.770 -0.0040  0.3143 -0.2626
  170SOPE   H9Y19250   4.862   5.786   7.761  2.5689  1.4570 -2.0789
  170SOPE  C31019251   4.769   5.887   7.920  0.9325  0.2508  0.7194
  170SOPE  H10X19252   4.738   5.992   7.942  0.9077  0.2807  0.5373
  170SOPE  H10Y19253   4.846   5.847   7.989 -0.4498 -0.9917  1.5859
  170SOPE  C31119254   4.651   5.792   7.945  0.4175 -0.1510  0.1646
  170SOPE  H11X19255   4.677   5.690   7.911  1.0953 -0.1849  0.8047
  170SOPE  H11Y19256   4.564   5.833   7.889  0.7695  1.0890  0.5169
  170SOPE  C31219257   4.612   5.798   8.090  0.1461 -0.2844  0.3095
  170SOPE  H12X19258   4.585   5.904   8.108  0.0993 -0.4904  1.5083
  170SOPE  H12Y19259   4.701   5.773   8.152  0.7900 -1.6513 -1.1442
  170SOPE  C31319260   4.488   5.722   8.118  0.0523 -0.5602 -0.7047
  170SOPE  H13X19261   4.498   5.615   8.092 -1.7441 -0.5421 -1.5334
  170SOPE  H13Y19262   4.405   5.761   8.054 -1.3184 -1.7784  0.3028
  170SOPE  C31419263   4.448   5.733   8.261  0.3149  0.1743 -0.7340
  170SOPE  H14X19264   4.439   5.837   8.297  1.0600 -0.2216  0.6486
  170SOPE  H14Y19265   4.522   5.685   8.329  0.3025  1.7202  0.3862
  170SOPE  C31519266   4.322   5.646   8.281 -0.6440  0.1291  0.5306
  170SOPE  H15X19267   4.357   5.546   8.249  1.5094  0.8955  0.3893
  170SOPE  H15Y19268   4.246   5.673   8.204 -0.8787 -1.6554  0.1178
  170SOPE  C31619269   4.261   5.638   8.424  0.1648 -0.5717  0.5518
  170SOPE  H16X19270   4.232   5.743   8.444 -0.5572 -0.4275 -1.0998
  170SOPE  H16Y19271   4.341   5.625   8.499  1.2037 -1.0370 -0.6172
  170SOPE  C31719272   4.141   5.550   8.439  0.3878 -0.8561  0.2161
  170SOPE  H17X19273   4.063   5.570   8.363  0.5397  1.7082  0.7105
  170SOPE  H17Y19274   4.086   5.560   8.536  0.8443 -2.0492  0.6138
  170SOPE  C31819275   4.189   5.403   8.422  0.2544 -0.0752 -0.1264
  170SOPE  H18X19276   4.230   5.369   8.325  0.6927  1.0115 -0.3313
  170SOPE  H18Y19277   4.098   5.345   8.448 -0.4911  0.8640 -0.6281
  170SOPE  H18Z19278   4.266   5.384   8.500  1.8959  2.4663 -1.0482
  171SOPE     N19279   4.572   2.632   6.045 -0.1284  0.0767  0.0399
  171SOPE   HN119280   4.606   2.622   5.947 -0.9764 -0.5811 -0.1955
  171SOPE   HN219281   4.512   2.548   6.054 -2.3611  1.5955 -0.3903
  171SOPE   HN319282   4.510   2.715   6.051  1.1754  1.0312  0.4993
  171SOPE   C1219283   4.669   2.632   6.161 -0.7231  0.0987  0.2632
  171SOPE  H12A19284   4.726   2.726   6.174 -0.9123  0.2590 -0.0671
  171SOPE  H12B19285   4.747   2.556   6.141 -0.8886 -0.1640  0.6066
  171SOPE   C1119286   4.605   2.581   6.292  0.2865 -0.1162  0.2018
  171SOPE  H11A19287   4.510   2.631   6.316  0.1741 -0.4520  0.4646
  171SOPE  H11B19288   4.666   2.603   6.382 -0.0315 -1.7649  0.8438
  171SOPE     P19289   4.650   2.321   6.345 -0.3165 -0.2003 -0.2833
  171SOPE   O1319290   4.791   2.325   6.305  0.1787  0.0546 -0.2757
  171SOPE   O1419291   4.577   2.203   6.299  0.1450  0.1885 -0.8350
  171SOPE   O1219292   4.570   2.445   6.276  0.4479  0.1768 -0.0225
  171SOPE   O1119293   4.632   2.316   6.501  0.2595 -0.6914 -0.2848
  171SOPE    C119294   4.541   2.410   6.570 -0.0920 -1.0013 -0.8555
  171SOPE    HA19295   4.435   2.405   6.536 -0.3025  2.0548 -0.7577
  171SOPE    HB19296   4.576   2.515   6.563 -1.5766 -0.2955  1.6099
  171SOPE    C219297   4.539   2.366   6.720 -0.8636 -0.1028 -0.4673
  171SOPE    HS19298   4.490   2.266   6.719 -0.7149 -0.1756 -0.5884
  171SOPE   O2119299   4.467   2.465   6.798 -0.1249 -0.3092  0.2943
  171SOPE   C2119300   4.333   2.455   6.775 -0.5633  0.5144  0.3243
  171SOPE   O2219301   4.283   2.369   6.704 -0.4128  0.0440  0.2068
  171SOPE   C2219302   4.263   2.560   6.853  0.5786  0.1563  0.0861
  171SOPE   H2R19303   4.165   2.576   6.804  1.1338 -0.6752 -1.3461
  171SOPE   H2S19304   4.318   2.656   6.851  2.2011 -0.7026  1.8932
  171SOPE    C319305   4.671   2.354   6.786  0.1051  0.5115 -0.5518
  171SOPE    HX19306   4.718   2.453   6.803  1.9005 -0.5669  0.9341
  171SOPE    HY19307   4.738   2.296   6.720 -2.0976  0.1901 -2.5985
  171SOPE   O3119308   4.657   2.289   6.912  0.5739  0.4239 -0.7208
  171SOPE   C3119309   4.737   2.184   6.943  0.1545  0.7904  0.4043
  171SOPE   O3219310   4.807   2.121   6.863  0.4717  0.6356 -0.0164
  171SOPE   C3219311   4.742   2.148   7.089 -0.1413 -0.3114 -0.0788
  171SOPE   H2X19312   4.641   2.109   7.110 -1.2012  1.6401 -1.3588
  171SOPE   H2Y19313   4.755   2.234   7.158  0.4740 -0.7738  0.3885
  171SOPE   C2319314   4.234   2.509   6.996 -0.1966 -0.5837  0.3612
  171SOPE   H3R19315   4.199   2.404   6.996  1.1832 -1.0517  0.9468
  171SOPE   H3S19316   4.154   2.567   7.047 -0.1365  1.1021 -1.3890
  171SOPE   C2419317   4.355   2.532   7.088  0.6305  0.0485 -0.0265
  171SOPE   H4R19318   4.433   2.456   7.065  0.8157  0.1569  0.2391
  171SOPE   H4S19319   4.403   2.628   7.062 -3.8562  2.0771 -1.3713
  171SOPE   C2519320   4.315   2.525   7.234  0.0535 -0.4374  0.6605
  171SOPE   H5R19321   4.248   2.613   7.241 -0.3261 -0.8071  1.8852
  171SOPE   H5S19322   4.267   2.428   7.259  2.4395 -0.8752  3.8508
  171SOPE   C2619323   4.430   2.572   7.323  0.0420 -0.4442  0.7713
  171SOPE   H6R19324   4.449   2.679   7.300 -0.9323 -0.4004  0.1458
  171SOPE   H6S19325   4.395   2.564   7.429 -1.1611 -0.8866  0.3494
  171SOPE   C2719326   4.568   2.500   7.302 -0.4893  0.0068 -0.2365
  171SOPE   H7R19327   4.539   2.394   7.290 -0.0810 -0.1685  0.2891
  171SOPE   H7S19328   4.623   2.537   7.212  0.5903  2.4800  1.3603
  171SOPE   C2819329   4.657   2.512   7.422  0.3714  0.4080 -0.1823
  171SOPE   H8R19330   4.738   2.439   7.402 -0.5190 -0.5205 -0.4889
  171SOPE   H8S19331   4.706   2.611   7.421  2.0967 -0.4174 -0.1994
  171SOPE   C2919332   4.604   2.465   7.553 -0.3237 -0.0450 -1.1098
  171SOPE   H9119333   4.504   2.420   7.545 -0.5052  0.1484  0.0937
  171SOPE  C21019334   4.683   2.456   7.663 -0.2456  0.7906 -0.2141
  171SOPE  H10119335   4.636   2.425   7.757 -1.3130  1.4984 -0.4999
  171SOPE  C21119336   4.826   2.489   7.671 -0.5725 -0.1169  1.3584
  171SOPE  H11R19337   4.861   2.535   7.577 -0.6496 -1.8264  0.4847
  171SOPE  H11S19338   4.880   2.393   7.689 -2.3722 -1.0742  1.7906
  171SOPE  C21219339   4.849   2.587   7.783  0.1234 -0.1414 -0.1657
  171SOPE  H12R19340   4.763   2.658   7.785  0.8844  0.7904  0.0000
  171SOPE  H12S19341   4.941   2.649   7.770  0.3314 -0.0917  1.4702
  171SOPE  C21319342   4.862   2.509   7.916 -0.3733 -0.8496 -0.4166
  171SOPE  H13R19343   4.898   2.406   7.896 -0.6756 -1.1562  0.5774
  171SOPE  H13S19344   4.762   2.495   7.962 -0.6986 -0.6934 -1.0617
  171SOPE  C21419345   4.946   2.570   8.032  0.7308 -1.1482 -0.3773
  171SOPE  H14R19346   4.915   2.677   8.033  1.0563 -1.0535 -0.3839
  171SOPE  H14S19347   5.053   2.569   8.004  0.7602 -0.4407 -0.3045
  171SOPE  C21519348   4.931   2.499   8.169 -0.0067 -0.2374  0.1784
  171SOPE  H15R19349   4.823   2.482   8.190  0.1644 -1.1474  0.3239
  171SOPE  H15S19350   4.979   2.564   8.245 -0.0018  1.0729 -0.9145
  171SOPE  C21619351   5.009   2.364   8.170  0.1844  0.3535 -0.1466
  171SOPE  H16R19352   5.115   2.368   8.203  0.1433  0.9742 -0.0805
  171SOPE  H16S19353   5.011   2.322   8.068  3.1328  0.7549 -0.2981
  171SOPE  C21719354   4.946   2.271   8.275 -0.3892 -0.0387 -0.6972
  171SOPE  H17R19355   5.020   2.189   8.288  1.9780  2.3670  1.5609
  171SOPE  H17S19356   4.845   2.237   8.243 -0.1350  0.3516 -1.9064
  171SOPE  C21819357   4.933   2.328   8.412 -0.7493  0.0793 -0.2053
  171SOPE  H18R19358   4.847   2.398   8.417  0.4027  1.5764 -0.9864
  171SOPE  H18S19359   5.020   2.393   8.436  0.6305 -1.6496 -0.4871
  171SOPE  H18T19360   4.909   2.246   8.483 -0.6865  0.6592  0.5047
  171SOPE   C3319361   4.859   2.043   7.116 -0.6905  0.6729  0.0411
  171SOPE   H3X19362   4.951   2.106   7.113  1.1887 -1.9681  0.5249
  171SOPE   H3Y19363   4.870   1.964   7.039 -0.5377  0.8714 -0.1433
  171SOPE   C3419364   4.847   1.964   7.247 -1.1783 -0.1122 -0.6540
  171SOPE   H4X19365   4.940   1.905   7.261 -1.5490 -1.0939 -2.1297
  171SOPE   H4Y19366   4.767   1.886   7.241  1.0271 -2.3635 -1.7869
  171SOPE   C3519367   4.819   2.032   7.380  0.2469 -0.3875 -0.3811
  171SOPE   H5X19368   4.721   2.083   7.381  0.4392 -0.0183  1.5244
  171SOPE   H5Y19369   4.898   2.111   7.380 -2.0303  1.9695  0.8231
  171SOPE   C3619370   4.849   1.949   7.508  0.6303  0.1117  0.4478
  171SOPE   H6X19371   4.946   1.895   7.507  0.3449 -0.4439  1.9435
  171SOPE   H6Y19372   4.770   1.872   7.521  0.6904  0.1969  1.3855
  171SOPE   C3719373   4.836   2.041   7.632 -0.3910  0.1621 -0.2130
  171SOPE   H7X19374   4.745   2.104   7.623  0.8734  2.2040  0.8937
  171SOPE   H7Y19375   4.916   2.119   7.623 -1.0900  0.9807  0.5772
  171SOPE   C3819376   4.864   1.962   7.762 -0.9324 -0.3134 -0.4783
  171SOPE   H8X19377   4.958   1.905   7.745 -0.3477  0.2098  0.9509
  171SOPE   H8Y19378   4.786   1.887   7.788 -0.0564 -0.7204  1.0472
  171SOPE   C3919379   4.879   2.061   7.877 -0.6198 -0.0112  0.7408
  171SOPE   H9X19380   4.789   2.126   7.877  1.5901  3.1691  1.5392
  171SOPE   H9Y19381   4.957   2.135   7.848 -1.3761  0.7973  0.7515
  171SOPE  C31019382   4.907   2.006   8.021  0.2475  0.0544  0.0465
  171SOPE  H10X19383   4.828   1.941   8.064 -0.0848 -0.3524 -1.1513
  171SOPE  H10Y19384   4.896   2.098   8.082  1.5299  0.3203 -0.1073
  171SOPE  C31119385   5.053   1.951   8.039 -0.4177 -0.2143 -0.0138
  171SOPE  H11X19386   5.065   1.856   7.983 -1.6742  0.0591 -0.7796
  171SOPE  H11Y19387   5.058   1.922   8.146  0.3635  0.0571  0.0224
  171SOPE  C31219388   5.162   2.053   8.005 -0.0331  0.2913 -0.2675
  171SOPE  H12X19389   5.137   2.160   8.019 -3.3362 -0.6123  1.2529
  171SOPE  H12Y19390   5.186   2.049   7.897 -1.0107 -1.7684 -0.4414
  171SOPE  C31319391   5.296   2.003   8.080 -0.3549  0.0849  1.1309
  171SOPE  H13X19392   5.387   2.048   8.035 -1.0561  1.6065  1.1620
  171SOPE  H13Y19393   5.300   1.892   8.084  1.3775  0.0571 -0.5364
  171SOPE  C31419394   5.312   2.055   8.225 -0.3055  1.1186  0.2303
  171SOPE  H14X19395   5.218   2.060   8.283  0.5826  0.4603  1.7460
  171SOPE  H14Y19396   5.342   2.161   8.210  1.2407  0.4823 -1.4680
  171SOPE  C31519397   5.416   1.970   8.306  0.0189  0.0822  0.1247
  171SOPE  H15X19398   5.513   1.968   8.250 -0.9412 -1.7622 -1.5334
  171SOPE  H15Y19399   5.375   1.867   8.309  3.3513 -1.3309  0.1416
  171SOPE  C31619400   5.448   2.026   8.445  0.1256 -0.6953  0.0259
  171SOPE  H16X19401   5.362   1.995   8.508  1.3106  0.5358  2.3253
  171SOPE  H16Y19402   5.447   2.136   8.429  0.0760 -1.0742 -2.6750
  171SOPE  C31719403   5.585   1.984   8.491 -0.4290  0.0843  0.6218
  171SOPE  H17X19404   5.662   2.006   8.414 -1.8841 -0.8890 -1.1712
  171SOPE  H17Y19405   5.592   1.874   8.505 -1.9042 -0.0410  0.4286
  171SOPE  C31819406   5.649   2.054   8.617  1.1191 -0.7850 -0.2176
  171SOPE  H18X19407   5.756   2.027   8.631  1.5041  2.0138  2.7748
  171SOPE  H18Y19408   5.606   2.011   8.709 -1.0260 -0.6831 -1.1434
  171SOPE  H18Z19409   5.640   2.165   8.611  1.0886 -0.8829 -2.4277
  172SOPE     N19410   0.007   3.704   6.335  0.0627 -0.1926  0.5442
  172SOPE   HN119411   0.094   3.662   6.374 -0.6650 -1.4182  0.8603
  172SOPE   HN219412  -0.013   3.644   6.253  4.0000 -0.2883 -0.4748
  172SOPE   HN319413   0.027   3.803   6.309 -0.1619 -0.5407 -1.0101
  172SOPE   C1219414  -0.104   3.710   6.442  0.2788 -0.6327 -0.5849
  172SOPE  H12A19415  -0.047   3.687   6.535  1.0297 -0.4454 -0.9895
  172SOPE  H12B19416  -0.161   3.619   6.416 -2.3262  1.0292 -0.8309
  172SOPE   C1119417  -0.199   3.836   6.441  0.1411 -0.1823  0.6023
  172SOPE  H11A19418  -0.279   3.819   6.516 -0.6419 -0.0660 -0.1978
  172SOPE  H11B19419  -0.246   3.836   6.341 -0.9324 -0.5624  1.0955
  172SOPE     P19420  -0.089   4.026   6.592 -0.5517 -0.3325  0.0228
  172SOPE   O1319421  -0.082   4.169   6.556  0.4026 -0.0570  0.7011
  172SOPE   O1419422   0.035   3.974   6.656  0.3735 -0.7609 -0.3789
  172SOPE   O1219423  -0.118   3.952   6.457  0.4701  0.1845  0.7547
  172SOPE   O1119424  -0.206   4.007   6.689  0.3294 -0.0658  0.6250
  172SOPE    C119425  -0.320   4.101   6.692 -0.2789  0.3670  0.1399
  172SOPE    HA19426  -0.345   4.115   6.585  2.4360  2.1454 -0.3087
  172SOPE    HB19427  -0.297   4.197   6.742  1.5497  0.5710 -1.0345
  172SOPE    C219428  -0.447   4.034   6.747  0.7650  0.0806  0.3105
  172SOPE    HS19429  -0.530   4.099   6.711  0.5288  0.4661  1.5257
  172SOPE   O2119430  -0.444   4.026   6.895  0.6576 -0.9370 -0.2424
  172SOPE   C2119431  -0.467   4.146   6.948  0.1073 -0.0269 -0.0399
  172SOPE   O2219432  -0.505   4.249   6.891  0.6151  0.3319  0.2974
  172SOPE   C2219433  -0.450   4.149   7.103  0.2694  0.2378  0.0192
  172SOPE   H2R19434  -0.410   4.250   7.125  2.1269 -0.7220  1.2471
  172SOPE   H2S19435  -0.378   4.070   7.133 -0.2488 -0.6818 -1.1470
  172SOPE    C319436  -0.478   3.897   6.689 -0.7617  0.5707 -0.0425
  172SOPE    HX19437  -0.391   3.828   6.689  0.4594  2.0660  2.4680
  172SOPE    HY19438  -0.498   3.907   6.580  3.3342  2.4799 -0.6972
  172SOPE   O3119439  -0.594   3.832   6.747  0.6639 -0.6033  0.1345
  172SOPE   C3119440  -0.715   3.889   6.731  0.2547  0.8064  0.2416
  172SOPE   O3219441  -0.747   3.988   6.666  0.1689  0.5292 -0.0795
  172SOPE   C3219442  -0.818   3.810   6.804  0.0262 -0.4396 -0.8970
  172SOPE   H2X19443  -0.800   3.702   6.784  0.9436 -0.4770  0.0779
  172SOPE   H2Y19444  -0.911   3.839   6.752  1.4627  3.6002 -1.3703
  172SOPE   C2319445  -0.589   4.148   7.168  0.2031  0.0234  0.1185
  172SOPE   H3R19446  -0.639   4.049   7.167  0.2160  0.0192 -0.0074
  172SOPE   H3S19447  -0.662   4.218   7.124  1.1275  1.4730  0.8478
  172SOPE   C2419448  -0.592   4.184   7.318  0.0314  0.5767  0.1721
  172SOPE   H4R19449  -0.553   4.288   7.312 -1.1886  1.0401  0.0451
  172SOPE   H4S19450  -0.694   4.201   7.358  0.0792  0.0537  0.5232
  172SOPE   C2519451  -0.515   4.087   7.406  0.0190  0.4621 -0.0184
  172SOPE   H5R19452  -0.569   3.993   7.383 -0.3417  0.4713  0.7640
  172SOPE   H5S19453  -0.411   4.086   7.367 -0.1510 -1.1359 -0.4671
  172SOPE   C2619454  -0.516   4.113   7.554  0.3784 -0.0610  0.4375
  172SOPE   H6R19455  -0.452   4.031   7.593 -0.8116 -1.1655  0.1070
  172SOPE   H6S19456  -0.470   4.208   7.588  0.6240 -0.2517  0.6441
  172SOPE   C2719457  -0.652   4.085   7.624  0.9920  0.4650  0.1297
  172SOPE   H7R19458  -0.730   4.153   7.584  0.1936  1.0590  2.6186
  172SOPE   H7S19459  -0.672   3.978   7.600 -0.3222  0.8482 -0.4995
  172SOPE   C2819460  -0.650   4.115   7.775 -0.0152 -0.3519 -0.7314
  172SOPE   H8R19461  -0.551   4.081   7.812  0.3999  3.1445  1.5822
  172SOPE   H8S19462  -0.662   4.225   7.782 -1.0579 -0.5050  0.0105
  172SOPE   C2919463  -0.755   4.037   7.842 -0.0804 -0.2458 -0.2873
  172SOPE   H9119464  -0.859   4.043   7.806 -0.3268 -0.3242  0.3990
  172SOPE  C21019465  -0.733   3.962   7.950  0.9238  0.2707  0.4809
  172SOPE  H10119466  -0.822   3.915   7.995  1.0306 -2.3788 -1.8820
  172SOPE  C21119467  -0.603   3.940   8.021 -0.3060 -0.1798  0.0036
  172SOPE  H11R19468  -0.516   3.954   7.954 -0.1934 -0.1247  0.1599
  172SOPE  H11S19469  -0.596   3.835   8.056 -1.5995  0.5982  2.8191
  172SOPE  C21219470  -0.587   4.016   8.149 -0.0025  0.4087  0.1918
  172SOPE  H12R19471  -0.585   4.125   8.124  0.2301  0.3888  0.1217
  172SOPE  H12S19472  -0.488   3.983   8.186  0.2361  1.0101  0.1049
  172SOPE  C21319473  -0.691   3.999   8.258 -0.0291 -0.2926 -0.5139
  172SOPE  H13R19474  -0.714   3.891   8.278 -0.4898 -0.5023 -2.1663
  172SOPE  H13S19475  -0.780   4.052   8.219 -0.0737 -1.3343 -1.8671
  172SOPE  C21419476  -0.657   4.076   8.383  0.5498  0.1945  0.6867
  172SOPE  H14R19477  -0.746   4.077   8.450  0.7446  2.0812  0.9502
  172SOPE  H14S19478  -0.636   4.184   8.369  0.7490  0.2565  1.4370
  172SOPE  C21519479  -0.543   4.012   8.475 -0.2328  0.0779 -0.0211
  172SOPE  H15R19480  -0.524   3.908   8.439 -0.4370  0.2640 -0.6759
  172SOPE  H15S19481  -0.569   4.008   8.583 -0.8737  0.7455 -0.1450
  172SOPE  C21619482  -0.409   4.082   8.462 -0.0744  0.5007 -0.2284
  172SOPE  H16R19483  -0.416   4.181   8.511 -0.9197  0.5013 -0.3443
  172SOPE  H16S19484  -0.392   4.089   8.352 -2.2171  4.8698 -0.3847
  172SOPE  C21719485  -0.287   4.001   8.516 -0.3093  0.6764  0.3588
  172SOPE  H17R19486  -0.199   4.064   8.491  1.6749 -2.0142  0.3498
  172SOPE  H17S19487  -0.292   3.904   8.461  0.8943  1.3586 -0.9697
  172SOPE  C21819488  -0.293   3.973   8.661 -0.4728  0.0115  0.2570
  172SOPE  H18R19489  -0.291   4.063   8.726  0.3745  0.1963 -0.0230
  172SOPE  H18S19490  -0.203   3.915   8.689 -0.6931  0.0794  1.1486
  172SOPE  H18T19491  -0.382   3.915   8.695 -0.2629 -3.2022 -4.2130
  172SOPE   C3319492  -0.841   3.841   6.955 -0.2624  0.6505  0.0661
  172SOPE   H3X19493  -0.746   3.819   7.009  0.0862 -2.3459 -1.6177
  172SOPE   H3Y19494  -0.917   3.766   6.985  0.8837 -0.4118  0.3586
  172SOPE   C3419495  -0.889   3.985   6.988 -0.5201  0.3372  0.0218
  172SOPE   H4X19496  -0.981   4.003   6.927 -1.4278 -3.8545 -0.0215
  172SOPE   H4Y19497  -0.819   4.068   6.965 -1.3175  0.9676 -0.1449
  172SOPE   C3519498  -0.930   4.005   7.134  0.3204 -0.5615  0.1882
  172SOPE   H5X19499  -0.841   3.983   7.196  1.9161  2.2180 -1.0415
  172SOPE   H5Y19500  -1.001   3.927   7.170 -1.4456  0.2812 -1.3985
  172SOPE   C3619501  -0.995   4.134   7.167  0.0994 -0.5029  0.0536
  172SOPE   H6X19502  -1.092   4.139   7.112  0.4586  2.3848 -0.4212
  172SOPE   H6Y19503  -0.930   4.209   7.116  2.8014 -1.9851  1.2363
  172SOPE   C3719504  -1.022   4.161   7.321 -0.8241 -0.0426 -0.1788
  172SOPE   H7X19505  -0.929   4.161   7.381 -0.4129  0.2257 -0.8097
  172SOPE   H7Y19506  -1.100   4.085   7.345 -0.4155 -0.1559  0.8000
  172SOPE   C3819507  -1.091   4.297   7.344 -0.4968  0.1082 -0.2726
  172SOPE   H8X19508  -1.174   4.310   7.272 -0.8475 -4.5070 -0.8415
  172SOPE   H8Y19509  -1.018   4.379   7.328 -0.4142  0.3189  1.0959
  172SOPE   C3919510  -1.165   4.307   7.476  0.0990 -0.0309  0.6748
  172SOPE   H9X19511  -1.233   4.219   7.480 -1.7468  1.4486  3.1398
  172SOPE   H9Y19512  -1.217   4.405   7.487 -0.9947 -0.5709  0.3487
  172SOPE  C31019513  -1.070   4.293   7.592 -0.2945 -0.1512  0.6713
  172SOPE  H10X19514  -0.980   4.358   7.584 -0.8902  0.5458 -0.4093
  172SOPE  H10Y19515  -1.034   4.188   7.607  0.9335 -0.0754 -1.4702
  172SOPE  C31119516  -1.141   4.316   7.729 -0.0580 -0.0654  1.3545
  172SOPE  H11X19517  -1.217   4.236   7.744 -0.2132 -0.2260 -0.1554
  172SOPE  H11Y19518  -1.205   4.406   7.740  1.1579  1.1454 -1.0025
  172SOPE  C31219519  -1.043   4.307   7.851 -0.3773  0.3418 -0.2066
  172SOPE  H12X19520  -1.000   4.205   7.844 -0.0523  0.6107 -2.5550
  172SOPE  H12Y19521  -1.107   4.317   7.941 -0.3633  1.7308 -0.3341
  172SOPE  C31319522  -0.922   4.404   7.861  0.3574 -0.4996 -1.0856
  172SOPE  H13X19523  -0.951   4.511   7.853 -0.3045 -0.5542  0.4257
  172SOPE  H13Y19524  -0.859   4.383   7.772  0.4688  0.3338 -1.2065
  172SOPE  C31419525  -0.844   4.392   7.998 -0.6563 -0.4241 -0.3332
  172SOPE  H14X19526  -0.758   4.463   7.990 -0.5604 -0.5320 -0.2618
  172SOPE  H14Y19527  -0.810   4.287   8.014 -0.5001 -0.6397 -1.9270
  172SOPE  C31519528  -0.924   4.423   8.127  0.1415 -0.7954 -0.1344
  172SOPE  H15X19529  -0.995   4.343   8.157 -0.8976  0.4335  0.7851
  172SOPE  H15Y19530  -0.977   4.520   8.114 -1.0664 -1.3525  0.4488
  172SOPE  C31619531  -0.831   4.432   8.244  0.0746 -0.2978 -0.2927
  172SOPE  H16X19532  -0.769   4.520   8.218  2.1649 -1.2780  1.1926
  172SOPE  H16Y19533  -0.760   4.348   8.260  1.3173  0.7043 -0.4483
  172SOPE  C31719534  -0.910   4.469   8.369  0.3100 -0.2042 -0.3276
  172SOPE  H17X19535  -0.984   4.387   8.382  1.0041 -0.4612  2.4316
  172SOPE  H17Y19536  -0.974   4.557   8.349 -0.2674 -0.1320  1.6805
  172SOPE  C31819537  -0.826   4.485   8.499 -0.7004 -0.2074  0.0962
  172SOPE  H18X19538  -0.890   4.505   8.587 -1.4595 -0.3189 -0.4293
  172SOPE  H18Y19539  -0.765   4.577   8.488 -0.1433 -0.5820  0.0300
  172SOPE  H18Z19540  -0.758   4.399   8.520 -1.0432 -0.4184  0.3369
  173SAPI   C1219541   0.923   2.336  10.812 -0.4291 -0.2178 -0.1751
  173SAPI    H219542   0.978   2.268  10.743 -0.0522 -0.5883  0.4864
  173SAPI    O219543   1.016   2.383  10.911  0.0081 -0.0083 -0.5844
  173SAPI   HO219544   1.066   2.306  10.939  1.0944  0.9096  0.0331
  173SAPI   C1319545   0.858   2.451  10.733 -0.5621  0.1302  0.5970
  173SAPI    H319546   0.789   2.412  10.655 -1.2999  0.7028  0.9620
  173SAPI    O319547   0.956   2.518  10.648  0.1361 -0.3721 -0.1958
  173SAPI   HO319548   1.010   2.570  10.708 -0.7813  0.7915 -0.3626
  173SAPI   C1419549   0.789   2.542  10.820  0.5440  0.0371  0.6541
  173SAPI    H419550   0.851   2.589  10.900 -1.0304  0.8642  1.4211
  173SAPI    O419551   0.728   2.640  10.733 -0.1559  0.3027 -0.5076
  173SAPI   HO419552   0.788   2.710  10.708 -0.7590  0.9707 -0.1402
  173SAPI   C1519553   0.680   2.467  10.892  0.0560  0.2094 -0.0768
  173SAPI    H519554   0.620   2.422  10.809 -1.5137 -0.6929  1.5060
  173SAPI    O519555   0.595   2.560  10.968  0.1453 -0.2103  0.7150
  173SAPI   HO519556   0.614   2.649  10.937  1.0179 -0.4367  0.5796
  173SAPI   C1619557   0.735   2.351  10.970  0.0313 -0.0246  0.6327
  173SAPI    H619558   0.801   2.392  11.049  0.1427  1.6475 -0.3021
  173SAPI    O619559   0.632   2.287  11.044 -0.3228 -0.0860  0.4947
  173SAPI   HO619560   0.576   2.257  10.973  1.8626 -0.5503 -1.0703
  173SAPI   C1119561   0.809   2.253  10.873 -0.3464 -0.3613  0.5088
  173SAPI    H119562   0.733   2.218  10.800  1.3544  1.2320 -2.1229
  173SAPI     P19563   0.920   2.007  10.880  0.1267 -0.0757  0.0871
  173SAPI   O1319564   0.918   1.908  10.983  0.9043  0.2211 -0.3497
  173SAPI   O1419565   1.043   2.030  10.798  0.0611  0.1781 -0.4307
  173SAPI   O1219566   0.869   2.149  10.946  0.4962  0.4272 -0.6772
  173SAPI   O1119567   0.800   1.980  10.780  0.2936 -0.3004  0.2389
  173SAPI    C119568   0.787   1.864  10.690  0.1602  0.1429 -0.3588
  173SAPI    HA19569   0.838   1.773  10.728  1.2454  0.9345  0.1414
  173SAPI    HB19570   0.681   1.838  10.672 -0.3350  2.1172 -0.4246
  173SAPI    C219571   0.847   1.895  10.548  0.4097 -0.2374 -0.0410
  173SAPI    HS19572   0.951   1.926  10.571  1.1666 -1.6186 -1.4383
  173SAPI   O2119573   0.767   1.994  10.484 -0.0860 -0.0050  0.3538
  173SAPI   C2119574   0.834   2.118  10.462 -0.0002 -0.1626  0.6612
  173SAPI   O2219575   0.950   2.142  10.487  0.2858  0.3264  0.6752
  173SAPI   C2219576   0.725   2.210  10.402 -0.7654 -0.0021 -0.1611
  173SAPI   H2R19577   0.645   2.148  10.356 -0.7921 -0.5713  0.6409
  173SAPI   H2S19578   0.670   2.272  10.475 -2.7420 -1.0974 -0.6676
  173SAPI    C319579   0.861   1.784  10.438 -0.0903 -0.2079  1.2399
  173SAPI    HX19580   0.761   1.773  10.390 -0.2143 -0.1429  1.4831
  173SAPI    HY19581   0.889   1.684  10.478  0.8922 -0.3535  0.2065
  173SAPI   O3119582   0.955   1.820  10.332 -0.3193 -0.1149 -0.1408
  173SAPI   C3119583   1.077   1.783  10.360 -0.0246  0.6141 -0.6588
  173SAPI   O3219584   1.107   1.726  10.467 -0.1061 -0.0919  0.0713
  173SAPI   C3219585   1.177   1.825  10.256  0.7433  0.1167 -0.4256
  173SAPI   H2X19586   1.241   1.736  10.241 -1.7708 -2.0531  1.3952
  173SAPI   H2Y19587   1.226   1.916  10.297  2.3435 -0.0536 -1.9300
  173SAPI   C2319588   0.793   2.295  10.292  0.3626  0.0392 -0.2976
  173SAPI   H3R19589   0.848   2.380  10.337  0.8492  1.3004 -3.1600
  173SAPI   H3S19590   0.715   2.345  10.231 -0.8569  0.6801  1.7220
  173SAPI   C2419591   0.889   2.228  10.193  0.2184  0.2614 -0.0684
  173SAPI   H4R19592   0.970   2.165  10.234  0.1325 -0.4366 -0.9743
  173SAPI   H4S19593   0.948   2.311  10.148  2.0829 -1.3400 -0.6281
  173SAPI   C2519594   0.807   2.138  10.108  0.0235  0.7229  0.4648
  173SAPI   H5R19595   0.816   2.030  10.125 -0.4212  0.4760 -0.7947
  173SAPI   C2619596   0.737   2.179  10.001 -0.0286  0.4457 -0.2209
  173SAPI   H6R19597   0.697   2.100   9.935  0.8644  1.0613 -1.5262
  173SAPI   C2719598   0.711   2.323   9.958 -0.2520  0.2611 -0.1301
  173SAPI   H7R19599   0.795   2.394   9.973  1.8330 -1.9666 -0.8546
  173SAPI   H7S19600   0.629   2.366  10.019 -2.5375 -3.1938 -0.6017
  173SAPI   C2819601   0.661   2.317   9.816 -0.6684 -0.1626 -0.1242
  173SAPI   H8R19602   0.554   2.294   9.822 -0.5607 -0.3923  1.1057
  173SAPI   C2919603   0.736   2.321   9.702  0.2325  0.3689 -0.2915
  173SAPI   H9R19604   0.685   2.330   9.605 -2.1553 -1.1284  0.7986
  173SAPI  C21019605   0.885   2.327   9.711 -0.1884 -0.0133 -0.4287
  173SAPI  H10R19606   0.913   2.227   9.751 -1.4368 -0.6774 -1.1904
  173SAPI  H10S19607   0.918   2.398   9.790  2.4084 -1.3546 -0.2514
  173SAPI  C21119608   0.959   2.351   9.582  0.2872 -0.5118 -0.1436
  173SAPI  H11R19609   0.966   2.455   9.547 -0.7093 -0.6829 -0.8912
  173SAPI  C21219610   0.984   2.253   9.491  0.1706  0.4677 -0.0254
  173SAPI  H12R19611   1.042   2.270   9.399 -0.1225 -1.4254 -0.5745
  173SAPI  C21319612   0.949   2.109   9.501 -0.1643  0.0800  0.0462
  173SAPI  H13R19613   0.884   2.080   9.416  2.5064  0.5161 -2.2320
  173SAPI  H13S19614   0.889   2.096   9.594  3.4627 -2.1527  2.2174
  173SAPI  C21419615   1.066   2.018   9.506 -0.2449  0.3514  0.6251
  173SAPI  H14R19616   1.135   2.043   9.587  1.3336  0.1492 -0.6210
  173SAPI  C21519617   1.094   1.915   9.422 -0.0579  0.2685  0.3994
  173SAPI  H15R19618   1.185   1.856   9.437 -0.0330  0.0975 -0.4157
  173SAPI  C21619619   1.009   1.882   9.305  0.2710  0.6296  0.2838
  173SAPI  H16R19620   0.904   1.902   9.338  0.7129 -2.0785  3.6495
  173SAPI  H16S19621   1.017   1.773   9.286 -1.4050  0.6919 -0.9074
  173SAPI  C21719622   1.037   1.976   9.183  0.3369  1.0550 -0.3828
  173SAPI  H17R19623   1.141   1.955   9.151 -0.2265 -1.8542 -0.3764
  173SAPI  H17S19624   1.029   2.077   9.230 -2.0163  0.7568 -0.0895
  173SAPI  C21819625   0.930   1.949   9.073  0.4643 -0.4962 -0.2219
  173SAPI  H18R19626   0.835   1.947   9.130  1.0159  0.8299  0.7754
  173SAPI  H18S19627   0.956   1.850   9.032 -0.0652 -0.4223 -0.7515
  173SAPI  C21919628   0.936   2.047   8.962  0.5550 -0.4824  0.7994
  173SAPI  H19R19629   1.034   2.035   8.911 -0.2104 -1.6536 -0.4521
  173SAPI  H19S19630   0.938   2.153   8.995 -1.3850 -0.3437  0.5076
  173SAPI  C22019631   0.841   2.027   8.845  0.6559  0.2028 -0.4278
  173SAPI  H20R19632   0.817   1.919   8.849 -2.5433  0.8745 -0.7674
  173SAPI  H20S19633   0.874   2.055   8.743  2.2396  0.6177  0.1768
  173SAPI  H20T19634   0.755   2.089   8.875 -0.8445 -1.8210 -0.4346
  173SAPI   C3319635   1.115   1.864  10.125  0.2418  0.6118  0.3777
  173SAPI   H3X19636   1.046   1.951  10.133 -3.7512 -2.5147  1.4758
  173SAPI   H3Y19637   1.053   1.782  10.084  1.3910  1.2391 -2.7136
  173SAPI   C3419638   1.227   1.911  10.037 -0.7080 -0.2163  0.0395
  173SAPI   H4X19639   1.299   1.986  10.075  0.8022 -0.9445 -1.2970
  173SAPI   H4Y19640   1.186   1.962   9.947 -2.3997 -0.2054  0.8123
  173SAPI   C3519641   1.309   1.792   9.976 -0.0260 -0.5073 -0.5315
  173SAPI   H5X19642   1.354   1.733  10.059 -1.5167 -0.7685  0.1096
  173SAPI   H5Y19643   1.388   1.847   9.921 -0.0710  1.0925  0.9585
  173SAPI   C3619644   1.219   1.709   9.890  0.3314 -0.4354 -0.4898
  173SAPI   H6X19645   1.185   1.775   9.807  3.0216  1.1641 -0.3803
  173SAPI   H6Y19646   1.140   1.657   9.948  1.7404 -0.1309  1.7599
  173SAPI   C3719647   1.306   1.592   9.821  0.2915 -0.0167 -0.0605
  173SAPI   H7X19648   1.230   1.519   9.788  0.1118 -0.4602  1.3025
  173SAPI   H7Y19649   1.366   1.539   9.899  0.4472  0.6713  0.2899
  173SAPI   C3819650   1.376   1.638   9.701 -0.3666  0.3331  0.0788
  173SAPI   H8X19651   1.448   1.718   9.729 -0.2033  0.6462 -1.1918
  173SAPI   H8Y19652   1.314   1.679   9.618 -2.2416 -3.6561 -0.5784
  173SAPI   C3919653   1.465   1.528   9.639  0.3818  0.4735 -0.5391
  173SAPI   H9X19654   1.393   1.443   9.642  1.4626 -0.4260  0.3151
  173SAPI   H9Y19655   1.552   1.498   9.701  0.2583 -0.9195 -1.0246
  173SAPI  C31019656   1.511   1.549   9.496  0.0093 -0.0333  0.1146
  173SAPI  H10X19657   1.432   1.601   9.436  0.2823 -1.3965 -1.4659
  173SAPI  H10Y19658   1.528   1.459   9.433  1.6750 -0.5508  1.2820
  173SAPI  C31119659   1.634   1.644   9.490  0.6017 -0.0954 -0.1110
  173SAPI  H11X19660   1.714   1.609   9.558  0.3959  1.3844  0.9036
  173SAPI  H11Y19661   1.611   1.750   9.514  0.6144 -0.3944  1.2743
  173SAPI  C31219662   1.702   1.652   9.353 -0.3373 -0.2556  0.2043
  173SAPI  H12X19663   1.753   1.558   9.325 -1.7894 -0.4914 -1.8163
  173SAPI  H12Y19664   1.771   1.739   9.348 -1.3532  0.5042 -1.0940
  173SAPI  C31319665   1.605   1.690   9.239  0.2153 -0.3361 -0.7952
  173SAPI  H13X19666   1.524   1.615   9.237 -0.1645  0.0543 -0.1722
  173SAPI  H13Y19667   1.654   1.680   9.140 -0.1493 -0.6657 -0.9430
  173SAPI  C31419668   1.542   1.830   9.251  0.6855 -0.1402  0.0626
  173SAPI  H14X19669   1.624   1.905   9.256 -0.7690  1.5779 -1.2415
  173SAPI  H14Y19670   1.480   1.836   9.343 -0.0534  1.1201 -0.5078
  173SAPI  C31519671   1.458   1.870   9.132 -0.0880  1.0219  0.3094
  173SAPI  H15X19672   1.412   1.970   9.141 -0.3179  0.8339  1.2853
  173SAPI  H15Y19673   1.370   1.802   9.139 -0.8288  1.7459 -1.6788
  173SAPI  C31619674   1.519   1.861   8.986 -0.0225  0.2017  0.1399
  173SAPI  H16X19675   1.536   1.755   8.955  2.1927  0.9847 -1.3940
  173SAPI  H16Y19676   1.622   1.900   8.979 -0.4421  1.2001 -0.4848
  173SAPI  C31719677   1.440   1.929   8.875  0.4219  0.3304 -0.4910
  173SAPI  H17X19678   1.423   2.035   8.904  2.1379  0.4211  0.2396
  173SAPI  H17Y19679   1.342   1.878   8.886  0.4665  0.6750  1.6473
  173SAPI  C31819680   1.498   1.898   8.730  0.8502  0.2585 -0.0007
  173SAPI  H18X19681   1.597   1.948   8.718  0.1606  1.5722 -0.3305
  173SAPI  H18Y19682   1.425   1.933   8.655 -1.0322 -3.3119  0.0549
  173SAPI  H18Z19683   1.517   1.789   8.721  2.3090  0.4671  0.3681
  174SAPI   C1219684   4.571   2.871  11.003 -0.2443  0.3323 -0.2642
  174SAPI    H219685   4.654   2.879  10.930  1.2357 -1.0611  1.2448
  174SAPI    O219686   4.449   2.851  10.932  0.4050 -0.1377 -0.3280
  174SAPI   HO219687   4.399   2.933  10.928 -1.9009 -1.5592 -1.5214
  174SAPI   C1319688   4.607   2.756  11.092  0.1432 -0.3087 -0.2660
  174SAPI    H319689   4.705   2.794  11.128  0.2095 -0.3557 -0.3960
  174SAPI    O319690   4.635   2.635  11.028 -0.1847 -0.8200  0.3566
  174SAPI   HO319691   4.651   2.566  11.092  0.8928 -0.2075  0.7539
  174SAPI   C1419692   4.505   2.732  11.198  0.4143  0.0555 -0.0868
  174SAPI    H419693   4.408   2.701  11.154  0.6809 -1.2565  0.2209
  174SAPI    O419694   4.535   2.627  11.287 -0.2728  0.0972 -0.7957
  174SAPI   HO419695   4.456   2.584  11.319  0.7735 -1.2037  0.1014
  174SAPI   C1519696   4.482   2.860  11.277  0.7129 -0.3581  0.6849
  174SAPI    H519697   4.583   2.873  11.322  0.5002  1.4393  0.6914
  174SAPI    O519698   4.385   2.841  11.378 -0.1378  0.0223 -0.0531
  174SAPI   HO519699   4.433   2.834  11.461  2.2644  3.3817 -1.0321
  174SAPI   C1619700   4.455   2.984  11.191  0.0466  0.0653  0.5508
  174SAPI    H619701   4.350   2.982  11.154  0.2463 -0.3288 -0.0095
  174SAPI    O619702   4.474   3.104  11.267  0.0816  0.3718 -0.7127
  174SAPI   HO619703   4.458   3.179  11.210 -0.1640  1.0483  0.2406
  174SAPI   C1119704   4.563   2.996  11.083  0.7115  0.0814 -0.4508
  174SAPI    H119705   4.663   3.015  11.126  0.3598  1.7592 -0.3138
  174SAPI     P19706   4.638   3.187  10.904  0.1080 -0.0909  0.0120
  174SAPI   O1319707   4.764   3.170  10.978 -0.3022 -0.3674 -0.3895
  174SAPI   O1419708   4.588   3.326  10.882  0.3133  0.0385 -0.7787
  174SAPI   O1219709   4.529   3.105  10.992 -0.5696 -0.2184  0.8103
  174SAPI   O1119710   4.643   3.108  10.767 -0.1094 -0.1645  0.2301
  174SAPI    C119711   4.538   3.107  10.675 -0.7138  0.1082 -0.5574
  174SAPI    HA19712   4.484   3.010  10.690 -1.6540  0.8900  1.1863
  174SAPI    HB19713   4.466   3.191  10.682 -0.5693  0.0208  2.3202
  174SAPI    C219714   4.587   3.122  10.528 -0.6086 -0.3930  0.0128
  174SAPI    HS19715   4.497   3.127  10.464 -0.4377  1.0846 -0.1471
  174SAPI   O2119716   4.673   3.012  10.496  0.1882 -0.1193  0.0116
  174SAPI   C2119717   4.661   2.970  10.366  0.3950 -0.1128 -0.4163
  174SAPI   O2219718   4.560   2.973  10.299 -0.1580  0.9886 -0.1606
  174SAPI   C2219719   4.791   2.915  10.327 -0.7281  0.4276  1.0438
  174SAPI   H2R19720   4.861   3.001  10.335 -0.9667  0.9982 -2.2092
  174SAPI   H2S19721   4.825   2.838  10.399  0.1742 -0.5230 -0.3793
  174SAPI    C319722   4.669   3.255  10.514  0.2616  0.1227 -0.2577
  174SAPI    HX19723   4.770   3.238  10.558 -0.9714 -0.4648  2.5007
  174SAPI    HY19724   4.626   3.340  10.573 -0.3309  0.7891 -1.6386
  174SAPI   O3119725   4.684   3.299  10.375 -0.6407 -0.3976 -0.4064
  174SAPI   C3119726   4.569   3.356  10.327 -0.0315 -0.3903 -0.2716
  174SAPI   O3219727   4.465   3.372  10.387  0.3650  0.4301 -0.4087
  174SAPI   C3219728   4.606   3.389  10.182 -0.1095  0.5450 -0.5756
  174SAPI   H2X19729   4.560   3.312  10.117  0.9656 -2.6321  2.3179
  174SAPI   H2Y19730   4.716   3.383  10.166 -0.1269 -2.2821  0.0704
  174SAPI   C2319731   4.789   2.851  10.187  0.9908 -0.6484 -0.6751
  174SAPI   H3R19732   4.687   2.825  10.152 -0.7547  1.9034  2.2862
  174SAPI   H3S19733   4.845   2.756  10.202  0.5025 -0.9548 -0.7651
  174SAPI   C2419734   4.859   2.935  10.071 -0.2468  0.4410 -0.2843
  174SAPI   H4R19735   4.963   2.958  10.101 -0.2020  0.9909 -0.8520
  174SAPI   H4S19736   4.818   3.038  10.078 -2.1851 -0.3737  1.0549
  174SAPI   C2519737   4.835   2.862   9.940 -0.2283  0.0554 -0.0367
  174SAPI   H5R19738   4.828   2.754   9.957  0.7989 -0.4129 -2.3736
  174SAPI   C2619739   4.803   2.913   9.820 -0.2475  0.6990  0.2649
  174SAPI   H6R19740   4.770   2.847   9.738  0.2575  0.5514  0.1772
  174SAPI   C2719741   4.788   3.064   9.791 -0.2920 -0.7014 -0.5453
  174SAPI   H7R19742   4.795   3.120   9.886 -0.4347 -1.2759 -0.1897
  174SAPI   H7S19743   4.685   3.076   9.751 -0.1206 -0.6060 -0.9607
  174SAPI   C2819744   4.894   3.111   9.700 -0.5034  0.4921 -0.0963
  174SAPI   H8R19745   4.991   3.083   9.742 -0.2881  0.3490 -0.6875
  174SAPI   C2919746   4.890   3.162   9.578  0.2939 -0.1697 -0.5617
  174SAPI   H9R19747   4.978   3.198   9.523 -1.1015  0.6235 -2.3282
  174SAPI  C21019748   4.768   3.189   9.498 -0.8340 -0.7708  0.2235
  174SAPI  H10R19749   4.745   3.296   9.513  2.3062 -0.0367  0.2241
  174SAPI  H10S19750   4.673   3.137   9.525 -1.3164 -0.2057 -0.3716
  174SAPI  C21119751   4.795   3.151   9.354  0.2905  0.3072 -0.7254
  174SAPI  H11R19752   4.802   3.043   9.332  3.2273 -0.0816  1.8056
  174SAPI  C21219753   4.793   3.227   9.241 -0.1882  0.6143  0.5796
  174SAPI  H12R19754   4.828   3.186   9.145 -0.8338  1.7794 -0.1603
  174SAPI  C21319755   4.774   3.381   9.236  0.4414 -0.0500 -0.1998
  174SAPI  H13R19756   4.733   3.426   9.329 -2.5015 -1.3746 -0.7912
  174SAPI  H13S19757   4.686   3.393   9.169 -0.1472 -2.2689  0.1225
  174SAPI  C21419758   4.879   3.462   9.161  0.0557 -0.3904  0.4427
  174SAPI  H14R19759   4.947   3.518   9.227 -0.0483 -1.5940  1.5814
  174SAPI  C21519760   4.904   3.460   9.031  0.0301 -0.2982  0.2156
  174SAPI  H15R19761   4.992   3.518   8.998  1.4982 -2.6531 -0.1021
  174SAPI  C21619762   4.825   3.382   8.924 -0.2765  0.3490 -0.7687
  174SAPI  H16R19763   4.722   3.361   8.959 -0.5247  1.6033 -0.7069
  174SAPI  H16S19764   4.875   3.284   8.910 -0.3173 -0.0316  1.5996
  174SAPI  C21719765   4.816   3.470   8.799 -0.9266  0.2985  0.3541
  174SAPI  H17R19766   4.775   3.408   8.716 -2.6789 -0.0307  1.4269
  174SAPI  H17S19767   4.923   3.487   8.773 -1.5441  0.9751 -1.8725
  174SAPI  C21819768   4.735   3.601   8.821 -0.0477  0.5855 -0.7914
  174SAPI  H18R19769   4.795   3.681   8.869 -1.6028  1.1187  0.3076
  174SAPI  H18S19770   4.649   3.584   8.890  1.5458 -1.2640  0.8355
  174SAPI  C21919771   4.670   3.661   8.692  0.2333 -0.2207  0.6208
  174SAPI  H19R19772   4.586   3.595   8.661 -0.5037  1.0169 -0.0554
  174SAPI  H19S19773   4.741   3.653   8.607 -1.5828  2.3350 -1.2280
  174SAPI  C22019774   4.625   3.804   8.701 -0.0087 -0.0536 -0.0468
  174SAPI  H20R19775   4.606   3.850   8.602 -0.2133  0.7347  0.3595
  174SAPI  H20S19776   4.702   3.874   8.742  0.7301  0.6838 -2.6260
  174SAPI  H20T19777   4.538   3.807   8.770 -1.0090 -3.3086 -1.0688
  174SAPI   C3319778   4.550   3.525  10.134  0.6794 -0.0437  0.1604
  174SAPI   H3X19779   4.602   3.595  10.202 -1.6600 -1.3224  3.3670
  174SAPI   H3Y19780   4.443   3.533  10.161  0.3595 -1.0249 -0.7656
  174SAPI   C3419781   4.568   3.557   9.990  0.3191  0.2813 -0.9783
  174SAPI   H4X19782   4.669   3.518   9.963  0.9834  1.6975 -0.5603
  174SAPI   H4Y19783   4.549   3.664   9.968  0.4044  0.8087  1.3742
  174SAPI   C3519784   4.476   3.476   9.901  0.0314 -0.0071 -0.3498
  174SAPI   H5X19785   4.371   3.513   9.900 -0.9274 -2.6403 -0.7914
  174SAPI   H5Y19786   4.462   3.379   9.953  0.9407 -0.4905 -0.9929
  174SAPI   C3619787   4.518   3.464   9.758  0.5347 -0.0393 -0.0386
  174SAPI   H6X19788   4.623   3.427   9.755  1.0826  1.5150 -0.8297
  174SAPI   H6Y19789   4.529   3.568   9.720 -0.5955 -0.2050 -0.8281
  174SAPI   C3719790   4.414   3.380   9.673  0.2707  0.5283  0.8219
  174SAPI   H7X19791   4.318   3.432   9.692 -0.5192 -0.3851 -0.6217
  174SAPI   H7Y19792   4.424   3.271   9.690  1.1011  0.7593  1.9370
  174SAPI   C3819793   4.451   3.398   9.523 -0.9483 -0.0523  0.0961
  174SAPI   H8X19794   4.557   3.367   9.520 -0.7832  0.5255 -0.0480
  174SAPI   H8Y19795   4.476   3.505   9.511  0.6124 -0.3136  0.8865
  174SAPI   C3919796   4.362   3.331   9.427  0.2966  0.1668 -0.2410
  174SAPI   H9X19797   4.269   3.391   9.424  1.0479  1.2816 -1.9565
  174SAPI   H9Y19798   4.343   3.230   9.471  1.6195 -0.1047 -0.2708
  174SAPI  C31019799   4.416   3.324   9.285  0.1551 -0.3631  0.3691
  174SAPI  H10X19800   4.513   3.270   9.279  0.0643 -0.7790  2.3278
  174SAPI  H10Y19801   4.427   3.431   9.256 -3.6712 -0.2349 -0.9627
  174SAPI  C31119802   4.308   3.276   9.193  0.8479  0.5502  0.0164
  174SAPI  H11X19803   4.221   3.346   9.190 -0.6184 -1.1059  2.3623
  174SAPI  H11Y19804   4.283   3.171   9.219 -0.6530  0.3022 -2.3157
  174SAPI  C31219805   4.339   3.254   9.048 -0.3212  0.0849  0.5298
  174SAPI  H12X19806   4.242   3.223   9.004 -0.6300  0.6567  0.7990
  174SAPI  H12Y19807   4.405   3.169   9.021 -0.3271  0.3586 -0.3738
  174SAPI  C31319808   4.398   3.376   8.975 -0.0503 -0.3255 -0.5094
  174SAPI  H13X19809   4.497   3.391   9.023 -0.6812 -0.3291  0.8258
  174SAPI  H13Y19810   4.343   3.468   9.004 -0.0470 -1.4410  3.3812
  174SAPI  C31419811   4.407   3.374   8.822 -0.6155  0.2217  0.1909
  174SAPI  H14X19812   4.483   3.300   8.787 -0.7179  1.5179 -2.9605
  174SAPI  H14Y19813   4.451   3.473   8.795  0.6736  0.0061  1.4353
  174SAPI  C31519814   4.271   3.345   8.752 -0.0301  0.3599  0.3425
  174SAPI  H15X19815   4.199   3.419   8.794 -0.4986 -0.2505  0.6139
  174SAPI  H15Y19816   4.228   3.248   8.786 -2.0460  1.2500  0.4321
  174SAPI  C31619817   4.277   3.357   8.603  0.9535  0.1685 -0.0258
  174SAPI  H16X19818   4.370   3.303   8.573  1.2639  0.8297 -0.2599
  174SAPI  H16Y19819   4.299   3.464   8.585 -1.2792  0.8592  1.2220
  174SAPI  C31719820   4.150   3.303   8.532  0.0588  0.7612 -0.5551
  174SAPI  H17X19821   4.054   3.355   8.553  0.1014 -0.0852  1.9033
  174SAPI  H17Y19822   4.133   3.194   8.544 -0.8813  1.0662  0.9706
  174SAPI  C31819823   4.169   3.311   8.381 -0.0350 -0.0865 -0.1545
  174SAPI  H18X19824   4.269   3.281   8.346  1.0804  0.6522  2.2646
  174SAPI  H18Y19825   4.144   3.416   8.354 -0.0206  0.2127  0.9647
  174SAPI  H18Z19826   4.096   3.248   8.327  1.4874 -1.1065 -1.0368
  175SAPI   C1219827   6.042   1.197   6.041  0.6139 -0.3097  0.9414
  175SAPI    H219828   6.007   1.100   6.082 -2.3255  0.8502  1.2797
  175SAPI    O219829   6.137   1.174   5.938  0.6320  0.1382  0.1983
  175SAPI   HO219830   6.159   1.081   5.929  0.8262  0.2496 -0.4843
  175SAPI   C1319831   5.913   1.263   5.993 -0.4059 -0.2518 -0.3958
  175SAPI    H319832   5.834   1.261   6.071  0.1978 -2.6878  0.1973
  175SAPI    O319833   5.854   1.184   5.891 -0.0150 -0.0194  0.0558
  175SAPI   HO319834   5.872   1.090   5.899  2.3563  0.5111  1.5430
  175SAPI   C1419835   5.937   1.402   5.945 -0.1617  0.3316  0.3406
  175SAPI    H419836   5.999   1.389   5.854 -1.5469 -2.5076 -0.2394
  175SAPI    O419837   5.812   1.467   5.905  0.2275  0.0342 -0.1580
  175SAPI   HO419838   5.755   1.402   5.862 -0.0183  0.4224 -0.4237
  175SAPI   C1519839   6.007   1.487   6.046 -0.1243  0.1629  0.0300
  175SAPI    H519840   5.932   1.506   6.125 -1.2274  0.3416 -1.0480
  175SAPI    O519841   6.027   1.623   6.004 -0.0057  0.0448  0.2626
  175SAPI   HO519842   5.944   1.650   5.964  0.2441  0.0918 -0.2287
  175SAPI   C1619843   6.134   1.428   6.095  0.2007 -0.1211 -0.8005
  175SAPI    H619844   6.205   1.429   6.010 -1.0869  3.3898 -1.9028
  175SAPI    O619845   6.191   1.509   6.196  0.1782 -0.2865  0.0634
  175SAPI   HO619846   6.277   1.468   6.205 -0.4135 -1.7962 -0.9675
  175SAPI   C1119847   6.106   1.281   6.148  0.3048 -0.5501 -0.4281
  175SAPI    H119848   6.035   1.291   6.233  2.5062 -0.2048  1.4174
  175SAPI     P19849   6.221   1.115   6.325 -0.2068  0.0721 -0.2280
  175SAPI   O1319850   6.334   1.021   6.312 -0.2512 -0.4868  1.2215
  175SAPI   O1419851   6.086   1.056   6.327 -0.6439 -0.4005 -0.2818
  175SAPI   O1219852   6.225   1.222   6.204 -0.5562  0.0632 -0.2045
  175SAPI   O1119853   6.225   1.218   6.448 -0.0658 -0.7106 -0.0657
  175SAPI    C119854   6.357   1.274   6.475  0.6756 -0.8036 -0.0833
  175SAPI    HA19855   6.429   1.277   6.391 -0.5315  2.0050 -1.0768
  175SAPI    HB19856   6.340   1.380   6.500 -1.2689 -0.8299 -1.2424
  175SAPI    C219857   6.417   1.198   6.595  0.1822  0.5835 -0.2613
  175SAPI    HS19858   6.443   1.092   6.575  0.0454  0.3943  0.5715
  175SAPI   O2119859   6.329   1.207   6.709 -0.6795 -0.3977  0.7100
  175SAPI   C2119860   6.261   1.096   6.732 -0.6074 -0.2557  0.0160
  175SAPI   O2219861   6.265   0.993   6.666 -0.3201 -0.1483 -0.4777
  175SAPI   C2219862   6.198   1.100   6.867 -0.6804 -0.3943  0.2287
  175SAPI   H2R19863   6.240   1.184   6.926 -0.6502  0.0064 -0.3620
  175SAPI   H2S19864   6.094   1.125   6.838 -0.4492  2.7193  1.8746
  175SAPI    C319865   6.555   1.262   6.630  0.3912  0.8189 -0.5639
  175SAPI    HX19866   6.532   1.362   6.673 -1.7433  0.3790 -0.6392
  175SAPI    HY19867   6.625   1.281   6.546 -0.4919 -0.5438 -1.6173
  175SAPI   O3119868   6.629   1.182   6.724  0.0510  0.3930  0.9783
  175SAPI   C3119869   6.716   1.102   6.681 -0.8344 -0.0570  1.0265
  175SAPI   O3219870   6.759   1.086   6.564  0.0315  0.0812 -0.4702
  175SAPI   C3219871   6.752   1.003   6.794 -0.1187  0.2433  0.0045
  175SAPI   H2X19872   6.786   1.073   6.874 -2.7907  0.7452  0.7474
  175SAPI   H2Y19873   6.836   0.940   6.757 -0.5880 -1.7864  2.2576
  175SAPI   C2319874   6.200   0.969   6.942 -0.6681 -0.2664  0.1150
  175SAPI   H3R19875   6.307   0.939   6.954 -0.3650  0.5310 -0.5371
  175SAPI   H3S19876   6.150   0.894   6.878  0.8255 -0.9107 -0.3317
  175SAPI   C2419877   6.138   0.973   7.085 -0.6302  0.5540  0.6495
  175SAPI   H4R19878   6.126   0.871   7.127 -0.9103 -0.1175 -1.0128
  175SAPI   H4S19879   6.036   1.017   7.077 -0.4795  0.8061  0.1011
  175SAPI   C2519880   6.220   1.061   7.173 -0.5193  0.0463 -0.0774
  175SAPI   H5R19881   6.232   1.166   7.140 -0.5136 -0.3632 -1.4089
  175SAPI   C2619882   6.278   1.027   7.288 -0.1279  0.9536  0.6600
  175SAPI   H6R19883   6.328   1.102   7.351  0.7915  1.1517 -0.2808
  175SAPI   C2719884   6.275   0.890   7.369  0.4554  0.1454  0.2838
  175SAPI   H7R19885   6.382   0.888   7.400  0.4085  3.4788  0.7924
  175SAPI   H7S19886   6.260   0.808   7.295 -2.0360 -0.3190  1.2530
  175SAPI   C2819887   6.183   0.874   7.487  0.0359 -0.3222 -0.1119
  175SAPI   H8R19888   6.084   0.826   7.475  1.0638 -2.6816  0.4297
  175SAPI   C2919889   6.206   0.917   7.612  0.7962 -0.8116 -0.1774
  175SAPI   H9R19890   6.121   0.916   7.682  0.1282 -2.3121 -0.9629
  175SAPI  C21019891   6.331   0.991   7.660  0.5022 -0.0281 -0.0400
  175SAPI  H10R19892   6.297   1.065   7.736 -0.6046 -0.3854 -0.1898
  175SAPI  H10S19893   6.378   1.050   7.579  1.9013 -1.2141 -0.1188
  175SAPI  C21119894   6.429   0.887   7.721 -0.5337 -0.1416  0.1729
  175SAPI  H11R19895   6.476   0.812   7.655  2.1909  2.9200 -1.5137
  175SAPI  C21219896   6.453   0.874   7.854  0.4394  0.2535 -0.7385
  175SAPI  H12R19897   6.509   0.789   7.895 -0.1942  0.0392 -0.3187
  175SAPI  C21319898   6.405   0.969   7.960  0.3198 -0.4537  0.6147
  175SAPI  H13R19899   6.294   0.969   7.958  0.2952  0.4203  1.4790
  175SAPI  H13S19900   6.431   1.073   7.929  1.5584 -0.8519  0.2907
  175SAPI  C21419901   6.459   0.942   8.103  0.0429  0.2388  0.8891
  175SAPI  H14R19902   6.517   0.850   8.119  0.6918 -0.0112 -2.6174
  175SAPI  C21519903   6.441   1.021   8.203  0.1502 -0.2591 -0.0642
  175SAPI  H15R19904   6.491   0.993   8.297 -0.3579 -1.2754 -0.0858
  175SAPI  C21619905   6.367   1.152   8.199 -0.3724 -0.4644 -0.6033
  175SAPI  H16R19906   6.327   1.177   8.098 -0.9100  0.0072 -0.2781
  175SAPI  H16S19907   6.446   1.225   8.227  0.8491 -2.0699  0.2267
  175SAPI  C21719908   6.253   1.180   8.298  0.4069  0.1378  0.3282
  175SAPI  H17R19909   6.177   1.100   8.286  0.2954  0.3195 -0.1535
  175SAPI  H17S19910   6.213   1.276   8.260 -0.1491 -0.4920 -0.7024
  175SAPI  C21819911   6.290   1.190   8.443 -0.9879 -0.5282  0.3058
  175SAPI  H18R19912   6.372   1.266   8.445  0.0837 -1.6794  0.4768
  175SAPI  H18S19913   6.345   1.101   8.480 -0.0871 -0.0123  0.2453
  175SAPI  C21919914   6.175   1.229   8.529 -0.3352  0.8857 -0.3836
  175SAPI  H19R19915   6.086   1.164   8.511 -0.0536  0.4792 -0.3165
  175SAPI  H19S19916   6.148   1.336   8.525 -1.7687  0.5256 -0.7770
  175SAPI  C22019917   6.221   1.216   8.680  0.3106  0.4954  0.0067
  175SAPI  H20R19918   6.195   1.120   8.729  0.7722  0.4501  0.1678
  175SAPI  H20S19919   6.170   1.292   8.742 -0.1946 -2.1439  2.9329
  175SAPI  H20T19920   6.331   1.229   8.673  0.6877 -3.3682 -3.0315
  175SAPI   C3319921   6.632   0.908   6.835  0.5226  0.7767 -0.0105
  175SAPI   H3X19922   6.667   0.805   6.812 -0.1929  0.4608  0.2723
  175SAPI   H3Y19923   6.542   0.947   6.782  0.9058  1.1218 -0.4096
  175SAPI   C3419924   6.602   0.921   6.989  0.3345 -0.6786 -0.5047
  175SAPI   H4X19925   6.528   0.840   7.009 -0.9620  1.0781  2.0580
  175SAPI   H4Y19926   6.545   1.013   7.008 -0.2958 -1.3137  0.7007
  175SAPI   C3519927   6.727   0.897   7.079 -0.2731  0.1316 -0.2066
  175SAPI   H5X19928   6.798   0.982   7.072  0.0947 -0.1832 -0.2995
  175SAPI   H5Y19929   6.779   0.809   7.036 -0.3879 -0.7545  1.4082
  175SAPI   C3619930   6.674   0.876   7.221  0.0143 -0.0761  0.0434
  175SAPI   H6X19931   6.609   0.787   7.237 -1.1632  1.1673  2.3953
  175SAPI   H6Y19932   6.615   0.960   7.262  0.1550 -1.6069  3.5550
  175SAPI   C3719933   6.792   0.855   7.322 -0.0177  0.0247 -0.4927
  175SAPI   H7X19934   6.860   0.943   7.325  0.3407 -0.2761  0.5548
  175SAPI   H7Y19935   6.859   0.771   7.292 -0.0776 -1.1387  2.5221
  175SAPI   C3819936   6.732   0.829   7.457 -0.0037  0.3274 -1.1815
  175SAPI   H8X19937   6.686   0.728   7.456 -0.3022  0.4691 -1.6192
  175SAPI   H8Y19938   6.660   0.912   7.471 -0.3373  0.0014 -0.9583
  175SAPI   C3919939   6.845   0.831   7.565  0.3646  0.5864  0.1545
  175SAPI   H9X19940   6.876   0.938   7.570 -0.6712  0.9410 -0.7311
  175SAPI   H9Y19941   6.936   0.775   7.536  0.1837  0.4948 -0.2384
  175SAPI  C31019942   6.793   0.810   7.707  0.4039 -0.5939  0.0227
  175SAPI  H10X19943   6.763   0.704   7.719  1.6915 -1.3102 -2.6770
  175SAPI  H10Y19944   6.703   0.874   7.721  2.0501  2.0964 -1.2734
  175SAPI  C31119945   6.889   0.830   7.830  0.3902  0.5440 -0.4090
  175SAPI  H11X19946   6.940   0.925   7.806 -1.8569  2.3129  1.5888
  175SAPI  H11Y19947   6.970   0.753   7.826 -0.2496 -0.1247 -0.6065
  175SAPI  C31219948   6.819   0.844   7.965  0.5143  0.0117 -0.4557
  175SAPI  H12X19949   6.784   0.744   8.001 -1.2245  1.3119  1.6223
  175SAPI  H12Y19950   6.726   0.902   7.948 -1.0525 -1.5157  2.3441
  175SAPI  C31319951   6.917   0.917   8.062  0.7083  0.3216  0.3541
  175SAPI  H13X19952   6.944   1.011   8.011 -1.5948 -0.3294 -2.2338
  175SAPI  H13Y19953   7.009   0.855   8.060  0.7988  0.4902 -2.3078
  175SAPI  C31419954   6.863   0.950   8.199 -0.2469  0.8215 -0.2237
  175SAPI  H14X19955   6.752   0.949   8.209 -0.3491  1.7415 -1.2647
  175SAPI  H14Y19956   6.902   1.048   8.233  0.5004  0.2152  0.7274
  175SAPI  C31519957   6.915   0.844   8.305  0.6870 -0.0079  0.0033
  175SAPI  H15X19958   6.904   0.748   8.251 -0.8541  0.6978 -0.9475
  175SAPI  H15Y19959   6.865   0.850   8.404  0.0357  1.1955 -0.3899
  175SAPI  C31619960   7.064   0.859   8.349 -0.2253 -0.0919 -0.2249
  175SAPI  H16X19961   7.112   0.868   8.249 -0.4921 -1.7067 -0.4952
  175SAPI  H16Y19962   7.097   0.763   8.393  0.5776  0.7657  1.0958
  175SAPI  C31719963   7.097   0.980   8.426 -0.5935 -0.9825 -0.9892
  175SAPI  H17X19964   7.031   0.988   8.515 -1.2351  0.1025 -1.5615
  175SAPI  H17Y19965   7.081   1.063   8.354  2.3278 -1.5679 -2.4141
  175SAPI  C31819966   7.245   0.990   8.462 -0.2116  0.7017 -0.5197
  175SAPI  H18X19967   7.310   0.956   8.379 -0.4154  0.6139 -0.6445
  175SAPI  H18Y19968   7.264   0.913   8.539  1.5642  0.6198 -1.0091
  175SAPI  H18Z19969   7.276   1.092   8.493 -0.1866  0.8776 -1.1163
  176SAPI   C1219970   5.865   6.427   6.315  0.2223  0.5692 -0.4372
  176SAPI    H219971   5.815   6.458   6.410  0.7562  2.4919 -0.7532
  176SAPI    O219972   5.816   6.300   6.298 -0.1470  0.4174  0.2751
  176SAPI   HO219973   5.807   6.259   6.384  0.3476  0.5611  0.3937
  176SAPI   C1319974   5.823   6.532   6.213  0.3111 -0.2912 -0.4277
  176SAPI    H319975   5.878   6.626   6.231  1.8066 -1.0140 -1.1225
  176SAPI    O319976   5.683   6.559   6.223  0.3762  0.1719 -0.3314
  176SAPI   HO319977   5.630   6.480   6.237 -2.7295  2.6232  2.6802
  176SAPI   C1419978   5.861   6.487   6.073 -0.8560  0.1943  0.5651
  176SAPI    H419979   5.814   6.388   6.056 -2.3840  0.9843  0.1316
  176SAPI    O419980   5.822   6.576   5.971 -0.2340 -0.3519 -0.6443
  176SAPI   HO419981   5.729   6.565   5.948 -0.9538  1.2239  1.3511
  176SAPI   C1519982   6.011   6.452   6.069 -0.2013  0.4607 -0.4098
  176SAPI    H519983   6.063   6.550   6.078  1.4402 -0.6306  3.2274
  176SAPI    O519984   6.046   6.397   5.938  0.1114 -0.3039  0.0750
  176SAPI   HO519985   6.000   6.315   5.921  2.4877 -1.6353 -0.2293
  176SAPI   C1619986   6.069   6.364   6.182  0.6665 -0.1457 -0.0090
  176SAPI    H619987   6.031   6.260   6.172 -0.6787  0.4129 -0.8777
  176SAPI    O619988   6.218   6.363   6.174  0.1379 -0.1837  0.1208
  176SAPI   HO619989   6.245   6.395   6.260 -0.8664 -3.8008  1.8905
  176SAPI   C1119990   6.018   6.414   6.316  0.0889 -1.0252  0.8833
  176SAPI    H119991   6.055   6.518   6.326 -1.0707 -0.2794 -2.2216
  176SAPI     P19992   6.188   6.383   6.520  0.2368 -0.0565 -0.3761
  176SAPI   O1319993   6.289   6.431   6.426 -0.5961 -0.4003 -0.4120
  176SAPI   O1419994   6.227   6.275   6.618 -0.4629 -0.7086 -0.0393
  176SAPI   O1219995   6.057   6.327   6.429  0.2456 -0.0760  0.2406
  176SAPI   O1119996   6.129   6.507   6.596  0.3054 -0.1728 -0.3803
  176SAPI    C119997   6.011   6.494   6.674  0.2052  0.8185 -0.2176
  176SAPI    HA19998   5.942   6.578   6.651  2.6886  3.2957  1.1377
  176SAPI    HB19999   5.959   6.397   6.656  1.0060  0.2348  0.5650
  176SAPI    C220000   6.036   6.504   6.827 -0.2296 -0.3819  0.3950
  176SAPI    HS20001   5.938   6.518   6.876 -1.3992  0.1786 -2.0242
  176SAPI   O2120002   6.123   6.618   6.861 -0.0548 -0.5967 -0.1990
  176SAPI   C2120003   6.070   6.744   6.871 -0.2248  0.4003 -0.5234
  176SAPI   O2220004   5.952   6.775   6.867 -0.3549  0.0201 -0.3900
  176SAPI   C2220005   6.177   6.841   6.905 -0.3677 -0.4772 -0.1901
  176SAPI   H2R20006   6.275   6.798   6.876  0.1654  0.6693 -0.1148
  176SAPI   H2S20007   6.151   6.937   6.856  1.4661  0.7496  1.1713
  176SAPI    C320008   6.098   6.373   6.886 -0.0243 -0.3480 -0.5476
  176SAPI    HX20009   6.196   6.348   6.841  0.0454  0.5562 -0.9162
  176SAPI    HY20010   6.028   6.298   6.843  1.1706 -1.4228 -0.6304
  176SAPI   O3120011   6.084   6.365   7.024  0.0182 -0.2362 -1.0239
  176SAPI   C3120012   6.186   6.432   7.086 -0.5454  0.2934  0.0873
  176SAPI   O3220013   6.289   6.467   7.033  0.5084  0.4952 -0.1031
  176SAPI   C3220014   6.164   6.445   7.239 -0.3955 -0.2750  0.1893
  176SAPI   H2X20015   6.183   6.550   7.271  0.5736 -0.5065  0.4045
  176SAPI   H2Y20016   6.241   6.377   7.282  0.9729  0.2348 -1.3753
  176SAPI   C2320017   6.177   6.870   7.056 -0.3347  0.0587 -0.4688
  176SAPI   H3R20018   6.172   6.770   7.106  2.8208 -0.6215 -1.4068
  176SAPI   H3S20019   6.085   6.914   7.100  0.2397  0.3545  0.4667
  176SAPI   C2420020   6.301   6.945   7.114  0.5897  0.4737  0.4909
  176SAPI   H4R20021   6.285   6.996   7.212 -0.1641 -1.2627  1.3022
  176SAPI   H4S20022   6.317   7.025   7.039  2.4883 -1.6561 -1.4497
  176SAPI   C2520023   6.428   6.862   7.107 -0.7009 -0.1063 -0.1402
  176SAPI   H5R20024   6.449   6.824   7.006 -4.3926 -0.2478 -0.9471
  176SAPI   C2620025   6.513   6.821   7.213  0.1922  0.7424  0.2788
  176SAPI   H6R20026   6.594   6.756   7.175 -0.8411 -1.5041  1.8069
  176SAPI   C2720027   6.505   6.854   7.360  0.1000  0.9309  0.3270
  176SAPI   H7R20028   6.525   6.962   7.379 -1.3526  1.1210  0.8515
  176SAPI   H7S20029   6.588   6.798   7.408 -2.1578 -1.1679  1.9016
  176SAPI   C2820030   6.371   6.814   7.427 -0.0851  0.6315  0.0983
  176SAPI   H8R20031   6.281   6.859   7.381 -0.3493  1.1983  1.1689
  176SAPI   C2920032   6.365   6.759   7.548  0.6516 -0.4196  0.4370
  176SAPI   H9R20033   6.267   6.734   7.591  0.3064 -1.1043 -0.7361
  176SAPI  C21020034   6.479   6.732   7.638 -0.0512 -0.8300 -0.7860
  176SAPI  H10R20035   6.562   6.798   7.603  0.0646 -0.0300  0.9662
  176SAPI  H10S20036   6.510   6.626   7.624  2.1542 -0.5554  1.6168
  176SAPI  C21120037   6.455   6.752   7.789  0.0354 -0.3825 -0.0756
  176SAPI  H11R20038   6.500   6.843   7.832  0.4901 -0.7377  0.2043
  176SAPI  C21220039   6.390   6.674   7.873 -0.3156  0.3953 -0.0191
  176SAPI  H12R20040   6.391   6.713   7.975  2.7606 -1.8758  0.8913
  176SAPI  C21320041   6.303   6.551   7.856 -0.3225 -0.7622  0.8029
  176SAPI  H13R20042   6.368   6.468   7.892 -1.2746 -2.1813 -0.6311
  176SAPI  H13S20043   6.283   6.520   7.751  3.2953 -1.8488  0.3415
  176SAPI  C21420044   6.175   6.554   7.921  0.0836  1.2359 -0.3910
  176SAPI  H14R20045   6.101   6.607   7.859 -1.4874  1.4473  1.6081
  176SAPI  C21520046   6.132   6.488   8.032 -0.3398  0.3460  0.2022
  176SAPI  H15R20047   6.025   6.477   8.054 -0.7363 -2.8123 -2.9475
  176SAPI  C21620048   6.225   6.407   8.116  0.0110  0.0411  0.4792
  176SAPI  H16R20049   6.261   6.321   8.056  0.7723 -0.0782  1.1003
  176SAPI  H16S20050   6.157   6.349   8.182  0.7390 -1.7370 -0.3111
  176SAPI  C21720051   6.335   6.471   8.191 -0.8618  0.0056 -0.7326
  176SAPI  H17R20052   6.308   6.568   8.236 -0.3156  0.8541 -2.1772
  176SAPI  H17S20053   6.420   6.495   8.123 -0.5378 -0.1628 -0.3904
  176SAPI  C21820054   6.410   6.377   8.291  0.2939  0.5979  0.3218
  176SAPI  H18R20055   6.461   6.298   8.233  2.0351  1.1985  0.9851
  176SAPI  H18S20056   6.338   6.320   8.352  0.1284 -0.2998 -0.7008
  176SAPI  C21920057   6.513   6.447   8.380 -0.1648 -0.6978 -0.1719
  176SAPI  H19R20058   6.572   6.370   8.434  1.5338  2.0784  2.1043
  176SAPI  H19S20059   6.455   6.506   8.454  1.1809  1.4592 -0.8072
  176SAPI  C22020060   6.615   6.539   8.301 -0.1477 -0.5098 -0.9199
  176SAPI  H20R20061   6.686   6.577   8.377 -1.2940  1.7853 -0.9750
  176SAPI  H20S20062   6.560   6.625   8.259  1.0675  1.9129  2.2760
  176SAPI  H20T20063   6.668   6.471   8.231  1.7376  0.1675 -0.1784
  176SAPI   C3320064   6.024   6.390   7.284 -0.2759  0.3020 -0.2587
  176SAPI   H3X20065   5.996   6.291   7.243 -1.4061  0.0414  1.1073
  176SAPI   H3Y20066   5.953   6.457   7.230 -0.2206 -1.4451 -2.5949
  176SAPI   C3420067   6.011   6.386   7.430  0.5329 -0.2259  0.6910
  176SAPI   H4X20068   5.902   6.384   7.455  0.6821  1.4366  1.6143
  176SAPI   H4Y20069   6.044   6.484   7.473  0.7283  1.1515 -2.4754
  176SAPI   C3520070   6.096   6.276   7.503  0.2284  0.7466  0.0872
  176SAPI   H5X20071   6.198   6.319   7.490 -0.0875  1.5076  0.1151
  176SAPI   H5Y20072   6.076   6.183   7.445 -2.4960  1.8907 -0.8627
  176SAPI   C3620073   6.060   6.248   7.646  0.6906 -0.5230 -0.3634
  176SAPI   H6X20074   5.953   6.226   7.661  0.5590 -0.6234 -1.4553
  176SAPI   H6Y20075   6.088   6.338   7.706  0.6590 -1.9566  1.8783
  176SAPI   C3720076   6.141   6.131   7.705  0.1315  0.9580  0.2902
  176SAPI   H7X20077   6.246   6.118   7.670  0.1575  1.6278  0.1193
  176SAPI   H7Y20078   6.090   6.043   7.661  2.7436 -0.2088 -0.5306
  176SAPI   C3820079   6.124   6.126   7.858  0.0766  0.6950  0.7269
  176SAPI   H8X20080   6.017   6.102   7.872  0.3130 -1.5185 -0.9883
  176SAPI   H8Y20081   6.149   6.217   7.916  1.1616  1.3246 -0.6923
  176SAPI   C3920082   6.209   6.005   7.928  0.2757  0.1002  0.1995
  176SAPI   H9X20083   6.319   6.012   7.911  0.1080  1.5543 -0.3826
  176SAPI   H9Y20084   6.186   5.901   7.897  0.5925  0.2151 -0.4414
  176SAPI  C31020085   6.198   6.010   8.079  1.0040  0.4754 -0.6255
  176SAPI  H10X20086   6.094   5.974   8.094  1.1933  0.1675 -0.0186
  176SAPI  H10Y20087   6.218   6.114   8.114 -3.4296  1.0604  0.4236
  176SAPI  C31120088   6.307   5.911   8.141 -0.1289 -0.7744 -0.0903
  176SAPI  H11X20089   6.363   5.867   8.056 -1.1210 -0.2865 -1.0143
  176SAPI  H11Y20090   6.248   5.824   8.177 -1.3586  0.4890  0.9626
  176SAPI  C31220091   6.400   5.967   8.249 -0.3125  0.5638  0.2023
  176SAPI  H12X20092   6.344   6.010   8.335  0.9330  0.6396  0.9909
  176SAPI  H12Y20093   6.469   6.042   8.204 -0.3387  1.0212  0.9208
  176SAPI  C31320094   6.476   5.842   8.309 -0.4368  0.2401 -0.2321
  176SAPI  H13X20095   6.483   5.765   8.229 -3.5647  0.2077 -0.5244
  176SAPI  H13Y20096   6.415   5.801   8.391 -0.8368  1.3144  0.0196
  176SAPI  C31420097   6.624   5.871   8.346 -0.1580  0.0659  0.6081
  176SAPI  H14X20098   6.668   5.773   8.375  0.4924  0.1522 -0.0743
  176SAPI  H14Y20099   6.622   5.935   8.437  2.5869  0.6068  0.3430
  176SAPI  C31520100   6.700   5.939   8.226 -0.1824 -1.0742 -0.6595
  176SAPI  H15X20101   6.655   6.039   8.209  1.9074  0.3412  1.7268
  176SAPI  H15Y20102   6.696   5.880   8.131  1.0759  0.0348 -1.4266
  176SAPI  C31620103   6.841   5.968   8.266 -0.5018  0.2640 -0.5734
  176SAPI  H16X20104   6.893   5.995   8.172 -1.1399 -2.6797 -1.8171
  176SAPI  H16Y20105   6.869   5.864   8.293 -1.0219  0.1491 -0.4729
  176SAPI  C31720106   6.874   6.057   8.386 -0.3206 -0.3580  0.3480
  176SAPI  H17X20107   6.831   6.017   8.480  0.7751 -1.1987  0.5082
  176SAPI  H17Y20108   6.839   6.162   8.380 -1.1880 -0.4409  3.2106
  176SAPI  C31820109   7.024   6.070   8.417  0.1452  0.2296  0.6032
  176SAPI  H18X20110   7.021   6.133   8.508 -0.6905 -1.0911  1.5047
  176SAPI  H18Y20111   7.087   6.113   8.336 -1.2337  1.8331  0.3336
  176SAPI  H18Z20112   7.058   5.968   8.443 -1.4754 -0.5230 -0.1706
  177SLPC     N20113   6.068   2.783  11.057 -0.8275  0.2525  0.7990
  177SLPC   C1320114   6.081   2.885  11.162 -0.0261  0.0280 -0.6116
  177SLPC  H13A20115   6.181   2.927  11.169  0.1210 -0.1462 -1.6056
  177SLPC  H13B20116   6.012   2.964  11.137  0.5485  1.4554  2.0790
  177SLPC  H13C20117   6.043   2.847  11.255  1.0455 -0.2961 -0.3002
  177SLPC   C1420118   5.919   2.752  11.033 -0.0269 -0.3114 -0.6880
  177SLPC  H14A20119   5.907   2.674  10.960  0.0933 -0.2700 -0.7520
  177SLPC  H14B20120   5.870   2.722  11.124 -0.6373  2.5755 -0.0129
  177SLPC  H14C20121   5.869   2.842  11.000  1.0288  0.0200 -1.4274
  177SLPC   C1520122   6.155   2.661  11.110  0.3085  0.1252 -0.2122
  177SLPC  H15A20123   6.257   2.696  11.115 -0.5104  2.7271 -0.9136
  177SLPC  H15B20124   6.118   2.623  11.204 -2.4100  1.9337 -0.5040
  177SLPC  H15C20125   6.148   2.578  11.040  0.2152  1.3732 -1.7213
  177SLPC   C1220126   6.134   2.838  10.925  0.3261  0.3989  0.2579
  177SLPC  H12A20127   6.170   2.754  10.868  0.0729 -0.0815  0.8029
  177SLPC  H12B20128   6.216   2.900  10.957 -0.3733  2.6071 -2.0219
  177SLPC   C1120129   6.036   2.921  10.830 -0.1554  0.0136 -0.2652
  177SLPC  H11A20130   5.963   2.860  10.773 -0.6787 -0.8345  1.2952
  177SLPC  H11B20131   6.098   2.971  10.752 -0.7990 -0.5988 -1.1870
  177SLPC     P20132   5.996   3.174  10.924  0.2246 -0.3226  0.0482
  177SLPC   O1320133   5.896   3.241  11.011 -0.3423 -0.1615 -0.6000
  177SLPC   O1420134   6.130   3.196  10.970 -0.1035 -0.5081  0.5162
  177SLPC   O1220135   5.964   3.017  10.907  0.5323 -0.0780 -0.4122
  177SLPC   O1120136   5.972   3.227  10.779  0.4915 -0.2916 -0.1812
  177SLPC    C120137   5.837   3.253  10.731 -0.4594 -0.5505 -0.0591
  177SLPC    HA20138   5.766   3.173  10.760 -0.6132 -1.3642 -2.5783
  177SLPC    HB20139   5.796   3.349  10.769  1.8310 -0.1960  1.6404
  177SLPC    C220140   5.830   3.278  10.575  0.6965 -0.3465  0.7615
  177SLPC    HS20141   5.834   3.176  10.531 -0.7122 -0.5587  1.1121
  177SLPC   O2120142   5.938   3.362  10.543 -0.1424 -0.4726 -0.4904
  177SLPC   C2120143   6.001   3.326  10.436  0.1621 -0.2400 -0.1861
  177SLPC   O2220144   5.971   3.237  10.357 -0.2042  0.6936  0.5706
  177SLPC   C2220145   6.128   3.406  10.439  0.5263  0.5246 -0.2951
  177SLPC   H2R20146   6.111   3.512  10.466  2.8524  0.2540  2.3777
  177SLPC   H2S20147   6.185   3.352  10.517 -0.2383 -2.9753 -2.0465
  177SLPC    C320148   5.684   3.344  10.529 -0.1796 -0.0344 -0.2692
  177SLPC    HX20149   5.673   3.446  10.574  1.6116 -0.1529  0.4993
  177SLPC    HY20150   5.604   3.282  10.575 -0.9094  1.3628  0.4040
  177SLPC   O3120151   5.665   3.335  10.385 -0.1605 -0.0294  0.2557
  177SLPC   C3120152   5.709   3.438  10.320  0.0431  0.3424  0.5779
  177SLPC   O3220153   5.759   3.536  10.375  0.0593 -0.2898  0.1055
  177SLPC   C3220154   5.698   3.419  10.166  0.5455  0.4757 -0.4091
  177SLPC   H2X20155   5.593   3.400  10.135 -0.0158  0.9362  1.1631
  177SLPC   H2Y20156   5.763   3.335  10.134 -2.5427 -1.7797 -0.9521
  177SLPC   C2320157   6.216   3.396  10.310 -0.6138  0.5193 -0.2418
  177SLPC   H3R20158   6.247   3.290  10.298  0.2482  0.9462 -1.9109
  177SLPC   H3S20159   6.308   3.450  10.341 -1.1057  0.2880  1.6827
  177SLPC   C2420160   6.161   3.443  10.175 -1.2210  0.5081  0.7338
  177SLPC   H4R20161   6.143   3.551  10.194 -1.2250  0.7041 -0.3234
  177SLPC   H4S20162   6.070   3.385  10.147 -0.2581  0.2542 -2.0481
  177SLPC   C2520163   6.282   3.414  10.072 -0.3096 -0.1715  0.1217
  177SLPC   H5R20164   6.289   3.304  10.062  0.0496  0.1904 -4.2053
  177SLPC   H5S20165   6.379   3.448  10.114 -0.1690  2.0397 -1.8510
  177SLPC   C2620166   6.243   3.472   9.939  0.5413  0.7435  0.0202
  177SLPC   H6R20167   6.248   3.582   9.953 -0.2146  0.7877 -0.0377
  177SLPC   H6S20168   6.144   3.444   9.899  0.4824 -1.0155  1.3702
  177SLPC   C2720169   6.341   3.420   9.828 -0.6290  0.4140 -0.5324
  177SLPC   H7R20170   6.333   3.310   9.820 -3.3888  0.5696 -0.4424
  177SLPC   H7S20171   6.450   3.443   9.834 -0.4577 -0.1537 -1.4080
  177SLPC   C2820172   6.296   3.477   9.693  0.1673 -0.3926 -0.5727
  177SLPC   H8R20173   6.292   3.588   9.698  4.5345 -0.1553 -0.2136
  177SLPC   H8S20174   6.196   3.437   9.665  0.3814 -1.2805 -0.0691
  177SLPC   C2920175   6.389   3.438   9.582 -0.1718  0.5117 -0.8469
  177SLPC   H9R20176   6.467   3.367   9.613  0.1730  0.9363 -0.7435
  177SLPC  C21020177   6.385   3.483   9.458 -0.2797 -0.4528 -0.4626
  177SLPC  H10R20178   6.466   3.452   9.391 -0.1833 -1.9044  0.3112
  177SLPC  C21120179   6.282   3.584   9.402 -0.7939  0.8435  0.0183
  177SLPC  H11R20180   6.242   3.556   9.302  0.3014 -3.9171  0.7871
  177SLPC  H11S20181   6.201   3.580   9.477 -0.8591  0.2473 -0.0818
  177SLPC  C21220182   6.349   3.719   9.406  0.1078  0.5532  0.0164
  177SLPC  H12R20183   6.353   3.765   9.506  0.3427 -0.4484  0.4768
  177SLPC  C21320184   6.388   3.781   9.298 -0.3611  0.2354 -0.0552
  177SLPC  H13R20185   6.436   3.880   9.305  2.3335 -1.0067 -0.4783
  177SLPC  C21420186   6.381   3.730   9.155 -0.2465  0.1598  0.6181
  177SLPC  H14R20187   6.376   3.821   9.092  0.4933  1.6686  2.7148
  177SLPC  H14S20188   6.281   3.686   9.136 -0.6951 -0.3414  3.8802
  177SLPC  C21520189   6.496   3.641   9.123  0.1858  0.3822  0.1223
  177SLPC  H15R20190   6.490   3.539   9.165 -0.1552 -0.2709 -1.4719
  177SLPC  H15S20191   6.585   3.688   9.170 -0.3776  0.2398  1.3494
  177SLPC  C21620192   6.513   3.629   8.971  0.1656  0.5357 -0.5545
  177SLPC  H16R20193   6.598   3.558   8.961 -0.7525 -0.3397 -2.4526
  177SLPC  H16S20194   6.544   3.721   8.917  2.0929  0.2796  0.1044
  177SLPC  C21720195   6.393   3.567   8.896  0.6259 -0.1663 -0.8705
  177SLPC  H17R20196   6.306   3.636   8.902  0.1612 -0.7920 -0.4022
  177SLPC  H17S20197   6.361   3.476   8.950  1.8264 -0.0525  0.0857
  177SLPC  C21820198   6.416   3.533   8.743 -0.2466  0.1611 -0.3900
  177SLPC  H18R20199   6.463   3.614   8.684 -0.5680 -0.5211 -1.5860
  177SLPC  H18S20200   6.314   3.513   8.703 -0.1956  0.3492 -0.6136
  177SLPC  H18T20201   6.468   3.435   8.737 -2.2082 -0.9030 -0.5074
  177SLPC   C3320202   5.754   3.543  10.093  0.2688  0.0545 -0.7706
  177SLPC   H3X20203   5.840   3.587  10.148  0.5297 -0.8035 -0.4890
  177SLPC   H3Y20204   5.681   3.626  10.088  1.0841  0.7976 -0.5119
  177SLPC   C3420205   5.801   3.525   9.944  0.0799 -0.4273 -0.3002
  177SLPC   H4X20206   5.745   3.445   9.891 -1.4248  0.3524  0.0883
  177SLPC   H4Y20207   5.908   3.498   9.958  0.5080  1.3582  0.0150
  177SLPC   C3520208   5.794   3.656   9.861 -0.6496 -0.3160  0.2259
  177SLPC   H5X20209   5.842   3.738   9.918 -1.4020  0.2350  0.0891
  177SLPC   H5Y20210   5.687   3.687   9.859  0.0426  2.2056  0.4403
  177SLPC   C3620211   5.861   3.650   9.728  0.5969  0.5979 -0.1753
  177SLPC   H6X20212   5.965   3.690   9.737  1.8247 -1.9011 -2.4478
  177SLPC   H6Y20213   5.809   3.713   9.653 -2.9634  0.4052  2.0263
  177SLPC   C3720214   5.871   3.501   9.678  0.3081 -0.3410  0.1377
  177SLPC   H7X20215   5.765   3.468   9.673 -0.3206  1.4986  0.9879
  177SLPC   H7Y20216   5.920   3.437   9.754 -1.6068  0.0538  1.7258
  177SLPC   C3820217   5.935   3.484   9.541  0.1093  0.6488 -0.0641
  177SLPC   H8X20218   5.976   3.381   9.530  1.1565  0.8718  1.5329
  177SLPC   H8Y20219   6.014   3.561   9.526  1.9066 -1.4161 -1.5212
  177SLPC   C3920220   5.830   3.493   9.428  0.4491  0.4402  0.1065
  177SLPC   H9X20221   5.790   3.596   9.429 -2.5486 -0.6245 -2.0672
  177SLPC   H9Y20222   5.745   3.426   9.453 -0.6651  1.7168 -0.1943
  177SLPC  C31020223   5.888   3.450   9.296  0.1916 -0.4033 -0.1042
  177SLPC  H10X20224   5.915   3.343   9.310  1.1741 -0.0785  0.5408
  177SLPC  H10Y20225   5.980   3.508   9.273  0.8665 -0.8116  1.4927
  177SLPC  C31120226   5.783   3.471   9.179  0.9455 -0.1588 -1.0464
  177SLPC  H11X20227   5.682   3.472   9.225  0.6122 -0.9498 -1.7383
  177SLPC  H11Y20228   5.782   3.384   9.110 -0.9485 -1.1566  0.2022
  177SLPC  C31220229   5.801   3.593   9.095  0.1118 -0.3041  0.1321
  177SLPC  H12X20230   5.870   3.580   9.009 -0.8773 -1.0310 -0.5712
  177SLPC  H12Y20231   5.841   3.677   9.155  0.1674 -0.4463  0.2974
  177SLPC  C31320232   5.662   3.642   9.043 -0.7182  0.2120  0.3338
  177SLPC  H13X20233   5.604   3.553   9.012 -1.0359  1.2902 -2.3153
  177SLPC  H13Y20234   5.669   3.705   8.952 -0.1997 -1.2993 -0.7104
  177SLPC  C31420235   5.581   3.722   9.145 -0.0419 -0.4636  0.4619
  177SLPC  H14X20236   5.568   3.669   9.242 -0.9556 -0.9839  0.0516
  177SLPC  H14Y20237   5.486   3.741   9.091 -0.0616 -1.8866 -0.0227
  177SLPC  C31520238   5.640   3.864   9.157 -0.5023  0.0221  0.1224
  177SLPC  H15X20239   5.661   3.917   9.061 -1.2146 -2.1040 -1.2337
  177SLPC  H15Y20240   5.734   3.872   9.216 -0.3861  1.5137 -0.2283
  177SLPC  C31620241   5.541   3.957   9.220  0.1603  0.0443 -0.0624
  177SLPC  H16X20242   5.486   3.911   9.305  1.6100  1.2918  1.5857
  177SLPC  H16Y20243   5.465   3.986   9.144 -1.1820 -2.9871  0.0475
  177SLPC  C31720244   5.611   4.090   9.264 -0.2531  0.2264  0.6315
  177SLPC  H17X20245   5.701   4.060   9.321 -1.4881  0.2084  2.6317
  177SLPC  H17Y20246   5.546   4.129   9.346  3.4750  0.7807  3.4813
  177SLPC  C31820247   5.636   4.194   9.155  0.1808 -0.0838  0.1999
  177SLPC  H18X20248   5.664   4.298   9.184 -1.1404  0.7069 -1.2368
  177SLPC  H18Y20249   5.541   4.192   9.097  0.6183 -2.2296 -0.4717
  177SLPC  H18Z20250   5.712   4.165   9.079  0.5506  0.8638  0.1971
  178SLPC     N20251   1.152   4.955  11.284 -0.0090 -0.1551 -0.3630
  178SLPC   C1320252   1.029   4.952  11.374 -0.8727  0.5832 -0.1367
  178SLPC  H13A20253   0.989   5.052  11.382  2.8892  2.2062 -0.9454
  178SLPC  H13B20254   0.959   4.878  11.337  0.2761  0.7106 -2.6647
  178SLPC  H13C20255   1.067   4.921  11.470 -1.0365 -2.1480 -0.9062
  178SLPC   C1420256   1.207   4.816  11.283  0.0617  0.1525 -0.3104
  178SLPC  H14A20257   1.294   4.806  11.220  1.3521 -0.7611  1.5600
  178SLPC  H14B20258   1.242   4.800  11.384 -0.8076 -0.6043 -0.1338
  178SLPC  H14C20259   1.132   4.740  11.268 -1.6479  1.8494 -0.5865
  178SLPC   C1520260   1.239   5.061  11.340 -0.0162 -0.0965  0.1299
  178SLPC  H15A20261   1.287   5.104  11.253 -0.6273  0.2116 -0.0564
  178SLPC  H15B20262   1.181   5.137  11.390  0.1199  1.4561 -1.9685
  178SLPC  H15C20263   1.313   5.024  11.410  1.1745  2.4908  0.2890
  178SLPC   C1220264   1.116   4.997  11.149  0.0228 -0.1044 -0.0307
  178SLPC  H12A20265   1.053   5.085  11.148  0.9939  0.5868 -1.5818
  178SLPC  H12B20266   1.056   4.915  11.114 -1.0209  1.0312 -0.9203
  178SLPC   C1120267   1.238   5.030  11.051  0.2505  0.8911  0.4135
  178SLPC  H11A20268   1.192   5.017  10.950 -0.6388  1.7303  0.7089
  178SLPC  H11B20269   1.323   4.961  11.067  1.6638  3.0426  2.3099
  178SLPC     P20270   1.184   5.286  11.026  0.0314 -0.1789  0.5421
  178SLPC   O1320271   1.057   5.270  11.100 -0.0821  0.0561 -0.1141
  178SLPC   O1420272   1.254   5.416  11.038 -0.2128 -0.0982 -0.3727
  178SLPC   O1220273   1.277   5.164  11.077 -0.6571 -0.3102  0.7341
  178SLPC   O1120274   1.162   5.250  10.875  0.1548 -0.3255  0.6036
  178SLPC    C120275   1.273   5.262  10.794 -0.5510  0.4793  0.3461
  178SLPC    HA20276   1.321   5.361  10.778  0.8346  0.0860  1.9241
  178SLPC    HB20277   1.355   5.193  10.820  0.7512  1.7341 -0.3552
  178SLPC    C220278   1.231   5.209  10.649 -0.9381  0.2765 -0.4155
  178SLPC    HS20279   1.328   5.176  10.605 -0.1951 -0.9705  2.1030
  178SLPC   O2120280   1.170   5.313  10.574 -0.2012 -0.4344  0.1340
  178SLPC   C2120281   1.234   5.352  10.462 -0.0657 -0.3011 -0.4631
  178SLPC   O2220282   1.322   5.289  10.404  0.8957  0.0632  0.2745
  178SLPC   C2220283   1.176   5.484  10.425 -0.2910  0.1106  0.3285
  178SLPC   H2R20284   1.066   5.468  10.428 -0.1781 -1.1374 -1.2977
  178SLPC   H2S20285   1.205   5.556  10.504  0.6735 -0.0484  0.1257
  178SLPC    C320286   1.131   5.094  10.653  0.0261 -0.0074 -0.2562
  178SLPC    HX20287   1.038   5.132  10.701 -0.0424 -0.8989  0.3261
  178SLPC    HY20288   1.165   5.021  10.729  0.5236  1.0619  0.5774
  178SLPC   O3120289   1.091   5.048  10.521 -0.0582  0.8529  0.2109
  178SLPC   C3120290   1.180   4.969  10.462  0.1530 -0.1688  0.8841
  178SLPC   O3220291   1.282   4.922  10.510 -0.3951  0.7059 -0.0063
  178SLPC   C3220292   1.138   4.946  10.317  0.0424  0.6994  0.2093
  178SLPC   H2X20293   1.057   4.873  10.338 -1.3950  2.2627  0.2334
  178SLPC   H2Y20294   1.212   4.896  10.251 -0.4043  2.1205 -1.3812
  178SLPC   C2320295   1.213   5.538  10.289 -0.0763  0.5408  0.6808
  178SLPC   H3R20296   1.322   5.531  10.267  0.0228  2.3931  0.4857
  178SLPC   H3S20297   1.183   5.644  10.271  1.9816  1.1221  0.5067
  178SLPC   C2420298   1.137   5.458  10.178  0.0005 -0.2426 -0.1647
  178SLPC   H4R20299   1.030   5.478  10.198  0.9822  1.9555  3.1607
  178SLPC   H4S20300   1.145   5.348  10.193  0.5581 -0.1475  0.2366
  178SLPC   C2520301   1.171   5.514  10.038  0.1082  0.0881 -0.8743
  178SLPC   H5R20302   1.268   5.468  10.010  0.1249 -0.3259 -0.1676
  178SLPC   H5S20303   1.189   5.624  10.033  3.9092 -0.5141 -2.6433
  178SLPC   C2620304   1.061   5.470   9.939  0.3723 -0.4370  0.3560
  178SLPC   H6R20305   0.978   5.543   9.943  1.9080  1.4508 -1.3797
  178SLPC   H6S20306   1.031   5.364   9.956 -0.5841 -0.3655 -0.8325
  178SLPC   C2720307   1.117   5.470   9.790  0.5315 -0.4710 -0.0854
  178SLPC   H7R20308   1.203   5.399   9.789 -0.4987 -1.7357 -1.7291
  178SLPC   H7S20309   1.153   5.569   9.755 -0.9006 -0.0148 -0.3156
  178SLPC   C2820310   1.028   5.395   9.691  0.0121  0.0722  0.2021
  178SLPC   H8R20311   0.991   5.314   9.758  0.1441 -0.2208 -0.0788
  178SLPC   H8S20312   1.088   5.350   9.609  0.4309  2.0198 -0.5893
  178SLPC   C2920313   0.911   5.474   9.632  0.2756  1.0323 -0.3478
  178SLPC   H9R20314   0.832   5.491   9.707  0.0551  0.3531 -0.4232
  178SLPC  C21020315   0.913   5.512   9.506 -0.2012  0.7247  0.2307
  178SLPC  H10R20316   0.813   5.535   9.468 -0.8730 -0.7591  1.0660
  178SLPC  C21120317   1.008   5.482   9.389  0.5512  0.0709  0.0170
  178SLPC  H11R20318   1.111   5.452   9.418  1.6892  1.0614 -2.7957
  178SLPC  H11S20319   1.025   5.575   9.331  0.9597  1.1360  1.8099
  178SLPC  C21220320   0.952   5.367   9.303  0.7920  0.2511  0.2842
  178SLPC  H12R20321   0.858   5.317   9.334 -1.5392  2.4807 -2.9102
  178SLPC  C21320322   0.999   5.318   9.191 -0.8765 -0.3602  0.0208
  178SLPC  H13R20323   0.954   5.236   9.134  0.6571 -1.1511 -0.0532
  178SLPC  C21420324   1.118   5.387   9.131  0.2965 -0.2303 -0.1712
  178SLPC  H14R20325   1.181   5.314   9.076 -0.5400 -0.5351 -0.7378
  178SLPC  H14S20326   1.190   5.435   9.200  1.1031 -0.5523 -0.7896
  178SLPC  C21520327   1.067   5.482   9.021  0.1406  0.3167 -0.0411
  178SLPC  H15R20328   1.009   5.556   9.082  0.1674 -0.9794  1.5768
  178SLPC  H15S20329   0.990   5.449   8.948 -1.6932 -0.1804  2.0538
  178SLPC  C21620330   1.179   5.539   8.939  0.4793 -0.3092 -0.3028
  178SLPC  H16R20331   1.236   5.457   8.890  2.7662 -1.3750  3.9494
  178SLPC  H16S20332   1.258   5.581   9.004 -0.5015  2.8355 -1.0667
  178SLPC  C21720333   1.130   5.640   8.844  0.3926  0.5143  0.5189
  178SLPC  H17R20334   1.227   5.691   8.825  0.4227  0.0908 -0.4827
  178SLPC  H17S20335   1.057   5.714   8.884 -0.5083 -0.4212  0.6179
  178SLPC  C21820336   1.082   5.582   8.714  0.1386 -0.4753 -0.6147
  178SLPC  H18R20337   1.157   5.525   8.655 -0.9815 -1.3307 -1.2438
  178SLPC  H18S20338   1.049   5.662   8.645 -1.7224 -0.7526 -0.0785
  178SLPC  H18T20339   0.997   5.511   8.724  0.7459 -1.3007 -1.2129
  178SLPC   C3320340   1.063   5.062  10.245 -0.9983  0.5283  0.2816
  178SLPC   H3X20341   1.139   5.139  10.219 -1.2582  0.3105 -1.2161
  178SLPC   H3Y20342   0.990   5.113  10.310  0.0789  1.7991  0.4974
  178SLPC   C3420343   0.998   5.003  10.123  0.0252  0.3614  0.5479
  178SLPC   H4X20344   0.904   4.947  10.144  0.6437 -1.2535 -0.7914
  178SLPC   H4Y20345   1.055   4.924  10.070  0.2147  0.3467  0.7759
  178SLPC   C3520346   0.951   5.107  10.016  0.2414  0.5348  0.4168
  178SLPC   H5X20347   1.048   5.136   9.968  0.3915 -0.5071  0.0810
  178SLPC   H5Y20348   0.899   5.194  10.061 -2.4305 -0.4379 -0.6885
  178SLPC   C3620349   0.846   5.065   9.912 -0.7188 -0.0499  0.2849
  178SLPC   H6X20350   0.788   5.151   9.870 -0.7291  0.5038  1.4078
  178SLPC   H6Y20351   0.765   5.007   9.961 -0.5354  0.2762  0.9695
  178SLPC   C3720352   0.898   4.993   9.792 -0.3961  0.0904 -0.8741
  178SLPC   H7X20353   0.929   4.889   9.816  3.1521  1.6038  1.5259
  178SLPC   H7Y20354   0.995   5.045   9.776  0.1850 -1.3008 -1.9823
  178SLPC   C3820355   0.806   4.993   9.673 -0.7091  0.4218  0.9159
  178SLPC   H8X20356   0.765   5.095   9.655 -0.1319  0.1318 -2.4490
  178SLPC   H8Y20357   0.719   4.928   9.693 -0.0870 -1.3035 -1.7247
  178SLPC   C3920358   0.873   4.942   9.542  1.2319  0.1348 -0.1076
  178SLPC   H9X20359   0.799   4.934   9.459  0.6522  1.1939  0.2957
  178SLPC   H9Y20360   0.917   4.845   9.575 -1.0971 -0.6152  0.8748
  178SLPC  C31020361   0.988   5.037   9.492 -0.1372 -0.4255  0.4752
  178SLPC  H10X20362   1.067   5.050   9.570  1.9593  0.0388 -1.6848
  178SLPC  H10Y20363   0.945   5.133   9.457 -1.1823 -0.9247  0.3631
  178SLPC  C31120364   1.051   4.971   9.371  0.1946  0.0827 -0.3213
  178SLPC  H11X20365   1.078   4.866   9.395  2.1756  1.0773  2.0474
  178SLPC  H11Y20366   1.148   5.024   9.358  1.3234 -1.9105 -0.2905
  178SLPC  C31220367   0.968   4.963   9.243 -0.5422  0.2415 -0.6240
  178SLPC  H12X20368   0.915   5.061   9.243 -0.4909  0.2671  0.3704
  178SLPC  H12Y20369   0.883   4.893   9.260 -0.8064  0.4633 -1.0238
  178SLPC  C31320370   1.039   4.949   9.110  0.2765  0.2704  0.4839
  178SLPC  H13X20371   1.097   4.854   9.112 -3.3266 -1.9915  0.3434
  178SLPC  H13Y20372   1.120   5.026   9.101 -1.8842  2.4217 -1.3397
  178SLPC  C31420373   0.944   4.968   8.990 -0.2808 -0.3863 -0.3610
  178SLPC  H14X20374   0.858   5.035   9.008 -1.2711 -2.0308  1.0706
  178SLPC  H14Y20375   0.897   4.872   8.962 -2.4824  0.1271  1.4775
  178SLPC  C31520376   1.026   5.012   8.870  0.1488  0.1346 -0.2263
  178SLPC  H15X20377   1.063   5.115   8.891 -3.6648  1.7504 -1.1327
  178SLPC  H15Y20378   1.118   4.950   8.867 -0.4004 -0.6016 -2.9549
  178SLPC  C31620379   0.970   5.002   8.732 -0.8558  0.4653 -0.1993
  178SLPC  H16X20380   0.946   4.897   8.707  0.3317 -0.0677  0.8639
  178SLPC  H16Y20381   1.048   5.052   8.671  0.7521  0.5005  1.8345
  178SLPC  C31720382   0.836   5.074   8.719 -0.0891 -0.4350 -0.1797
  178SLPC  H17X20383   0.848   5.170   8.775  0.3247 -0.8416  0.4299
  178SLPC  H17Y20384   0.764   5.012   8.775 -0.1109 -0.4617 -0.2358
  178SLPC  C31820385   0.802   5.094   8.573 -0.5298  0.7951  0.2500
  178SLPC  H18X20386   0.804   4.991   8.530  0.7975  0.4458  1.1237
  178SLPC  H18Y20387   0.876   5.146   8.509 -0.8634  1.1404  0.1439
  178SLPC  H18Z20388   0.707   5.150   8.559 -0.6521  0.7554  0.9086
  179SLPC     N20389   2.525   2.111  10.397  0.1310 -0.0191  0.4263
  179SLPC   C1320390   2.642   2.165  10.469  0.5903  0.1791  0.5184
  179SLPC  H13A20391   2.655   2.122  10.567 -1.0343  0.4910  0.8774
  179SLPC  H13B20392   2.729   2.134  10.412 -1.7639  1.5841 -4.0886
  179SLPC  H13C20393   2.651   2.272  10.459 -1.5479  0.3254 -0.1679
  179SLPC   C1420394   2.519   2.187  10.265  0.6081  0.0688  0.4613
  179SLPC  H14A20395   2.417   2.171  10.234  0.6425  1.9907 -0.7213
  179SLPC  H14B20396   2.528   2.293  10.282  1.6852  0.6078 -3.1884
  179SLPC  H14C20397   2.580   2.154  10.183  0.4315  1.2018 -0.1324
  179SLPC   C1520398   2.397   2.130  10.479 -0.3103  0.3435  0.8757
  179SLPC  H15A20399   2.314   2.094  10.420 -0.7330 -1.0448  2.2687
  179SLPC  H15B20400   2.404   2.078  10.574 -1.4420 -0.7347  0.3773
  179SLPC  H15C20401   2.380   2.236  10.491  1.9777  0.8452 -0.0709
  179SLPC   C1220402   2.543   1.962  10.372 -0.3014  0.5437  0.7166
  179SLPC  H12A20403   2.472   1.928  10.298  0.2932  2.0539 -0.5652
  179SLPC  H12B20404   2.509   1.906  10.458  1.1405  0.2164  1.0968
  179SLPC   C1120405   2.681   1.911  10.321 -0.0812 -0.4271 -0.8837
  179SLPC  H11A20406   2.694   1.968  10.226 -0.3580  0.9260 -0.1185
  179SLPC  H11B20407   2.677   1.802  10.303 -1.3731 -0.5433  0.0929
  179SLPC     P20408   2.934   1.903  10.396  0.0982 -0.4955 -0.4482
  179SLPC   O1320409   3.015   1.948  10.512 -0.0110 -0.8393  0.2246
  179SLPC   O1420410   2.947   1.760  10.361 -0.0788  0.5119  0.1885
  179SLPC   O1220411   2.783   1.941  10.416 -0.5145  0.3462 -1.0284
  179SLPC   O1120412   2.980   1.982  10.269  0.1441 -0.1482  0.1235
  179SLPC    C120413   3.025   2.113  10.269 -0.1512 -0.9408 -0.7076
  179SLPC    HA20414   3.042   2.153  10.371  2.2842  0.1750 -1.5048
  179SLPC    HB20415   3.126   2.121  10.223  0.3162 -0.9754  0.3038
  179SLPC    C220416   2.937   2.202  10.186  0.4284 -0.0300  0.4488
  179SLPC    HS20417   2.835   2.184  10.224 -0.1283  1.3360 -0.3714
  179SLPC   O2120418   2.954   2.163  10.050 -0.0542  0.0911  0.5294
  179SLPC   C2120419   2.845   2.129   9.984  0.0295 -0.1359 -0.1708
  179SLPC   O2220420   2.732   2.128  10.035 -0.2459  0.1337 -0.3210
  179SLPC   C2220421   2.881   2.083   9.845 -0.1760 -0.6781 -0.2278
  179SLPC   H2R20422   2.992   2.087   9.836 -0.0414 -3.1329  0.0824
  179SLPC   H2S20423   2.850   1.977   9.831  2.2896 -1.0637 -3.3426
  179SLPC    C320424   2.974   2.354  10.212  0.4037  0.6274 -0.0826
  179SLPC    HX20425   3.079   2.371  10.180  0.6522 -0.8743 -0.1019
  179SLPC    HY20426   2.951   2.380  10.318 -1.8931 -0.8037 -0.1895
  179SLPC   O3120427   2.894   2.438  10.130 -0.2754 -0.8320  0.3588
  179SLPC   C3120428   2.770   2.462  10.183  0.1907  0.2446 -0.4087
  179SLPC   O3220429   2.725   2.423  10.289  0.2816 -0.3187 -0.1772
  179SLPC   C3220430   2.700   2.551  10.083 -0.7286 -0.3352  0.3174
  179SLPC   H2X20431   2.747   2.652  10.088 -1.1625 -0.1590  0.9521
  179SLPC   H2Y20432   2.593   2.563  10.109 -1.0839  0.4114 -1.4085
  179SLPC   C2320433   2.824   2.174   9.738 -0.9992  0.7442 -0.4640
  179SLPC   H3R20434   2.873   2.273   9.753  2.0206 -1.2267  3.5982
  179SLPC   H3S20435   2.714   2.186   9.744 -1.0042  0.0071  0.9173
  179SLPC   C2420436   2.879   2.144   9.590 -0.6857  0.3738 -1.0472
  179SLPC   H4R20437   2.844   2.053   9.537 -0.9893 -0.3069  0.3222
  179SLPC   H4S20438   2.990   2.132   9.591 -0.9511 -2.2785 -0.6123
  179SLPC   C2520439   2.842   2.250   9.490  0.2024 -0.1968  0.1804
  179SLPC   H5R20440   2.881   2.340   9.542  1.6539 -0.3084 -0.6775
  179SLPC   H5S20441   2.732   2.261   9.491  0.2425  0.1008  1.0511
  179SLPC   C2620442   2.891   2.232   9.346 -0.5668 -0.5959  0.4610
  179SLPC   H6R20443   2.853   2.131   9.320 -1.4482 -0.3033  0.6174
  179SLPC   H6S20444   3.002   2.233   9.339 -0.5653  0.0284  0.4886
  179SLPC   C2720445   2.845   2.341   9.246 -0.1717 -0.4733 -0.1210
  179SLPC   H7R20446   2.893   2.440   9.257 -1.5052  0.1815  0.0031
  179SLPC   H7S20447   2.737   2.354   9.269 -0.1986  1.2730 -1.0902
  179SLPC   C2820448   2.882   2.290   9.111  0.1683  0.4493  0.3759
  179SLPC   H8R20449   2.854   2.184   9.096 -2.3135  1.1017  0.1266
  179SLPC   H8S20450   2.992   2.295   9.102  0.3188  0.4951  2.1277
  179SLPC   C2920451   2.819   2.372   9.003  0.1865  0.7772  0.3874
  179SLPC   H9R20452   2.711   2.392   9.013 -0.1238  0.1053 -1.3934
  179SLPC  C21020453   2.888   2.447   8.912  0.6823  0.3830  0.3143
  179SLPC  H10R20454   2.828   2.490   8.830 -4.3308 -4.1115  1.3475
  179SLPC  C21120455   3.041   2.453   8.895  0.4362 -0.5280 -0.3446
  179SLPC  H11R20456   3.062   2.415   8.793  1.9822  0.4920 -0.4330
  179SLPC  H11S20457   3.104   2.386   8.957  0.3960 -0.6358 -0.4197
  179SLPC  C21220458   3.103   2.590   8.884 -0.4403  0.4471 -0.5996
  179SLPC  H12R20459   3.115   2.637   8.983  0.4116  0.2774 -0.6247
  179SLPC  C21320460   3.137   2.658   8.771 -0.1431  0.2723  0.4277
  179SLPC  H13R20461   3.186   2.756   8.775  1.9413 -0.7658  1.0247
  179SLPC  C21420462   3.107   2.602   8.635 -0.1599 -0.3147  0.3028
  179SLPC  H14R20463   3.020   2.534   8.623  0.5086 -1.0040 -0.7053
  179SLPC  H14S20464   3.187   2.537   8.594  0.4774  1.4841 -1.3798
  179SLPC  C21520465   3.087   2.709   8.526  0.0692 -0.0279 -0.5796
  179SLPC  H15R20466   3.003   2.776   8.553 -0.3924  0.0981 -2.2683
  179SLPC  H15S20467   3.059   2.656   8.433  1.8397 -1.0685 -0.5334
  179SLPC  C21620468   3.201   2.811   8.515  0.5310  0.6331  0.8938
  179SLPC  H16R20469   3.297   2.758   8.502  0.1214 -0.6953  3.1587
  179SLPC  H16S20470   3.211   2.883   8.599  1.7417  2.0099 -0.3931
  179SLPC  C21720471   3.191   2.903   8.395  0.3273  0.6338  0.5122
  179SLPC  H17R20472   3.098   2.961   8.417 -1.0117 -1.9260  1.8978
  179SLPC  H17S20473   3.180   2.854   8.296  0.1001  0.3026  0.6977
  179SLPC  C21820474   3.319   2.992   8.385  0.6664  0.1125  0.4611
  179SLPC  H18R20475   3.295   3.085   8.440 -0.5596  0.9766 -1.5006
  179SLPC  H18S20476   3.358   3.012   8.283  1.3066  0.6598  0.8065
  179SLPC  H18T20477   3.399   2.937   8.439  1.6920 -0.1559 -1.2859
  179SLPC   C3320478   2.709   2.507   9.932 -1.1069  0.4740 -0.8814
  179SLPC   H3X20479   2.680   2.399   9.937  0.5701  0.0524  0.3997
  179SLPC   H3Y20480   2.816   2.513   9.904 -0.6347 -0.6818  0.5671
  179SLPC   C3420481   2.615   2.578   9.833  0.5417  0.5942  0.0548
  179SLPC   H4X20482   2.674   2.668   9.807  2.1220 -0.7665 -1.1492
  179SLPC   H4Y20483   2.522   2.604   9.888  0.4858 -1.3049  0.9249
  179SLPC   C3520484   2.568   2.504   9.702  0.2672  0.3382 -0.5422
  179SLPC   H5X20485   2.492   2.428   9.731  3.4889 -2.0432  2.1548
  179SLPC   H5Y20486   2.650   2.458   9.644  0.9916  0.9467 -0.0206
  179SLPC   C3620487   2.497   2.590   9.599  0.8702 -0.0423 -0.0102
  179SLPC   H6X20488   2.572   2.667   9.567  0.3213 -0.3012 -1.9834
  179SLPC   H6Y20489   2.402   2.627   9.643  0.1093 -1.6569 -0.2634
  179SLPC   C3720490   2.457   2.520   9.469  0.3206  0.0636 -0.2455
  179SLPC   H7X20491   2.409   2.421   9.484  0.6427 -0.1854 -0.8318
  179SLPC   H7Y20492   2.549   2.508   9.408 -0.1878 -0.6186 -0.8797
  179SLPC   C3820493   2.354   2.604   9.391  0.3229 -0.2931  0.2447
  179SLPC   H8X20494   2.417   2.685   9.348  3.1115 -1.2095  2.4437
  179SLPC   H8Y20495   2.287   2.645   9.469  0.8468 -1.5861  1.3949
  179SLPC   C3920496   2.263   2.531   9.295  0.2472 -0.8353 -0.1609
  179SLPC   H9X20497   2.190   2.613   9.277  1.0535 -0.3371 -1.1790
  179SLPC   H9Y20498   2.207   2.450   9.347 -2.5483  2.0670  1.5580
  179SLPC  C31020499   2.333   2.484   9.169 -0.0609  0.0666 -0.0645
  179SLPC  H10X20500   2.405   2.406   9.200 -0.8426 -0.5809  0.1218
  179SLPC  H10Y20501   2.369   2.577   9.119 -0.6513 -0.1874 -0.9752
  179SLPC  C31120502   2.227   2.420   9.074  0.2940  0.1432  0.3913
  179SLPC  H11X20503   2.177   2.336   9.127  1.6546 -0.3122  0.9684
  179SLPC  H11Y20504   2.278   2.365   8.992  2.3500 -0.5895  2.1054
  179SLPC  C31220505   2.120   2.524   9.023 -0.2340  0.5511  0.0998
  179SLPC  H12X20506   2.155   2.629   9.016 -0.1465  0.3198 -3.5306
  179SLPC  H12Y20507   2.050   2.523   9.110  0.2342 -1.8541  0.4819
  179SLPC  C31320508   2.038   2.476   8.904 -0.2128  0.7765  0.0937
  179SLPC  H13X20509   1.966   2.560   8.914 -0.3324  0.6414  0.3841
  179SLPC  H13Y20510   1.987   2.385   8.941  1.7115  0.4113  1.9814
  179SLPC  C31420511   2.119   2.453   8.778 -1.1265 -0.1260  0.0649
  179SLPC  H14X20512   2.158   2.349   8.785 -1.1273  0.0624  3.4167
  179SLPC  H14Y20513   2.206   2.517   8.755 -1.8603  0.4609 -1.1426
  179SLPC  C31520514   2.038   2.476   8.648  0.5539 -0.6122  0.1190
  179SLPC  H15X20515   2.002   2.580   8.664  1.7418 -0.7006  3.8612
  179SLPC  H15Y20516   1.944   2.417   8.653 -0.1778  0.4060 -1.4708
  179SLPC  C31620517   2.113   2.440   8.516  0.0871  0.1411  0.1106
  179SLPC  H16X20518   2.140   2.333   8.527  0.4418  0.3240  1.0508
  179SLPC  H16Y20519   2.208   2.497   8.512  0.3165  0.2554  4.5164
  179SLPC  C31720520   2.028   2.465   8.388  0.0583 -0.2803  0.6845
  179SLPC  H17X20521   1.925   2.430   8.410 -0.6259  1.0861 -0.3155
  179SLPC  H17Y20522   2.063   2.396   8.308  1.7921  1.8536 -0.4498
  179SLPC  C31820523   2.029   2.607   8.332  0.6072  0.4656  0.0704
  179SLPC  H18X20524   2.132   2.640   8.305  0.1865 -1.0629 -3.5756
  179SLPC  H18Y20525   1.988   2.677   8.408 -3.3367  0.4546 -1.9743
  179SLPC  H18Z20526   1.959   2.613   8.247 -0.2543 -2.0683  0.5617
  180SLPC     N20527   3.181   6.542  11.292  0.3011 -0.1963  0.1183
  180SLPC   C1320528   3.281   6.434  11.270 -0.1820 -0.0230 -0.2586
  180SLPC  H13A20529   3.235   6.340  11.244  1.1124 -0.3223 -1.5121
  180SLPC  H13B20530   3.346   6.464  11.189  0.5052  0.7731  0.5780
  180SLPC  H13C20531   3.344   6.420  11.357 -0.9240  1.4298  0.5272
  180SLPC   C1420532   3.244   6.677  11.339 -0.5238  0.6204 -0.2142
  180SLPC  H14A20533   3.297   6.650  11.430 -0.4773  1.1443 -0.0850
  180SLPC  H14B20534   3.326   6.714  11.279  0.6933 -0.9327  0.4432
  180SLPC  H14C20535   3.174   6.751  11.376 -3.3004 -1.8579 -0.3465
  180SLPC   C1520536   3.078   6.503  11.394 -0.3568 -0.4429 -0.3848
  180SLPC  H15A20537   2.988   6.563  11.396 -1.6377 -2.2946  0.2965
  180SLPC  H15B20538   3.051   6.401  11.370  2.0020 -0.6589 -2.2297
  180SLPC  H15C20539   3.115   6.507  11.495 -0.2371  3.0820 -0.5155
  180SLPC   C1220540   3.109   6.576  11.168  0.2412 -0.2483  0.7485
  180SLPC  H12A20541   3.033   6.651  11.183 -2.5214 -2.5603 -1.2515
  180SLPC  H12B20542   3.052   6.488  11.141 -2.4506  2.0837 -1.4515
  180SLPC   C1120543   3.179   6.623  11.042 -0.7727 -0.0992 -0.4365
  180SLPC  H11A20544   3.225   6.722  11.062 -1.5980  0.6996 -2.3023
  180SLPC  H11B20545   3.092   6.640  10.974 -0.5927  0.2530 -0.5752
  180SLPC     P20546   3.212   6.431  10.864  0.0675  0.2645  0.3470
  180SLPC   O1320547   3.331   6.343  10.831 -0.0181 -0.0417 -0.8421
  180SLPC   O1420548   3.081   6.368  10.903 -0.0678 -0.3515  0.2198
  180SLPC   O1220549   3.271   6.529  10.982  0.0192 -0.4421  0.7919
  180SLPC   O1120550   3.189   6.539  10.748 -0.0552 -0.1229  0.1834
  180SLPC    C120551   3.301   6.613  10.699  0.1931  0.0601 -0.1580
  180SLPC    HA20552   3.365   6.660  10.777  0.2171 -0.6554  0.2554
  180SLPC    HB20553   3.360   6.533  10.651  0.2683  0.9260 -1.5530
  180SLPC    C220554   3.260   6.724  10.595  0.3235 -0.4388 -0.1217
  180SLPC    HS20555   3.180   6.781  10.647 -1.3138 -0.4658 -2.5575
  180SLPC   O2120556   3.215   6.666  10.468  0.5413 -0.2599  0.1054
  180SLPC   C2120557   3.146   6.745  10.390 -0.9170 -0.0550  0.3387
  180SLPC   O2220558   3.118   6.861  10.423 -1.2608 -0.3293 -0.0375
  180SLPC   C2220559   3.113   6.670  10.255  0.4043 -0.9057  0.5047
  180SLPC   H2R20560   3.200   6.609  10.223  0.8781  0.0303 -0.0437
  180SLPC   H2S20561   3.034   6.595  10.273  2.0801 -2.7517  0.4168
  180SLPC    C320562   3.380   6.825  10.574 -0.0579  0.1805  0.2267
  180SLPC    HX20563   3.390   6.882  10.669  1.7771 -1.1320  0.8459
  180SLPC    HY20564   3.355   6.904  10.500  1.6335  0.2635 -0.2668
  180SLPC   O3120565   3.495   6.749  10.527 -0.1475 -0.4967 -0.3818
  180SLPC   C3120566   3.591   6.830  10.476  0.2774 -0.1535 -0.3817
  180SLPC   O3220567   3.578   6.943  10.446  0.3599 -0.8096  0.1376
  180SLPC   C3220568   3.713   6.742  10.449  0.4229  0.2329 -0.8238
  180SLPC   H2X20569   3.697   6.648  10.506  0.4298  0.2413 -0.8087
  180SLPC   H2Y20570   3.798   6.787  10.504 -0.3217  1.7137 -0.8732
  180SLPC   C2320571   3.069   6.757  10.135 -0.3357  0.1488  0.2754
  180SLPC   H3R20572   3.158   6.803  10.086  1.8080 -2.4692  1.5709
  180SLPC   H3S20573   3.000   6.840  10.161  0.0064  0.1119  1.2931
  180SLPC   C2420574   2.988   6.686  10.017 -0.0925  0.5219  0.3378
  180SLPC   H4R20575   2.893   6.650  10.061  0.4787  0.5740  1.6343
  180SLPC   H4S20576   3.051   6.599   9.988 -1.5828 -0.2266 -0.6609
  180SLPC   C2520577   2.973   6.787   9.900 -0.7569 -0.2273  0.3316
  180SLPC   H5R20578   3.072   6.836   9.890 -0.9836  0.1079 -0.3352
  180SLPC   H5S20579   2.895   6.863   9.923 -1.1179  0.2924 -2.4499
  180SLPC   C2620580   2.919   6.736   9.765 -0.3691  0.0165 -0.7056
  180SLPC   H6R20581   2.828   6.674   9.778  0.3767 -1.8003 -3.8578
  180SLPC   H6S20582   2.998   6.670   9.723  1.3772  0.5458  1.6172
  180SLPC   C2720583   2.886   6.853   9.677  0.6250  0.1678  0.7761
  180SLPC   H7R20584   2.973   6.923   9.680  0.9021 -0.0578 -1.4072
  180SLPC   H7S20585   2.793   6.902   9.714  0.1387  0.2850 -0.5811
  180SLPC   C2820586   2.857   6.819   9.524  0.5449  0.0801 -0.0716
  180SLPC   H8R20587   2.800   6.898   9.471 -1.0923 -0.8149  0.3288
  180SLPC   H8S20588   2.784   6.735   9.524 -1.9366  2.1586 -2.1605
  180SLPC   C2920589   2.980   6.776   9.448  0.2390  0.4220  0.3655
  180SLPC   H9R20590   3.034   6.689   9.488  2.5357  1.3391 -0.6479
  180SLPC  C21020591   3.032   6.840   9.349  0.7146 -0.5320  0.2616
  180SLPC  H10R20592   3.114   6.793   9.294  0.7491 -0.7742  0.5175
  180SLPC  C21120593   2.973   6.969   9.297 -0.9376  0.9215 -0.1977
  180SLPC  H11R20594   2.925   7.028   9.378  1.1946 -1.2685  2.7495
  180SLPC  H11S20595   2.886   6.951   9.231 -1.8318 -0.6591  1.3648
  180SLPC  C21220596   3.068   7.066   9.233 -0.3694 -0.3484 -0.1481
  180SLPC  H12R20597   3.091   7.157   9.290 -0.4015 -0.3277 -0.1684
  180SLPC  C21320598   3.139   7.047   9.121 -0.4318 -0.0643 -0.1030
  180SLPC  H13R20599   3.204   7.132   9.096  0.0546 -0.3585  0.1293
  180SLPC  C21420600   3.142   6.930   9.023  0.1555 -0.3097  0.0600
  180SLPC  H14R20601   3.107   6.838   9.075 -1.5143  0.0696 -0.3799
  180SLPC  H14S20602   3.250   6.912   9.002  0.3852  1.9903 -0.8450
  180SLPC  C21520603   3.075   6.983   8.893  0.3127 -0.4794 -0.9921
  180SLPC  H15R20604   2.990   7.046   8.925 -0.0812 -2.0756  1.2363
  180SLPC  H15S20605   3.022   6.899   8.843  0.6748 -0.7780 -0.8790
  180SLPC  C21620606   3.168   7.038   8.782  0.1886 -0.3549  0.4086
  180SLPC  H16R20607   3.241   6.961   8.747 -0.5676  0.6444 -3.6012
  180SLPC  H16S20608   3.222   7.121   8.832  1.3631 -0.3202 -0.8670
  180SLPC  C21720609   3.094   7.092   8.659  0.1328  0.0849 -0.9361
  180SLPC  H17R20610   3.031   7.177   8.693 -0.2617  0.0658 -1.6117
  180SLPC  H17S20611   3.021   7.016   8.624 -0.9922 -0.0602  1.5903
  180SLPC  C21820612   3.181   7.123   8.540  0.0053  0.9129  0.4238
  180SLPC  H18R20613   3.129   7.178   8.458  0.5118 -1.0539 -1.2644
  180SLPC  H18S20614   3.203   7.022   8.501 -0.9814  0.6588  0.5216
  180SLPC  H18T20615   3.271   7.184   8.563  0.4071 -0.0262  1.3678
  180SLPC   C3320616   3.751   6.717  10.300 -0.6181  0.4301  0.3742
  180SLPC   H3X20617   3.844   6.658  10.313 -2.6857 -2.8426  1.1427
  180SLPC   H3Y20618   3.788   6.812  10.257  1.5138 -1.7876 -2.8581
  180SLPC   C3420619   3.642   6.647  10.220 -0.0885  0.0697 -0.0118
  180SLPC   H4X20620   3.575   6.733  10.199  0.7598  0.9756  0.9416
  180SLPC   H4Y20621   3.589   6.571  10.282  0.5147 -0.8928 -0.6610
  180SLPC   C3520622   3.701   6.590  10.091 -0.2331  0.2354  0.8144
  180SLPC   H5X20623   3.634   6.524  10.033  1.2610  1.2744 -2.2199
  180SLPC   H5Y20624   3.790   6.526  10.112  0.2642  0.6483 -0.0081
  180SLPC   C3620625   3.727   6.704   9.990  0.0873  0.7702  0.2859
  180SLPC   H6X20626   3.820   6.746  10.033 -0.6279  0.1893  2.4291
  180SLPC   H6Y20627   3.634   6.765  10.000 -0.6456 -0.3114  0.2282
  180SLPC   C3720628   3.755   6.652   9.853  0.4127  1.2666  0.5729
  180SLPC   H7X20629   3.832   6.573   9.866  0.9190  1.4999 -0.9531
  180SLPC   H7Y20630   3.795   6.739   9.797 -0.2940  1.2169 -0.0224
  180SLPC   C3820631   3.634   6.604   9.775 -0.4003  0.3439  0.2631
  180SLPC   H8X20632   3.564   6.689   9.761 -1.4940 -0.5443  0.2953
  180SLPC   H8Y20633   3.578   6.523   9.825 -1.8491  0.0070 -1.8103
  180SLPC   C3920634   3.672   6.557   9.632 -0.0884 -0.6991  0.1164
  180SLPC   H9X20635   3.597   6.490   9.586  0.8344 -2.7216  1.5065
  180SLPC   H9Y20636   3.759   6.488   9.637  0.9547  0.6187  0.5439
  180SLPC  C31020637   3.710   6.661   9.532 -0.0363  0.1506 -0.2948
  180SLPC  H10X20638   3.796   6.721   9.568 -1.6051  1.8083  0.7742
  180SLPC  H10Y20639   3.626   6.734   9.527 -2.1057 -2.0735  0.9173
  180SLPC  C31120640   3.736   6.607   9.391 -0.9008 -0.2112 -0.5048
  180SLPC  H11X20641   3.641   6.583   9.339 -1.4679  1.5805 -0.3336
  180SLPC  H11Y20642   3.789   6.510   9.402  0.6113  0.5485 -0.9654
  180SLPC  C31220643   3.812   6.710   9.302  0.0660 -0.7284  0.4234
  180SLPC  H12X20644   3.897   6.745   9.364  1.8464 -0.7065 -1.9648
  180SLPC  H12Y20645   3.745   6.798   9.296 -0.4303 -1.1695 -0.6099
  180SLPC  C31320646   3.856   6.668   9.167  0.0664 -0.9177  0.2069
  180SLPC  H13X20647   3.953   6.614   9.172 -0.2940 -1.4474  1.7574
  180SLPC  H13Y20648   3.870   6.761   9.108 -1.4607  0.0353  1.3282
  180SLPC  C31420649   3.762   6.578   9.091 -0.1904 -0.2623  0.7527
  180SLPC  H14X20650   3.682   6.639   9.043  0.8495  2.0293  1.8397
  180SLPC  H14Y20651   3.710   6.511   9.163  0.7982 -1.0358  0.7463
  180SLPC  C31520652   3.821   6.497   8.982  0.3859  0.8626  0.0903
  180SLPC  H15X20653   3.747   6.418   8.958  1.4321 -0.2118  0.3123
  180SLPC  H15Y20654   3.921   6.460   9.016 -0.1083 -1.1039 -0.5523
  180SLPC  C31620655   3.840   6.589   8.851  0.0702 -0.1098 -1.1365
  180SLPC  H16X20656   3.913   6.668   8.878 -1.6550  0.9406  0.5991
  180SLPC  H16Y20657   3.748   6.646   8.825  0.7490  1.0997 -0.9103
  180SLPC  C31720658   3.904   6.518   8.734 -0.3147  0.3431  0.1743
  180SLPC  H17X20659   3.833   6.450   8.682  1.0930 -0.8659 -0.2355
  180SLPC  H17Y20660   3.963   6.438   8.784  0.7944  0.5730 -0.7231
  180SLPC  C31820661   4.004   6.608   8.645 -0.0507 -0.4162  0.1212
  180SLPC  H18X20662   3.949   6.689   8.594 -0.3392  0.1536  1.3138
  180SLPC  H18Y20663   4.051   6.538   8.573  0.1269 -0.6753  0.4867
  180SLPC  H18Z20664   4.089   6.645   8.705  1.4054 -2.0179 -0.9156
  181SLPC     N20665   6.290   4.222  11.170 -0.1184 -0.1184  0.0299
  181SLPC   C1320666   6.276   4.186  11.308 -0.1435 -0.5857  0.0789
  181SLPC  H13A20667   6.360   4.144  11.361  0.4121  0.7798  0.3056
  181SLPC  H13B20668   6.249   4.270  11.371 -0.6640 -1.0351  0.4653
  181SLPC  H13C20669   6.201   4.109  11.320  0.5994 -1.1477  1.2140
  181SLPC   C1420670   6.383   4.341  11.169  0.8900 -0.0505  0.0717
  181SLPC  H14A20671   6.471   4.317  11.226  0.8072  0.0242  0.2311
  181SLPC  H14B20672   6.410   4.365  11.067  0.8718 -2.2484 -0.4873
  181SLPC  H14C20673   6.331   4.422  11.218 -0.4029 -0.4018 -0.6886
  181SLPC   C1520674   6.166   4.270  11.116 -1.0360  0.2494  0.3607
  181SLPC  H15A20675   6.082   4.206  11.140 -0.7718 -0.9408 -1.7118
  181SLPC  H15B20676   6.137   4.371  11.140  0.1180  1.1676 -1.9735
  181SLPC  H15C20677   6.163   4.265  11.008 -0.9547  1.0063  0.3223
  181SLPC   C1220678   6.345   4.102  11.083 -0.2560  0.1987 -0.4659
  181SLPC  H12A20679   6.293   4.009  11.102 -1.1220  1.2339  2.4633
  181SLPC  H12B20680   6.440   4.089  11.132  0.8937  0.3249 -2.6036
  181SLPC   C1120681   6.378   4.120  10.936 -0.4087  0.3409 -0.5246
  181SLPC  H11A20682   6.282   4.146  10.887 -0.6737 -0.3924 -0.4079
  181SLPC  H11B20683   6.418   4.023  10.898  1.0483  0.6439  0.1984
  181SLPC     P20684   6.627   4.205  10.898  0.3770  0.2819  0.0492
  181SLPC   O1320685   6.696   4.336  10.904 -0.8156  0.1498  0.2705
  181SLPC   O1420686   6.673   4.110  11.000 -0.2773  0.2254 -0.3415
  181SLPC   O1220687   6.468   4.232  10.916  0.3669 -0.0603 -0.1456
  181SLPC   O1120688   6.646   4.146  10.751  0.2868  0.0038 -0.1831
  181SLPC    C120689   6.552   4.169  10.648  0.2398 -0.0914  0.9592
  181SLPC    HA20690   6.459   4.112  10.671 -1.8466  2.8657  0.1706
  181SLPC    HB20691   6.537   4.279  10.641  0.9011 -0.0672 -0.1892
  181SLPC    C220692   6.606   4.128  10.510  0.5594  0.5619 -0.1032
  181SLPC    HS20693   6.695   4.193  10.495  2.4088 -2.1426 -1.1937
  181SLPC   O2120694   6.507   4.148  10.405 -0.1272  0.1548  0.2737
  181SLPC   C2120695   6.505   4.255  10.341 -0.5635  0.3242 -0.4887
  181SLPC   O2220696   6.580   4.354  10.365 -0.2136 -0.5863  0.1145
  181SLPC   C2220697   6.405   4.255  10.232 -0.7792 -0.1869 -0.7186
  181SLPC   H2R20698   6.378   4.148  10.217 -1.2566 -0.2781  0.7439
  181SLPC   H2S20699   6.318   4.315  10.265 -0.1214  0.9426 -0.9976
  181SLPC    C320700   6.659   3.982  10.504 -0.2984  0.2007  0.3215
  181SLPC    HX20701   6.567   3.925  10.526 -1.5175  1.2874 -1.8974
  181SLPC    HY20702   6.734   3.962  10.584  0.0632  0.9499  0.1746
  181SLPC   O3120703   6.714   3.952  10.377  0.2844  0.2564  0.5349
  181SLPC   C3120704   6.840   4.004  10.358 -0.0638  0.0321 -0.7724
  181SLPC   O3220705   6.909   4.048  10.446 -0.2477  0.0960 -0.4367
  181SLPC   C3220706   6.882   3.992  10.213  0.1970  0.0718 -0.6965
  181SLPC   H2X20707   6.793   3.959  10.155 -1.0464  1.7132  0.2551
  181SLPC   H2Y20708   6.962   3.915  10.206  1.5107  1.5872 -3.2121
  181SLPC   C2320709   6.471   4.308  10.105 -0.3564  0.7804 -0.2049
  181SLPC   H3R20710   6.510   4.410  10.126 -1.9766  0.9745  2.0706
  181SLPC   H3S20711   6.394   4.314  10.026 -1.0808  0.2535  0.4488
  181SLPC   C2420712   6.576   4.218  10.045 -0.5097 -0.2018  0.2355
  181SLPC   H4R20713   6.529   4.119  10.027  0.0194 -0.4519  0.2444
  181SLPC   H4S20714   6.656   4.194  10.118  1.2670 -0.6180 -1.8276
  181SLPC   C2520715   6.630   4.283   9.915 -0.6053  0.2450  0.3051
  181SLPC   H5R20716   6.724   4.228   9.895 -1.3147 -0.9859  0.2870
  181SLPC   H5S20717   6.661   4.385   9.946 -0.2878  1.6071 -4.1312
  181SLPC   C2620718   6.533   4.281   9.790 -0.5298 -0.3999  0.6410
  181SLPC   H6R20719   6.442   4.343   9.807  0.4832  1.3798 -0.2686
  181SLPC   H6S20720   6.494   4.178   9.776 -0.0082 -0.6261  0.8346
  181SLPC   C2720721   6.599   4.318   9.661  0.8037  0.3945 -0.0311
  181SLPC   H7R20722   6.702   4.275   9.662  0.4622 -0.4074  0.6600
  181SLPC   H7S20723   6.600   4.426   9.634  0.0193  0.0163 -1.6914
  181SLPC   C2820724   6.522   4.244   9.539 -0.0089  0.7667  1.0792
  181SLPC   H8R20725   6.513   4.135   9.559 -1.6306  0.4366 -1.2890
  181SLPC   H8S20726   6.588   4.257   9.450 -0.3335  0.6182  0.8200
  181SLPC   C2920727   6.386   4.300   9.505 -0.2587 -0.1247  0.3161
  181SLPC   H9R20728   6.323   4.322   9.592  1.3264  1.4830  1.0940
  181SLPC  C21020729   6.334   4.323   9.384 -0.1128 -0.7731  0.5994
  181SLPC  H10R20730   6.232   4.365   9.378  0.0692 -0.1935  1.4281
  181SLPC  C21120731   6.400   4.299   9.247  0.0938  0.2496  0.0745
  181SLPC  H11R20732   6.381   4.196   9.209  0.6547 -0.0677  0.6354
  181SLPC  H11S20733   6.511   4.310   9.249  0.4951 -2.9210 -1.1955
  181SLPC  C21220734   6.348   4.403   9.152  0.7947  0.4492  0.3869
  181SLPC  H12R20735   6.354   4.507   9.187  2.6104 -0.3487  2.5320
  181SLPC  C21320736   6.305   4.372   9.026 -0.0565 -0.2519 -0.5042
  181SLPC  H13R20737   6.277   4.458   8.963 -1.5043 -0.4465 -0.1539
  181SLPC  C21420738   6.296   4.237   8.960  0.1778 -0.6280 -0.1050
  181SLPC  H14R20739   6.267   4.161   9.036 -2.5478  0.4671  0.0347
  181SLPC  H14S20740   6.388   4.193   8.918 -0.5719 -1.1222 -1.2491
  181SLPC  C21520741   6.212   4.259   8.840  0.4827 -0.7378 -0.0981
  181SLPC  H15R20742   6.204   4.170   8.775 -0.2630 -0.3078 -0.6107
  181SLPC  H15S20743   6.247   4.329   8.762 -1.7187 -0.4739 -0.8758
  181SLPC  C21620744   6.065   4.300   8.866 -0.1163 -0.6047  0.0331
  181SLPC  H16R20745   6.046   4.408   8.849 -2.6015 -0.8159  1.2770
  181SLPC  H16S20746   6.045   4.283   8.974  1.1772 -1.8796  0.0949
  181SLPC  C21720747   5.948   4.223   8.803  0.4606  0.6335 -0.1402
  181SLPC  H17R20748   5.935   4.125   8.853 -0.4780  1.1160  0.5865
  181SLPC  H17S20749   5.964   4.200   8.696  0.5490  1.3890 -0.2986
  181SLPC  C21820750   5.821   4.296   8.813 -0.5215  0.1986 -0.1806
  181SLPC  H18R20751   5.736   4.246   8.761 -0.5667 -1.4529  1.4016
  181SLPC  H18S20752   5.844   4.391   8.761 -0.9316  0.3196 -0.1410
  181SLPC  H18T20753   5.783   4.312   8.916  0.6725 -1.5548  0.5622
  181SLPC   C3320754   6.946   4.124  10.156  0.0082  0.1170 -0.3783
  181SLPC   H3X20755   7.029   4.159  10.222  1.8340 -3.5788 -0.5797
  181SLPC   H3Y20756   6.873   4.208  10.156 -0.9327 -0.6965 -0.4788
  181SLPC   C3420757   6.995   4.120  10.014 -0.2408 -0.6923  0.1882
  181SLPC   H4X20758   6.934   4.047   9.957 -0.7909 -2.0382  2.3943
  181SLPC   H4Y20759   7.097   4.074  10.013 -1.5313 -3.6319 -2.9447
  181SLPC   C3520760   7.013   4.247   9.932  0.0948 -0.6429 -0.4087
  181SLPC   H5X20761   7.103   4.299   9.971 -0.5811 -2.4041  3.7685
  181SLPC   H5Y20762   6.924   4.314   9.928  2.3867  2.4113 -2.6594
  181SLPC   C3620763   7.026   4.230   9.778  0.2519 -0.8837 -0.2757
  181SLPC   H6X20764   6.933   4.185   9.735 -0.7185  1.2646 -0.5126
  181SLPC   H6Y20765   7.116   4.166   9.769  0.6684 -0.3593  0.1648
  181SLPC   C3720766   7.036   4.363   9.704 -0.5351  0.8585  0.4021
  181SLPC   H7X20767   7.113   4.435   9.741 -0.6831  0.9745  0.4879
  181SLPC   H7Y20768   6.942   4.420   9.724 -1.1438 -0.4706  1.4369
  181SLPC   C3820769   7.073   4.348   9.554  0.1393  0.1061 -0.6412
  181SLPC   H8X20770   7.139   4.259   9.540  0.4934  0.2354  0.1759
  181SLPC   H8Y20771   7.138   4.432   9.523 -1.1445  1.1101 -0.6377
  181SLPC   C3920772   6.955   4.339   9.453  0.3829  0.2240 -0.3777
  181SLPC   H9X20773   6.873   4.400   9.496 -2.0790 -1.8463 -2.0307
  181SLPC   H9Y20774   6.914   4.236   9.448  0.9997 -0.1297  1.4078
  181SLPC  C31020775   6.997   4.388   9.319 -0.4686 -0.0778  0.6978
  181SLPC  H10X20776   7.012   4.498   9.318  1.5347 -0.3282  0.7814
  181SLPC  H10Y20777   6.906   4.393   9.257 -1.0545 -1.0188  1.4649
  181SLPC  C31120778   7.095   4.295   9.250  0.1702 -0.0712  0.6240
  181SLPC  H11X20779   7.045   4.196   9.248  1.0011 -0.4878 -0.9468
  181SLPC  H11Y20780   7.186   4.280   9.312 -1.5388 -4.2660  2.3184
  181SLPC  C31220781   7.135   4.335   9.104 -0.6637 -0.0556  0.5036
  181SLPC  H12X20782   7.204   4.421   9.108 -1.0436  0.4120 -1.9257
  181SLPC  H12Y20783   7.050   4.373   9.043 -1.2510 -1.9993  0.0765
  181SLPC  C31320784   7.201   4.221   9.028  0.0968  0.0589  0.1168
  181SLPC  H13X20785   7.128   4.141   9.003  0.7448 -0.4602 -0.1311
  181SLPC  H13Y20786   7.273   4.174   9.099 -0.7594 -0.8454  0.3969
  181SLPC  C31420787   7.279   4.267   8.898 -0.4805 -0.4077 -0.1719
  181SLPC  H14X20788   7.339   4.361   8.905 -0.2206 -0.6428  0.9164
  181SLPC  H14Y20789   7.208   4.300   8.819 -1.3299 -0.3746  0.6011
  181SLPC  C31520790   7.369   4.151   8.847 -0.1525 -0.5997  0.0372
  181SLPC  H15X20791   7.456   4.118   8.908  0.9207 -1.0376 -1.6900
  181SLPC  H15Y20792   7.405   4.179   8.746  0.0218  0.0191  0.2692
  181SLPC  C31620793   7.288   4.020   8.824 -0.3468 -0.2178  0.3881
  181SLPC  H16X20794   7.199   4.038   8.760 -0.6816  0.6258  1.0693
  181SLPC  H16Y20795   7.251   3.972   8.917 -0.4389 -0.5438  0.1801
  181SLPC  C31720796   7.360   3.910   8.755 -0.5800  0.3520 -0.2698
  181SLPC  H17X20797   7.449   3.878   8.812 -3.2724 -1.4039  3.1235
  181SLPC  H17Y20798   7.394   3.944   8.654 -1.4145  0.3865 -0.5452
  181SLPC  C31820799   7.285   3.772   8.749  0.2573 -0.4226  0.6088
  181SLPC  H18X20800   7.286   3.711   8.841 -1.3879 -0.0108  0.9104
  181SLPC  H18Y20801   7.320   3.712   8.663 -0.1580  0.5532 -0.2660
  181SLPC  H18Z20802   7.177   3.780   8.722  0.7312 -1.9618 -1.9374
  182SLPC     N20803   5.143   5.573  10.806 -0.2521  0.3740 -0.8211
  182SLPC   C1320804   5.115   5.716  10.790  0.3939 -0.0842  0.0051
  182SLPC  H13A20805   5.191   5.757  10.724 -0.0934  1.3332  0.3262
  182SLPC  H13B20806   5.016   5.728  10.751 -0.2366 -2.4569  0.7530
  182SLPC  H13C20807   5.132   5.766  10.883 -1.4520  2.2266 -0.8726
  182SLPC   C1420808   5.045   5.513  10.910 -0.1092 -0.1406 -0.3795
  182SLPC  H14A20809   5.069   5.421  10.960  1.0358  0.9379  1.0973
  182SLPC  H14B20810   5.033   5.584  10.990  0.5132  0.5426 -0.8834
  182SLPC  H14C20811   4.945   5.513  10.869  0.0699  1.5616 -0.8564
  182SLPC   C1520812   5.279   5.550  10.852  0.2513  0.4353 -0.5934
  182SLPC  H15A20813   5.361   5.553  10.782  2.2100  1.2707  1.6495
  182SLPC  H15B20814   5.295   5.616  10.936 -1.3602  2.1795 -1.6030
  182SLPC  H15C20815   5.293   5.451  10.892  1.3417  0.1088 -1.7466
  182SLPC   C1220816   5.134   5.499  10.676 -0.6577 -0.0327 -0.3520
  182SLPC  H12A20817   5.159   5.398  10.706 -1.7104 -0.1423  0.1882
  182SLPC  H12B20818   5.206   5.529  10.602  0.7386  0.1094  1.0391
  182SLPC   C1120819   5.001   5.498  10.601  0.6057 -0.3429  0.1921
  182SLPC  H11A20820   5.009   5.460  10.497  1.2843 -0.0220  0.1276
  182SLPC  H11B20821   4.965   5.602  10.588 -0.1644 -0.5120  0.9149
  182SLPC     P20822   4.909   5.259  10.668  0.3780  0.1880 -0.0311
  182SLPC   O1320823   5.039   5.203  10.703 -0.1814  0.0978  0.4547
  182SLPC   O1420824   4.803   5.207  10.756  0.1826  0.0631 -0.5013
  182SLPC   O1220825   4.899   5.418  10.671  0.0086  0.4386 -0.2477
  182SLPC   O1120826   4.873   5.231  10.518 -0.1651 -0.2385 -0.1881
  182SLPC    C120827   4.753   5.282  10.462  0.1577  0.2791  0.0063
  182SLPC    HA20828   4.693   5.342  10.534  0.1184  1.1392 -0.7237
  182SLPC    HB20829   4.768   5.359  10.383 -1.9640  0.4576 -0.2514
  182SLPC    C220830   4.662   5.171  10.397 -0.2238  0.3230  0.1324
  182SLPC    HS20831   4.633   5.100  10.476 -0.3042  0.7162  0.4587
  182SLPC   O2120832   4.743   5.101  10.305 -0.4545 -0.4052 -0.3345
  182SLPC   C2120833   4.689   4.983  10.268  0.6601 -0.4535  0.2532
  182SLPC   O2220834   4.587   4.935  10.309 -0.6648  0.7621  0.3342
  182SLPC   C2220835   4.766   4.906  10.160  0.4263 -0.5812  0.6145
  182SLPC   H2R20836   4.796   4.807  10.199  1.1868 -0.0444  1.4054
  182SLPC   H2S20837   4.691   4.896  10.078 -0.8446 -1.3127  1.8461
  182SLPC    C320838   4.542   5.235  10.323  1.1195  0.1436 -1.0500
  182SLPC    HX20839   4.479   5.278  10.404  0.4367 -1.4861 -0.7051
  182SLPC    HY20840   4.483   5.156  10.271  1.0879 -0.2194 -0.4741
  182SLPC   O3120841   4.580   5.333  10.222  0.3077  0.8467  0.2904
  182SLPC   C3120842   4.586   5.291  10.092 -0.0600  0.0355 -0.1761
  182SLPC   O3220843   4.559   5.179  10.049 -0.9596 -0.2883 -0.2144
  182SLPC   C3220844   4.651   5.403  10.012  0.1242  0.6124  0.0315
  182SLPC   H2X20845   4.677   5.482  10.085  0.9318  1.7909 -1.5267
  182SLPC   H2Y20846   4.575   5.441   9.940  0.5010  1.0332 -0.1406
  182SLPC   C2320847   4.890   4.981  10.103  0.8951  0.3066 -0.6035
  182SLPC   H3R20848   4.967   4.971  10.183 -0.5264  0.4942  0.8135
  182SLPC   H3S20849   4.876   5.089  10.082  2.3382  0.6144 -0.0445
  182SLPC   C2420850   4.947   4.926   9.972  0.0394 -0.0180  0.7586
  182SLPC   H4R20851   4.911   4.823   9.957 -1.6720  0.4824  1.3142
  182SLPC   H4S20852   5.057   4.924   9.984  0.0440  1.1470  0.9782
  182SLPC   C2520853   4.926   5.014   9.851  0.9711  1.1281 -0.5722
  182SLPC   H5R20854   4.990   4.975   9.769  0.9771  1.0180 -0.5158
  182SLPC   H5S20855   4.966   5.114   9.878  0.3501  0.8762  1.3198
  182SLPC   C2620856   4.774   5.004   9.807  0.7879 -0.9806  0.6223
  182SLPC   H6R20857   4.713   5.051   9.887  1.7641 -0.0919  0.8624
  182SLPC   H6S20858   4.745   4.897   9.795 -0.8771 -0.5383  0.6834
  182SLPC   C2720859   4.754   5.072   9.671 -0.7182  0.0538 -0.7495
  182SLPC   H7R20860   4.777   5.181   9.676 -0.3549 -0.0203 -0.8218
  182SLPC   H7S20861   4.647   5.065   9.642 -2.1417 -0.7434  4.0999
  182SLPC   C2820862   4.818   5.007   9.544  0.2189 -0.1885  0.2718
  182SLPC   H8R20863   4.768   4.909   9.530 -1.7055  0.9442 -1.0806
  182SLPC   H8S20864   4.924   4.996   9.577 -0.1064 -1.5311  0.9041
  182SLPC   C2920865   4.836   5.087   9.423 -0.1236  0.2071  0.2496
  182SLPC   H9R20866   4.848   5.193   9.449 -0.7388  0.1216  0.8831
  182SLPC  C21020867   4.820   5.058   9.294  0.5443 -0.4269  0.0188
  182SLPC  H10R20868   4.833   5.137   9.219  0.0635 -1.4778 -1.2137
  182SLPC  C21120869   4.766   4.929   9.229  0.0499 -0.1241  0.4161
  182SLPC  H11R20870   4.677   4.957   9.169  0.8545  2.2678  0.2777
  182SLPC  H11S20871   4.728   4.859   9.307  1.8017 -0.6726  0.7875
  182SLPC  C21220872   4.868   4.859   9.144  0.9423 -0.4325  0.3024
  182SLPC  H12R20873   4.959   4.819   9.192  2.2821 -0.7025 -2.3838
  182SLPC  C21320874   4.848   4.835   9.012 -0.0918 -0.4082  0.6883
  182SLPC  H13R20875   4.931   4.788   8.957  0.0829 -0.5150  1.0379
  182SLPC  C21420876   4.734   4.889   8.924 -0.3931  0.8868  0.4368
  182SLPC  H14R20877   4.780   4.954   8.847 -0.3375 -0.3767 -0.6242
  182SLPC  H14S20878   4.658   4.944   8.982  0.5138  1.6240  0.9346
  182SLPC  C21520879   4.659   4.774   8.855  0.1255 -0.0071 -0.1527
  182SLPC  H15R20880   4.620   4.697   8.924  0.4363 -2.8437 -2.9968
  182SLPC  H15S20881   4.733   4.721   8.791 -1.4929 -2.3598 -0.1619
  182SLPC  C21620882   4.553   4.823   8.758 -0.0538  0.2198 -0.4972
  182SLPC  H16R20883   4.607   4.881   8.680 -1.8483  1.0806 -1.1314
  182SLPC  H16S20884   4.486   4.897   8.808 -1.7189 -0.1568 -2.1231
  182SLPC  C21720885   4.476   4.701   8.710  0.1202 -0.0654  0.9588
  182SLPC  H17R20886   4.416   4.650   8.789  1.2065 -1.6306  0.8113
  182SLPC  H17S20887   4.556   4.641   8.662  0.7405  0.5748  1.1924
  182SLPC  C21820888   4.385   4.730   8.592 -0.8582 -0.2168  0.2568
  182SLPC  H18R20889   4.342   4.641   8.542 -2.8996  1.0158 -0.2357
  182SLPC  H18S20890   4.454   4.773   8.516 -0.5690 -0.9290  0.1135
  182SLPC  H18T20891   4.301   4.800   8.613 -0.5894 -0.4417  2.0990
  182SLPC   C3320892   4.781   5.353   9.951  0.4386  0.2900  0.1884
  182SLPC   H3X20893   4.772   5.272   9.876 -0.2034 -0.9892  1.6303
  182SLPC   H3Y20894   4.824   5.292  10.033  2.9581  0.6371 -0.8195
  182SLPC   C3420895   4.882   5.460   9.910  0.1178 -0.4043  1.2937
  182SLPC   H4X20896   4.972   5.408   9.871 -0.5358  0.9906 -2.2840
  182SLPC   H4Y20897   4.905   5.516  10.003  1.6485 -1.0264  1.2953
  182SLPC   C3520898   4.824   5.555   9.804  0.1668  0.2037 -0.3771
  182SLPC   H5X20899   4.914   5.614   9.778 -0.7548  2.2949  1.1167
  182SLPC   H5Y20900   4.739   5.615   9.843 -0.5525 -1.7837  1.2217
  182SLPC   C3620901   4.788   5.488   9.668 -0.1125  0.3080 -0.6515
  182SLPC   H6X20902   4.691   5.447   9.704 -0.0347  0.3763 -0.3634
  182SLPC   H6Y20903   4.865   5.408   9.657 -0.9413 -1.3115  4.0876
  182SLPC   C3720904   4.763   5.584   9.551  0.6914  0.5799 -0.6429
  182SLPC   H7X20905   4.851   5.650   9.540 -0.5767  2.3701 -0.2830
  182SLPC   H7Y20906   4.682   5.650   9.589 -0.3915  0.1363 -2.1234
  182SLPC   C3820907   4.709   5.525   9.418  0.7095 -0.1310 -0.6085
  182SLPC   H8X20908   4.608   5.563   9.392  0.7562  0.4602  0.0641
  182SLPC   H8Y20909   4.678   5.420   9.436 -0.7258  0.1500 -1.3870
  182SLPC   C3920910   4.808   5.535   9.306 -0.4252 -0.2279  0.1935
  182SLPC   H9X20911   4.908   5.529   9.353 -0.8674 -0.7507  1.0770
  182SLPC   H9Y20912   4.808   5.631   9.250  0.9988  0.7704  1.8874
  182SLPC  C31020913   4.803   5.426   9.204  0.7266  0.0054  0.7520
  182SLPC  H10X20914   4.730   5.464   9.129  2.4361  0.5413 -0.6660
  182SLPC  H10Y20915   4.755   5.334   9.244  0.9342  0.0803  1.1772
  182SLPC  C31120916   4.935   5.402   9.127  0.1339 -0.5971  0.2574
  182SLPC  H11X20917   5.003   5.367   9.208 -0.8870 -0.3645  1.2290
  182SLPC  H11Y20918   4.968   5.495   9.075 -0.5482 -0.0523  0.7872
  182SLPC  C31220919   4.934   5.297   9.019 -0.0346 -0.1378  1.0304
  182SLPC  H12X20920   4.881   5.353   8.939 -2.0100 -0.6264  1.9534
  182SLPC  H12Y20921   4.864   5.212   9.033 -0.8112  0.8429  3.3192
  182SLPC  C31320922   5.073   5.251   8.973  0.2610  1.8436 -0.7270
  182SLPC  H13X20923   5.056   5.168   8.901 -0.6562  0.1911  1.3581
  182SLPC  H13Y20924   5.130   5.206   9.058 -1.2079  2.1512  0.4333
  182SLPC  C31420925   5.164   5.350   8.903  0.1200 -0.0085 -0.7958
  182SLPC  H14X20926   5.180   5.448   8.952 -1.3376 -0.3652  0.4358
  182SLPC  H14Y20927   5.118   5.379   8.805 -0.4177 -2.1211 -1.2038
  182SLPC  C31520928   5.304   5.289   8.881  0.3584  0.2183  0.3339
  182SLPC  H15X20929   5.358   5.268   8.976  0.3852 -0.7508  0.1113
  182SLPC  H15Y20930   5.367   5.368   8.836  0.7359  0.0891  0.6323
  182SLPC  C31620931   5.304   5.173   8.783  0.0038 -0.4324 -0.9693
  182SLPC  H16X20932   5.242   5.203   8.696  0.7864  1.1816 -0.9866
  182SLPC  H16Y20933   5.256   5.083   8.826 -2.2976  1.1559 -0.1005
  182SLPC  C31720934   5.441   5.124   8.735  0.0441 -0.4289  0.4800
  182SLPC  H17X20935   5.411   5.028   8.688 -0.9941 -0.0891  0.4415
  182SLPC  H17Y20936   5.515   5.087   8.808 -0.7180 -1.2474  0.8492
  182SLPC  C31820937   5.518   5.216   8.631  0.4746 -0.0033  0.1004
  182SLPC  H18X20938   5.543   5.311   8.683  0.9330  0.5698 -1.1388
  182SLPC  H18Y20939   5.457   5.223   8.539  0.2904 -1.2245  0.1240
  182SLPC  H18Z20940   5.608   5.161   8.595  0.0178 -0.5384 -0.2292
  183SLPC     N20941   6.149   6.387  11.181 -0.1227 -0.3114  0.0365
  183SLPC   C1320942   6.177   6.260  11.260 -0.1404  0.3448  0.4620
  183SLPC  H13A20943   6.257   6.203  11.214 -1.9108 -1.2871 -0.6777
  183SLPC  H13B20944   6.200   6.278  11.363  1.0479  0.1686  0.2383
  183SLPC  H13C20945   6.097   6.188  11.259 -0.1821  0.3706  1.5763
  183SLPC   C1420946   6.051   6.469  11.267  0.8598 -0.3567  0.0855
  183SLPC  H14A20947   6.042   6.568  11.225 -1.8026  0.0885  1.5704
  183SLPC  H14B20948   5.951   6.428  11.271  0.0550  1.3648 -1.4332
  183SLPC  H14C20949   6.067   6.476  11.373  0.5061  0.6684  0.0840
  183SLPC   C1520950   6.072   6.352  11.058 -0.2724 -0.2765 -0.1531
  183SLPC  H15A20951   6.065   6.430  10.984 -2.0608 -2.0594 -1.9266
  183SLPC  H15B20952   6.115   6.265  11.009  0.3516  1.0350 -1.9883
  183SLPC  H15C20953   5.969   6.326  11.079 -0.3440  0.2098  0.0826
  183SLPC   C1220954   6.276   6.461  11.148  0.2860  0.4799  0.5377
  183SLPC  H12A20955   6.324   6.485  11.242  0.2156  1.1017  0.4232
  183SLPC  H12B20956   6.253   6.555  11.099 -1.2709  0.4512  1.2008
  183SLPC   C1120957   6.377   6.386  11.055 -0.7774 -0.3198 -0.7065
  183SLPC  H11A20958   6.375   6.282  11.095 -1.6939  0.2231  0.7324
  183SLPC  H11B20959   6.479   6.431  11.065 -1.6770  2.3493 -2.9205
  183SLPC     P20960   6.366   6.510  10.831  0.1304 -0.1024 -0.2375
  183SLPC   O1320961   6.259   6.522  10.736 -0.0058  0.5953  0.4309
  183SLPC   O1420962   6.404   6.626  10.915  0.5007  0.4326  0.0026
  183SLPC   O1220963   6.336   6.386  10.921  0.3115  0.0647  0.2001
  183SLPC   O1120964   6.491   6.462  10.752  0.3554 -1.2857  0.2223
  183SLPC    C120965   6.573   6.543  10.659  0.5578  0.0347 -1.0709
  183SLPC    HA20966   6.528   6.548  10.558  0.4490  2.4482 -0.9262
  183SLPC    HB20967   6.581   6.648  10.694  0.0905 -0.1387 -0.4099
  183SLPC    C220968   6.725   6.491  10.648 -0.3443 -0.8355  0.0706
  183SLPC    HS20969   6.782   6.581  10.617 -1.1082 -0.4348 -0.1758
  183SLPC   O2120970   6.751   6.383  10.554  0.8955  0.6248 -0.5485
  183SLPC   C2120971   6.693   6.384  10.433 -0.3062  0.1742 -0.0825
  183SLPC   O2220972   6.655   6.488  10.382  0.4108  0.1209  0.2135
  183SLPC   C2220973   6.658   6.252  10.375  0.0237  0.5441  0.5089
  183SLPC   H2R20974   6.706   6.174  10.438  0.4498  0.7461  0.4317
  183SLPC   H2S20975   6.548   6.233  10.372 -0.0525  0.9442  0.9030
  183SLPC    C320976   6.773   6.452  10.785 -0.1919  0.1204 -0.0737
  183SLPC    HX20977   6.700   6.395  10.847 -0.0107  1.5608  1.4881
  183SLPC    HY20978   6.785   6.536  10.857  0.9971 -0.6400  0.6326
  183SLPC   O3120979   6.903   6.392  10.771 -0.1936  0.5296 -0.0095
  183SLPC   C3120980   6.905   6.258  10.765  0.1908 -0.2825  0.1277
  183SLPC   O3220981   6.810   6.187  10.777 -0.6932 -1.0107 -0.1975
  183SLPC   C3220982   7.044   6.206  10.758  0.3073  0.0025  0.2075
  183SLPC   H2X20983   7.038   6.105  10.712  1.0035  0.7425 -1.5365
  183SLPC   H2Y20984   7.083   6.196  10.862 -0.6201  0.7485  0.6294
  183SLPC   C2320985   6.715   6.238  10.235 -0.6460  0.0080  1.0457
  183SLPC   H3R20986   6.826   6.248  10.232 -0.6758  0.0777  0.1851
  183SLPC   H3S20987   6.671   6.319  10.172 -0.8239 -0.7189  0.2321
  183SLPC   C2420988   6.682   6.113  10.155 -0.2838 -0.4185 -0.1105
  183SLPC   H4R20989   6.574   6.095  10.173 -0.8167  1.8389 -0.9368
  183SLPC   H4S20990   6.738   6.026  10.194  1.8645  0.9822 -0.0131
  183SLPC   C2520991   6.720   6.123  10.008 -0.3521 -0.6282  0.0062
  183SLPC   H5R20992   6.831   6.118  10.000 -0.3493 -0.6277  0.0558
  183SLPC   H5S20993   6.676   6.219   9.974 -1.0179 -0.7852  0.4122
  183SLPC   C2620994   6.658   6.018   9.918 -0.5099 -0.5137  0.0976
  183SLPC   H6R20995   6.549   6.007   9.933 -0.6827  2.5449  1.5551
  183SLPC   H6S20996   6.694   5.916   9.942  0.6450 -0.1029  0.1331
  183SLPC   C2720997   6.698   6.050   9.772 -0.0699 -0.4951  0.0071
  183SLPC   H7R20998   6.806   6.028   9.759 -0.0729 -2.0741  2.3013
  183SLPC   H7S20999   6.683   6.160   9.762 -2.5013 -0.3848  3.6633
  183SLPC   C2821000   6.624   5.971   9.662 -0.0228  0.7630 -0.6209
  183SLPC   H8R21001   6.513   5.975   9.654 -0.1559 -1.8210 -0.4582
  183SLPC   H8S21002   6.658   5.871   9.696 -0.6331  0.7411 -0.0687
  183SLPC   C2921003   6.696   6.005   9.530  0.0723 -0.2751 -0.5596
  183SLPC   H9R21004   6.733   6.108   9.517 -3.3185  1.4265  2.4701
  183SLPC  C21021005   6.705   5.927   9.420  0.7696  0.4904 -0.3669
  183SLPC  H10R21006   6.739   5.975   9.327  0.0819  1.5708 -0.0690
  183SLPC  C21121007   6.642   5.788   9.395  0.0762  0.4722  0.1333
  183SLPC  H11R21008   6.616   5.775   9.288  0.4195 -0.4135  0.1569
  183SLPC  H11S21009   6.548   5.791   9.454 -0.7053 -0.7385 -1.0465
  183SLPC  C21221010   6.731   5.678   9.436 -0.3128 -0.3839  0.1852
  183SLPC  H12R21011   6.788   5.697   9.528 -0.0270 -0.0623 -0.0549
  183SLPC  C21321012   6.761   5.566   9.368 -0.2915  0.2222  0.7620
  183SLPC  H13R21013   6.831   5.491   9.409  1.5140  1.8460  0.7469
  183SLPC  C21421014   6.709   5.515   9.237 -0.6656 -0.8152  0.1413
  183SLPC  H14R21015   6.634   5.582   9.190 -2.2616 -1.2451  2.0109
  183SLPC  H14S21016   6.658   5.418   9.254  0.2248 -1.3243 -0.0374
  183SLPC  C21521017   6.830   5.488   9.135 -0.2521  0.0940 -0.8062
  183SLPC  H15R21018   6.771   5.457   9.046  3.4643  0.1405 -3.4161
  183SLPC  H15S21019   6.886   5.398   9.169 -0.5972  0.5689  1.0633
  183SLPC  C21621020   6.927   5.602   9.098  0.6083  0.3453  0.3319
  183SLPC  H16R21021   6.956   5.644   9.197  0.6679  0.1160  0.4115
  183SLPC  H16S21022   6.867   5.683   9.052 -0.1116 -1.0068 -1.1716
  183SLPC  C21721023   7.037   5.571   9.001 -0.0837 -0.2451 -0.1598
  183SLPC  H17R21024   7.118   5.508   9.044 -0.4283  0.8032  2.0712
  183SLPC  H17S21025   7.084   5.671   8.992  1.1790 -0.5083  2.8826
  183SLPC  C21821026   7.000   5.523   8.858  0.0970 -0.4557 -0.1264
  183SLPC  H18R21027   6.931   5.596   8.812 -0.7033  0.1783  2.0262
  183SLPC  H18S21028   6.970   5.416   8.849 -0.3191 -0.1502 -2.7809
  183SLPC  H18T21029   7.092   5.527   8.796 -0.4876  2.0114 -0.8891
  183SLPC   C3321030   7.135   6.290  10.666  0.0355 -0.4196  0.5118
  183SLPC   H3X21031   7.241   6.260  10.679  0.5574  1.5189  0.9408
  183SLPC   H3Y21032   7.114   6.398  10.682 -2.0116 -0.5576 -1.0346
  183SLPC   C3421033   7.102   6.267  10.516 -0.5014 -0.1906  0.3769
  183SLPC   H4X21034   7.160   6.347  10.465  1.0001 -0.3671  1.7853
  183SLPC   H4Y21035   6.995   6.294  10.502 -0.2934 -0.0954 -1.0823
  183SLPC   C3521036   7.149   6.135  10.464 -0.4066  0.4543  0.1898
  183SLPC   H5X21037   7.084   6.051  10.497  0.0385  0.6899  1.7018
  183SLPC   H5Y21038   7.248   6.110  10.507  0.8932  2.4260 -1.5767
  183SLPC   C3621039   7.132   6.135  10.314  0.7332 -0.6014 -0.7138
  183SLPC   H6X21040   7.202   6.203  10.263  1.1190  0.4767  1.2095
  183SLPC   H6Y21041   7.025   6.164  10.300  0.2420 -1.2343  1.4635
  183SLPC   C3721042   7.138   5.994  10.253  0.5609 -0.0167 -0.2361
  183SLPC   H7X21043   7.059   5.931  10.298  0.2766 -0.0963 -0.8446
  183SLPC   H7Y21044   7.238   5.953  10.282  0.8775  0.1694 -1.0514
  183SLPC   C3821045   7.118   5.989  10.100 -0.1853 -0.7117 -0.4668
  183SLPC   H8X21046   7.024   6.037  10.064 -0.5276  0.0283  1.3541
  183SLPC   H8Y21047   7.105   5.880  10.082 -1.3608 -0.6075 -0.3119
  183SLPC   C3921048   7.239   6.046  10.033  0.0496 -0.0317  0.6060
  183SLPC   H9X21049   7.328   6.013  10.090  0.7172  0.8401  0.0735
  183SLPC   H9Y21050   7.238   6.157  10.045  0.4405 -0.1106  1.3463
  183SLPC  C31021051   7.239   6.018   9.879  0.3307  0.5127 -0.5431
  183SLPC  H10X21052   7.224   5.910   9.859 -1.3662  0.3581  1.3045
  183SLPC  H10Y21053   7.340   6.050   9.847 -0.1529  2.0534 -0.6250
  183SLPC  C31121054   7.133   6.087   9.785  0.5058 -0.2875 -1.0412
  183SLPC  H11X21055   7.137   6.198   9.792 -0.6297 -0.4379  2.7106
  183SLPC  H11Y21056   7.031   6.053   9.814  0.0379  3.2618  1.7945
  183SLPC  C31221057   7.163   6.052   9.639  0.1799 -0.2173 -0.6069
  183SLPC  H12X21058   7.140   5.943   9.636  1.6397 -0.5286 -1.0532
  183SLPC  H12Y21059   7.272   6.062   9.621  0.3876  0.5603  1.0664
  183SLPC  C31321060   7.079   6.116   9.528 -0.4107  0.5426 -0.1661
  183SLPC  H13X21061   7.098   6.225   9.516  2.7699 -0.0803 -1.3606
  183SLPC  H13Y21062   6.971   6.097   9.543  0.4738 -2.9032  2.4766
  183SLPC  C31421063   7.105   6.061   9.395 -0.2354  0.5160 -0.0622
  183SLPC  H14X21064   7.104   5.950   9.388  0.6151  0.3819  1.7851
  183SLPC  H14Y21065   7.209   6.087   9.368 -0.0478 -0.7753 -0.6222
  183SLPC  C31521066   7.020   6.134   9.285  0.3797 -0.7198 -0.3260
  183SLPC  H15X21067   7.042   6.239   9.314 -0.0867 -0.9226  0.7878
  183SLPC  H15Y21068   6.910   6.123   9.297  0.2600  0.5199 -0.1820
  183SLPC  C31621069   7.058   6.087   9.146  0.2330 -0.0733 -0.7325
  183SLPC  H16X21070   7.017   5.983   9.145 -2.4150  0.9083  1.3805
  183SLPC  H16Y21071   7.168   6.076   9.140  0.3422 -1.0157  2.1296
  183SLPC  C31721072   6.998   6.171   9.034  0.8337 -0.0156  0.5668
  183SLPC  H17X21073   7.031   6.132   8.936  0.0597 -3.4807  1.6084
  183SLPC  H17Y21074   7.049   6.270   9.029  1.1629 -0.2905 -1.6234
  183SLPC  C31821075   6.850   6.192   9.026 -0.1153 -0.0469  0.3469
  183SLPC  H18X21076   6.794   6.098   9.003  1.9136 -0.5865 -2.7653
  183SLPC  H18Y21077   6.819   6.269   8.952  0.2135  0.5636  0.8457
  183SLPC  H18Z21078   6.810   6.244   9.115  1.3166  1.9130 -0.1389
  184SLPC     N21079   2.417   3.619  10.863 -0.6769  0.1162  0.4186
  184SLPC   C1321080   2.469   3.725  10.774 -0.3494  0.1943  0.1895
  184SLPC  H13A21081   2.394   3.791  10.733  0.8568  1.0652 -0.6371
  184SLPC  H13B21082   2.546   3.788  10.815  0.1022  0.5374 -1.1608
  184SLPC  H13C21083   2.508   3.674  10.688 -2.2392 -1.8032  0.4522
  184SLPC   C1421084   2.391   3.668  11.001 -0.0418  0.0660  0.0083
  184SLPC  H14A21085   2.484   3.694  11.051 -0.3941  2.1036 -0.3351
  184SLPC  H14B21086   2.312   3.742  11.008 -0.7971 -0.8590  1.3587
  184SLPC  H14C21087   2.348   3.590  11.061  1.4771 -1.0038 -0.2577
  184SLPC   C1521088   2.514   3.508  10.868  0.3937  0.1165 -0.0793
  184SLPC  H15A21089   2.611   3.545  10.901  0.1310 -0.0609  0.8991
  184SLPC  H15B21090   2.482   3.423  10.926 -0.5626  0.1396 -0.5639
  184SLPC  H15C21091   2.541   3.468  10.772 -1.7962  1.5941 -1.3494
  184SLPC   C1221092   2.287   3.580  10.806  0.1330  0.5826  0.3067
  184SLPC  H12A21093   2.303   3.546  10.705  2.7224 -0.6161  1.0955
  184SLPC  H12B21094   2.208   3.654  10.809  0.1518  0.6155  0.0253
  184SLPC   C1121095   2.214   3.454  10.873  0.2803  0.4048 -0.2300
  184SLPC  H11A21096   2.111   3.450  10.830  0.8153  0.5906 -1.5698
  184SLPC  H11B21097   2.206   3.490  10.977 -2.3611  0.7869 -0.5213
  184SLPC     P21098   2.285   3.274  10.714 -0.2317  0.1616 -0.1260
  184SLPC   O1321099   2.420   3.231  10.676 -0.0695  0.0774 -0.0550
  184SLPC   O1421100   2.185   3.160  10.700  0.2835 -0.3394 -0.4314
  184SLPC   O1221101   2.287   3.332  10.857 -0.1430  0.1098  0.6633
  184SLPC   O1121102   2.239   3.386  10.623  0.4374 -0.5078  0.6563
  184SLPC    C121103   2.109   3.391  10.567  0.2230  0.2814  1.7956
  184SLPC    HA21104   2.036   3.317  10.607  0.4422 -0.7067  0.3973
  184SLPC    HB21105   2.063   3.490  10.588 -0.4812  0.4819 -0.6465
  184SLPC    C221106   2.108   3.385  10.407 -0.0195  0.2102  0.5909
  184SLPC    HS21107   2.182   3.307  10.378 -0.8932 -0.5788  0.4803
  184SLPC   O2121108   2.160   3.510  10.366  0.5604 -0.3713 -0.3826
  184SLPC   C2121109   2.294   3.518  10.346 -0.7903  0.2921  0.3388
  184SLPC   O2221110   2.374   3.428  10.359  0.4388 -0.0499 -0.4416
  184SLPC   C2221111   2.335   3.665  10.318 -0.1857 -0.0798  0.3708
  184SLPC   H2R21112   2.303   3.691  10.215 -1.6214 -0.9436  0.5828
  184SLPC   H2S21113   2.269   3.729  10.379  1.6418  2.5271 -0.3105
  184SLPC    C321114   1.964   3.378  10.340  0.2824 -0.1239  0.1342
  184SLPC    HX21115   1.978   3.393  10.230 -2.5677  1.7894 -0.0180
  184SLPC    HY21116   1.907   3.466  10.376 -0.8670 -0.1390 -1.5960
  184SLPC   O3121117   1.895   3.259  10.376 -0.1347  0.2380 -0.6253
  184SLPC   C3121118   1.760   3.260  10.354  0.0024 -0.1184 -0.4471
  184SLPC   O3221119   1.694   3.354  10.313 -0.4970 -0.3148  0.4723
  184SLPC   C3221120   1.692   3.119  10.385 -0.1879 -1.2572  0.1017
  184SLPC   H2X21121   1.689   3.116  10.496 -0.3243  1.0761  0.1801
  184SLPC   H2Y21122   1.762   3.040  10.349  0.9529 -0.2673  0.1272
  184SLPC   C2321123   2.482   3.681  10.347 -0.2988 -0.3965 -0.2052
  184SLPC   H3R21124   2.535   3.587  10.321 -0.8731 -0.4114 -1.3565
  184SLPC   H3S21125   2.486   3.681  10.458 -3.3863  0.3362 -0.0595
  184SLPC   C2421126   2.531   3.813  10.282  0.0968 -0.2613 -0.0351
  184SLPC   H4R21127   2.624   3.851  10.330  0.0616  1.8845 -1.5913
  184SLPC   H4S21128   2.456   3.895  10.283  1.4861  1.0281  0.9227
  184SLPC   C2521129   2.572   3.795  10.132  0.3369  0.6477  0.5131
  184SLPC   H5R21130   2.484   3.750  10.081  0.1488  2.1040 -0.4809
  184SLPC   H5S21131   2.660   3.728  10.118  1.3633  2.0785 -0.0405
  184SLPC   C2621132   2.599   3.932  10.064  0.1014  0.7670  0.6183
  184SLPC   H6R21133   2.674   3.979  10.132  2.4819 -1.8072 -0.1460
  184SLPC   H6S21134   2.518   4.007  10.072 -0.1996  0.4072  0.9325
  184SLPC   C2721135   2.635   3.918   9.911  0.2966 -0.2528 -0.6442
  184SLPC   H7R21136   2.568   3.845   9.859  4.0679 -4.8779  0.6826
  184SLPC   H7S21137   2.740   3.883   9.909  0.1413 -0.7033 -1.2958
  184SLPC   C2821138   2.641   4.050   9.829  0.1090  0.5264  0.3540
  184SLPC   H8R21139   2.692   4.021   9.735 -1.6234 -0.5838 -0.2737
  184SLPC   H8S21140   2.699   4.128   9.882  0.4119 -1.3828  2.9533
  184SLPC   C2921141   2.499   4.099   9.800 -0.8177 -0.0891  0.2994
  184SLPC   H9R21142   2.435   4.113   9.888  0.5370  1.1287  1.1057
  184SLPC  C21021143   2.444   4.125   9.677  0.0388  1.0364 -0.1444
  184SLPC  H10R21144   2.336   4.144   9.671  0.0788  1.1718 -0.4551
  184SLPC  C21121145   2.513   4.099   9.544  0.2389  0.1677 -0.0701
  184SLPC  H11R21146   2.498   3.993   9.515  1.4594 -0.0947  0.2129
  184SLPC  H11S21147   2.623   4.114   9.559 -0.2589  1.3021  2.8240
  184SLPC  C21221148   2.461   4.178   9.427 -0.0478 -1.2386 -0.6003
  184SLPC  H12R21149   2.354   4.205   9.428  0.3547  0.4354 -1.2806
  184SLPC  C21321150   2.523   4.211   9.314  0.1237  0.2743  0.1474
  184SLPC  H13R21151   2.468   4.252   9.228 -0.9060 -0.5706  0.4020
  184SLPC  C21421152   2.667   4.177   9.278  0.3941  0.1935 -0.7155
  184SLPC  H14R21153   2.686   4.103   9.197 -2.1247 -1.4363  0.1367
  184SLPC  H14S21154   2.717   4.152   9.374  0.1153  1.6465 -0.1685
  184SLPC  C21521155   2.735   4.304   9.219 -0.4011 -0.0096 -0.1859
  184SLPC  H15R21156   2.843   4.282   9.206 -0.7296 -0.6179 -1.9652
  184SLPC  H15S21157   2.730   4.383   9.297  0.0497 -0.0653 -0.0997
  184SLPC  C21621158   2.687   4.350   9.077  0.4793  0.2496  0.0624
  184SLPC  H16R21159   2.585   4.392   9.088 -0.0283 -1.4191  2.2313
  184SLPC  H16S21160   2.680   4.266   9.005  1.0998  2.1164 -2.2291
  184SLPC  C21721161   2.774   4.458   9.009 -1.1382  0.4229  0.3262
  184SLPC  H17R21162   2.770   4.548   9.074 -1.6083 -0.2226  1.2070
  184SLPC  H17S21163   2.722   4.489   8.916  0.7551  0.0260 -0.8720
  184SLPC  C21821164   2.919   4.415   8.983  0.0351 -0.1913  0.5675
  184SLPC  H18R21165   2.951   4.486   8.903  0.5191  1.1896  1.9562
  184SLPC  H18S21166   2.924   4.313   8.941  0.1194  0.8879 -2.1404
  184SLPC  H18T21167   2.983   4.425   9.073 -0.0823 -0.7947  0.7183
  184SLPC   C3321168   1.550   3.100  10.335 -0.3461 -0.2351 -0.0901
  184SLPC   H3X21169   1.525   3.181  10.264 -0.2148 -1.0868 -1.1187
  184SLPC   H3Y21170   1.481   3.112  10.421  1.8747  0.4192  1.6393
  184SLPC   C3421171   1.522   2.956  10.296 -0.0648  0.5559 -0.3330
  184SLPC   H4X21172   1.524   2.888  10.384 -0.7142  1.8334  0.6882
  184SLPC   H4Y21173   1.603   2.926  10.226 -0.1498 -0.4384 -0.0145
  184SLPC   C3521174   1.382   2.931  10.230  0.3044 -0.3991  0.3979
  184SLPC   H5X21175   1.366   3.001  10.145  3.3786 -0.1679 -0.0587
  184SLPC   H5Y21176   1.310   2.936  10.314  0.8734 -0.7207  0.9138
  184SLPC   C3621177   1.352   2.796  10.166 -0.2429  0.2225 -0.1443
  184SLPC   H6X21178   1.403   2.713  10.219  0.3541  0.1898 -0.7668
  184SLPC   H6Y21179   1.391   2.786  10.063 -2.3373 -0.2959 -0.9171
  184SLPC   C3721180   1.205   2.762  10.147  0.0504  0.1356 -0.2771
  184SLPC   H7X21181   1.142   2.753  10.238 -1.1945  1.9172 -0.9330
  184SLPC   H7Y21182   1.208   2.661  10.100 -2.7813  1.0140 -2.5187
  184SLPC   C3821183   1.125   2.860  10.065  0.0023 -0.1665  0.3134
  184SLPC   H8X21184   1.143   2.967  10.091 -0.7783 -0.4495  2.0871
  184SLPC   H8Y21185   1.017   2.848  10.088  0.1793  1.5164  2.1299
  184SLPC   C3921186   1.144   2.841   9.908  0.2216 -0.4948 -0.4287
  184SLPC   H9X21187   1.252   2.855   9.888  0.0929  1.9298  0.4447
  184SLPC   H9Y21188   1.085   2.921   9.857 -2.1068 -2.7046 -1.3005
  184SLPC  C31021189   1.088   2.712   9.845 -0.2246 -0.3193 -0.4872
  184SLPC  H10X21190   0.991   2.691   9.894 -1.0300  1.1226 -1.4012
  184SLPC  H10Y21191   1.155   2.628   9.874  1.2474  1.0975  0.2983
  184SLPC  C31121192   1.081   2.721   9.695 -0.1066  0.2564 -0.4578
  184SLPC  H11X21193   1.010   2.803   9.670 -1.1179 -0.7162 -0.8019
  184SLPC  H11Y21194   1.032   2.625   9.668  1.4600  0.2370 -3.3828
  184SLPC  C31221195   1.208   2.728   9.615  0.7258 -0.0025 -0.7125
  184SLPC  H12X21196   1.291   2.662   9.647  0.6811  0.2195 -0.1360
  184SLPC  H12Y21197   1.246   2.829   9.640 -0.6532  0.9360 -2.2462
  184SLPC  C31321198   1.173   2.717   9.462 -0.3232 -0.6452 -1.0562
  184SLPC  H13X21199   1.228   2.797   9.409  2.7320 -1.1299  1.2231
  184SLPC  H13Y21200   1.064   2.718   9.440 -0.5216 -0.9921 -0.1344
  184SLPC  C31421201   1.203   2.588   9.401 -0.1695  0.6507 -0.3191
  184SLPC  H14X21202   1.134   2.509   9.440 -1.8461  2.6645  0.8910
  184SLPC  H14Y21203   1.300   2.547   9.436 -0.0263  0.8133 -0.5285
  184SLPC  C31521204   1.193   2.599   9.252  0.2906  0.2186 -0.7010
  184SLPC  H15X21205   1.274   2.662   9.209  1.0392  1.1037  1.8881
  184SLPC  H15Y21206   1.097   2.638   9.213  0.3584 -0.6059 -1.6998
  184SLPC  C31621207   1.192   2.464   9.172  0.2404 -0.2584 -0.7775
  184SLPC  H16X21208   1.089   2.424   9.186  0.7326 -1.1908  0.2698
  184SLPC  H16Y21209   1.275   2.401   9.212  0.9736  0.2894 -1.4323
  184SLPC  C31721210   1.215   2.493   9.025 -0.8120  0.1386  0.2919
  184SLPC  H17X21211   1.318   2.529   9.005 -0.8298  0.2386  0.3799
  184SLPC  H17Y21212   1.150   2.571   8.980  2.0090  1.5291 -1.5318
  184SLPC  C31821213   1.197   2.364   8.941 -1.0644 -0.0003  0.7949
  184SLPC  H18X21214   1.092   2.329   8.935 -0.6113 -1.0573 -2.1242
  184SLPC  H18Y21215   1.259   2.278   8.977 -0.3454  0.0840 -0.2185
  184SLPC  H18Z21216   1.237   2.372   8.837 -0.3099  0.2372  1.0981
  185SLPC     N21217   6.611   6.403   6.183  0.0104 -0.5591  0.4515
  185SLPC   C1321218   6.629   6.554   6.161  0.1333  0.4697  0.2265
  185SLPC  H13A21219   6.536   6.606   6.174 -0.6414 -1.1869  1.5576
  185SLPC  H13B21220   6.699   6.587   6.236  1.8749  0.5093 -1.3509
  185SLPC  H13C21221   6.667   6.579   6.063  3.2891 -0.5798  1.1166
  185SLPC   C1421222   6.747   6.329   6.159 -0.4975 -0.3212 -0.8176
  185SLPC  H14A21223   6.796   6.358   6.067 -0.1417 -3.4832 -1.6873
  185SLPC  H14B21224   6.806   6.358   6.245 -0.4384  1.6674 -1.5112
  185SLPC  H14C21225   6.730   6.222   6.163  2.7566 -1.0275 -3.7093
  185SLPC   C1521226   6.513   6.348   6.076 -0.2171  0.0925 -0.3750
  185SLPC  H15A21227   6.502   6.243   6.099 -0.4216  0.5012  1.4473
  185SLPC  H15B21228   6.415   6.391   6.090 -0.3753 -0.1504 -0.7286
  185SLPC  H15C21229   6.551   6.368   5.977 -0.8605 -1.3042 -0.9223
  185SLPC   C1221230   6.559   6.368   6.319 -0.4079  0.5081 -0.7834
  185SLPC  H12A21231   6.550   6.262   6.333 -1.0421  0.4227 -1.7874
  185SLPC  H12B21232   6.460   6.410   6.328  0.7859  3.1856  0.6788
  185SLPC   C1121233   6.625   6.428   6.449  0.4024 -0.1811 -0.3457
  185SLPC  H11A21234   6.583   6.382   6.541 -2.5763  3.1057  0.0202
  185SLPC  H11B21235   6.594   6.534   6.461 -0.5372 -0.4217 -0.6085
  185SLPC     P21236   6.874   6.525   6.483  0.0156 -0.2118 -0.3009
  185SLPC   O1321237   7.003   6.459   6.457 -0.0434 -0.4807  0.2763
  185SLPC   O1421238   6.846   6.634   6.390  0.2385  0.3043  0.1673
  185SLPC   O1221239   6.769   6.410   6.468  0.0029 -0.1059 -0.3351
  185SLPC   O1121240   6.864   6.570   6.637 -0.7880  0.5806  0.1802
  185SLPC    C121241   6.784   6.496   6.732  0.2449 -0.1726 -0.0017
  185SLPC    HA21242   6.678   6.519   6.710 -0.5023 -2.6716  0.7853
  185SLPC    HB21243   6.801   6.386   6.726 -1.1101 -0.3495 -0.6657
  185SLPC    C221244   6.809   6.539   6.878 -0.3516 -0.5850 -0.3254
  185SLPC    HS21245   6.914   6.506   6.895  0.2532  1.7000  0.5803
  185SLPC   O2121246   6.706   6.480   6.963  0.2118  0.2998 -0.0554
  185SLPC   C2121247   6.728   6.352   6.993 -0.1380 -0.2016  0.2356
  185SLPC   O2221248   6.835   6.301   6.960 -0.2438  0.2642  0.5966
  185SLPC   C2221249   6.616   6.297   7.085  0.1472  0.3049  0.2458
  185SLPC   H2R21250   6.521   6.354   7.080 -0.0707 -0.1646 -1.2952
  185SLPC   H2S21251   6.590   6.191   7.061  0.7085 -0.0279  1.0847
  185SLPC    C321252   6.803   6.697   6.909  0.7557 -0.6170  0.5795
  185SLPC    HX21253   6.709   6.732   6.862  1.7314 -0.1732 -1.0849
  185SLPC    HY21254   6.886   6.752   6.861 -0.2359  0.2049 -0.2104
  185SLPC   O3121255   6.803   6.733   7.045  0.0680 -1.1021 -0.2563
  185SLPC   C3121256   6.912   6.685   7.116  0.2057 -0.0705  0.4055
  185SLPC   O3221257   7.011   6.642   7.063  0.3461  0.1036 -0.4755
  185SLPC   C3221258   6.880   6.689   7.269  0.1010 -0.9431  0.2183
  185SLPC   H2X21259   6.771   6.667   7.270 -0.3377  1.1480  0.5390
  185SLPC   H2Y21260   6.900   6.786   7.317  2.3230 -2.1333  1.7560
  185SLPC   C2321261   6.672   6.299   7.233  0.4276  0.2688  0.0708
  185SLPC   H3R21262   6.643   6.394   7.284  0.2534 -0.4271  1.2964
  185SLPC   H3S21263   6.783   6.300   7.235  0.4509  2.9855  1.1702
  185SLPC   C2421264   6.620   6.188   7.314  0.2891 -0.1616 -0.5021
  185SLPC   H4R21265   6.657   6.091   7.274 -0.1800 -0.6830  0.3215
  185SLPC   H4S21266   6.510   6.182   7.301 -0.2600  1.3629  3.0041
  185SLPC   C2521267   6.635   6.197   7.462  0.1659 -0.1471  0.3372
  185SLPC   H5R21268   6.711   6.273   7.487  1.3566 -0.2958 -2.6253
  185SLPC   H5S21269   6.673   6.095   7.484 -0.5855 -1.2090 -2.8874
  185SLPC   C2621270   6.502   6.230   7.540 -0.2947 -0.3203  0.3795
  185SLPC   H6R21271   6.424   6.151   7.531 -0.6659  0.0406  0.4270
  185SLPC   H6S21272   6.456   6.315   7.485  2.5142  0.8006 -0.3094
  185SLPC   C2721273   6.521   6.262   7.692 -0.2149 -0.2864 -0.0061
  185SLPC   H7R21274   6.434   6.297   7.751 -0.9597  2.7869 -2.7553
  185SLPC   H7S21275   6.584   6.354   7.696 -1.3293  0.4959 -0.2857
  185SLPC   C2821276   6.576   6.143   7.785 -0.5748 -0.2079  0.0425
  185SLPC   H8R21277   6.665   6.093   7.743 -2.0132 -1.4329 -1.6349
  185SLPC   H8S21278   6.492   6.071   7.790 -0.3676 -0.4926 -0.5259
  185SLPC   C2921279   6.603   6.188   7.933  0.5015  0.0725 -0.4662
  185SLPC   H9R21280   6.509   6.195   7.990 -1.3904 -1.1590 -3.3459
  185SLPC  C21021281   6.720   6.214   7.996 -0.3726 -0.1274  0.7530
  185SLPC  H10R21282   6.709   6.253   8.098 -0.1217 -0.2751  0.8385
  185SLPC  C21121283   6.862   6.210   7.950  0.0635 -0.4690 -0.6930
  185SLPC  H11R21284   6.864   6.188   7.841 -1.5706  1.0301 -1.0631
  185SLPC  H11S21285   6.931   6.137   7.996  0.7526  0.3153 -0.4758
  185SLPC  C21221286   6.924   6.348   7.952 -0.5255 -0.0681  0.5764
  185SLPC  H12R21287   6.868   6.425   7.896  1.8116  0.4452 -1.1387
  185SLPC  C21321288   7.043   6.382   8.007 -0.3284 -0.6285  0.1793
  185SLPC  H13R21289   7.082   6.485   8.009  2.0278 -1.4156 -1.9322
  185SLPC  C21421290   7.135   6.290   8.085 -0.5659 -0.0775 -0.3756
  185SLPC  H14R21291   7.215   6.258   8.015  0.4861 -1.0114  1.2270
  185SLPC  H14S21292   7.077   6.210   8.137 -0.7066  1.4647  1.9467
  185SLPC  C21521293   7.194   6.354   8.220 -0.7080  0.7628 -0.1136
  185SLPC  H15R21294   7.118   6.330   8.297  0.1942  0.4851  0.7014
  185SLPC  H15S21295   7.210   6.463   8.206  1.5837  0.6309  1.1333
  185SLPC  C21621296   7.336   6.297   8.262 -0.1283 -0.3858 -0.8709
  185SLPC  H16R21297   7.393   6.276   8.169 -2.4516 -2.0683 -1.9714
  185SLPC  H16S21298   7.321   6.196   8.306  0.6225 -0.2615 -0.3207
  185SLPC  C21721299   7.422   6.377   8.354  0.0657 -0.3265 -0.4684
  185SLPC  H17R21300   7.447   6.478   8.315  0.7147 -0.6043 -0.7753
  185SLPC  H17S21301   7.516   6.320   8.365 -0.4298 -0.8099  1.4237
  185SLPC  C21821302   7.363   6.397   8.489 -0.2328 -0.3415 -0.3631
  185SLPC  H18R21303   7.284   6.474   8.479 -0.2547 -0.1534  1.1099
  185SLPC  H18S21304   7.429   6.430   8.572 -1.3883  0.2743  0.3265
  185SLPC  H18T21305   7.329   6.294   8.515 -3.2946  0.8098  0.4209
  185SLPC   C3321306   6.966   6.591   7.350  0.7955  0.0084 -0.1356
  185SLPC   H3X21307   7.075   6.615   7.354  1.0645 -0.9892 -1.0344
  185SLPC   H3Y21308   6.947   6.495   7.298 -1.0573 -0.1079  0.7275
  185SLPC   C3421309   6.925   6.562   7.493 -0.2751 -0.4817 -0.0738
  185SLPC   H4X21310   7.008   6.511   7.546  0.4287 -0.4413 -1.1465
  185SLPC   H4Y21311   6.834   6.498   7.497  0.3738 -1.3918  0.0567
  185SLPC   C3521312   6.900   6.689   7.574 -0.3047  0.1121 -0.1975
  185SLPC   H5X21313   6.808   6.739   7.538 -1.7893 -1.1330  1.7334
  185SLPC   H5Y21314   6.976   6.769   7.567 -0.6164  0.9609  4.1576
  185SLPC   C3621315   6.877   6.657   7.721 -0.3231  1.0329 -0.3141
  185SLPC   H6X21316   6.968   6.609   7.763 -1.0932 -1.2258 -1.1537
  185SLPC   H6Y21317   6.792   6.586   7.725  0.8218 -0.3337  0.4879
  185SLPC   C3721318   6.839   6.779   7.807 -0.6698 -0.0743 -0.1066
  185SLPC   H7X21319   6.738   6.820   7.785 -1.4604 -1.0753  1.5047
  185SLPC   H7Y21320   6.896   6.873   7.789 -0.8318  0.4177  1.8213
  185SLPC   C3821321   6.846   6.748   7.959  0.5519  0.2573  0.4541
  185SLPC   H8X21322   6.942   6.696   7.985  0.4422  0.4736  1.2868
  185SLPC   H8Y21323   6.760   6.681   7.979  1.3332 -0.7852  0.4199
  185SLPC   C3921324   6.823   6.879   8.040  0.9615 -0.2986  0.6810
  185SLPC   H9X21325   6.736   6.930   7.993  1.4516  0.6362  0.7611
  185SLPC   H9Y21326   6.911   6.944   8.020 -0.0311  0.8319 -0.0701
  185SLPC  C31021327   6.811   6.852   8.191 -0.2523  0.4273  0.1236
  185SLPC  H10X21328   6.725   6.785   8.210  1.6214 -1.6204  1.6452
  185SLPC  H10Y21329   6.784   6.944   8.246 -0.4956 -0.8777  2.2522
  185SLPC  C31121330   6.943   6.791   8.246 -0.4406  0.0167 -1.3847
  185SLPC  H11X21331   7.028   6.856   8.219  0.9462  0.1717  2.8793
  185SLPC  H11Y21332   6.957   6.688   8.207 -0.2275 -0.1337 -0.9255
  185SLPC  C31221333   6.956   6.780   8.407 -0.0024  0.9818  1.2501
  185SLPC  H12X21334   6.881   6.706   8.444 -0.1956  0.8241  0.5442
  185SLPC  H12Y21335   6.930   6.876   8.457  1.0804  2.1533 -0.4334
  185SLPC  C31321336   7.102   6.758   8.444 -0.7294 -0.0644 -0.1593
  185SLPC  H13X21337   7.165   6.828   8.385 -0.3473 -0.0831  0.2258
  185SLPC  H13Y21338   7.128   6.654   8.413 -2.5173 -1.1993  2.0698
  185SLPC  C31421339   7.135   6.772   8.596 -0.3709  0.3609 -1.0984
  185SLPC  H14X21340   7.129   6.678   8.655  1.4750 -0.0153 -1.4576
  185SLPC  H14Y21341   7.070   6.844   8.649  1.7166  1.1282  0.5055
  185SLPC  C31521342   7.293   6.807   8.618 -0.2742  0.0442 -0.5826
  185SLPC  H15X21343   7.330   6.888   8.552  2.3531  1.9550  3.0022
  185SLPC  H15Y21344   7.353   6.716   8.596  0.9564  1.1487 -1.8772
  185SLPC  C31621345   7.328   6.850   8.769  0.0644  0.2098  0.3260
  185SLPC  H16X21346   7.327   6.761   8.835  1.8018  0.5021  0.7648
  185SLPC  H16Y21347   7.255   6.924   8.809  2.3064  0.6153  3.9292
  185SLPC  C31721348   7.463   6.925   8.778  0.3192  1.1562 -1.0933
  185SLPC  H17X21349   7.541   6.859   8.735  0.2832  1.5332 -1.7377
  185SLPC  H17Y21350   7.475   6.940   8.888  2.3772  0.9055 -1.2616
  185SLPC  C31821351   7.463   7.060   8.708  0.1418 -0.9014  0.4223
  185SLPC  H18X21352   7.544   7.127   8.745 -0.4830  0.4941 -0.6938
  185SLPC  H18Y21353   7.372   7.123   8.721  1.6567  1.4604 -0.1901
  185SLPC  H18Z21354   7.476   7.047   8.599  1.6644 -0.6668  0.5690
  186SLPC     N21355   0.744   1.978   6.095 -0.0736  0.3583 -0.5445
  186SLPC   C1321356   0.866   1.903   6.050  0.0166 -0.4193 -0.2690
  186SLPC  H13A21357   0.961   1.939   6.089  0.0299 -0.2064 -0.4997
  186SLPC  H13B21358   0.859   1.804   6.092  1.1878  0.6499  2.6055
  186SLPC  H13C21359   0.867   1.890   5.943 -2.6270 -0.2824 -0.3528
  186SLPC   C1421360   0.620   1.894   6.071  0.0741 -0.5836  0.0653
  186SLPC  H14A21361   0.530   1.943   6.104  0.6866  0.4016  0.2779
  186SLPC  H14B21362   0.608   1.856   5.970  0.7812 -1.9849  0.4999
  186SLPC  H14C21363   0.631   1.812   6.141  1.1026 -1.2163 -0.8163
  186SLPC   C1521364   0.742   2.098   6.004 -0.1880 -0.5997  0.6623
  186SLPC  H15A21365   0.654   2.158   6.018 -1.8560 -2.4408 -1.5636
  186SLPC  H15B21366   0.832   2.157   6.015 -1.0819  0.3200  3.3501
  186SLPC  H15C21367   0.737   2.066   5.901  1.8462  3.3235 -0.7363
  186SLPC   C1221368   0.762   2.022   6.238  0.4897 -0.0435  0.0711
  186SLPC  H12A21369   0.849   2.084   6.251 -0.6322  1.0821  2.5741
  186SLPC  H12B21370   0.768   1.937   6.305  0.6269  0.1270  0.2750
  186SLPC   C1121371   0.657   2.111   6.302  0.5481  0.0142  0.1271
  186SLPC  H11A21372   0.669   2.210   6.253  1.0730 -0.4614 -0.7151
  186SLPC  H11B21373   0.694   2.128   6.405 -0.6828 -0.9676  0.7372
  186SLPC     P21374   0.397   2.158   6.282 -0.4348  0.1063 -0.0850
  186SLPC   O1321375   0.429   2.263   6.180 -0.1774 -0.0881 -0.0314
  186SLPC   O1421376   0.286   2.073   6.242  0.1079 -0.5118  0.0019
  186SLPC   O1221377   0.521   2.065   6.301  0.1711  0.2674 -0.2317
  186SLPC   O1121378   0.374   2.227   6.424  0.4163  0.5833  0.2382
  186SLPC    C121379   0.434   2.347   6.470  0.8514  0.6231 -0.1690
  186SLPC    HA21380   0.542   2.327   6.451  0.9982 -0.3145  1.5161
  186SLPC    HB21381   0.405   2.436   6.409  0.4381  0.3164 -0.4187
  186SLPC    C221382   0.429   2.378   6.620 -0.0209 -0.5845 -0.4250
  186SLPC    HS21383   0.511   2.445   6.655 -0.0666 -0.8435  0.1739
  186SLPC   O2121384   0.420   2.258   6.696 -0.4962 -0.3020 -0.2083
  186SLPC   C2121385   0.530   2.187   6.701 -0.1312  0.3305  0.0934
  186SLPC   O2221386   0.640   2.215   6.652  0.2257  0.0954 -0.0355
  186SLPC   C2221387   0.506   2.060   6.772 -0.4888  0.4387  0.0362
  186SLPC   H2R21388   0.404   2.057   6.817 -1.0166  1.1157 -1.0876
  186SLPC   H2S21389   0.489   1.987   6.690  1.0468  1.4986 -1.2491
  186SLPC    C321390   0.312   2.481   6.651  0.0009 -0.5908 -0.8421
  186SLPC    HX21391   0.218   2.436   6.614 -0.2071 -0.3302 -0.6381
  186SLPC    HY21392   0.342   2.574   6.598  2.0450 -0.2519  0.7975
  186SLPC   O3121393   0.309   2.513   6.794  0.0405 -0.2404  0.0163
  186SLPC   C3121394   0.228   2.424   6.862 -0.1324 -0.6275 -0.1670
  186SLPC   O3221395   0.155   2.339   6.817  0.5876  0.0447 -0.1052
  186SLPC   C3221396   0.252   2.459   7.007 -0.7199 -0.0361  0.6395
  186SLPC   H2X21397   0.159   2.510   7.039 -1.1947 -0.1457 -0.5540
  186SLPC   H2Y21398   0.339   2.528   7.007 -2.9656  2.8840 -1.0417
  186SLPC   C2321399   0.623   2.013   6.859  0.4317 -0.6771  0.6319
  186SLPC   H3R21400   0.668   2.092   6.924  1.8404  0.2454 -1.4095
  186SLPC   H3S21401   0.705   1.965   6.801  0.9439  1.5461 -0.5221
  186SLPC   C2421402   0.562   1.911   6.953  0.4792  0.8128 -0.9011
  186SLPC   H4R21403   0.642   1.847   6.997  0.5362  0.5055 -1.4552
  186SLPC   H4S21404   0.485   1.850   6.901 -0.1222 -0.6702  1.6595
  186SLPC   C2521405   0.499   1.975   7.083  0.7277 -1.0507  0.3398
  186SLPC   H5R21406   0.428   2.054   7.051  0.8011 -2.0819 -2.5199
  186SLPC   H5S21407   0.581   2.035   7.128 -0.3607  1.5046 -0.9932
  186SLPC   C2621408   0.438   1.872   7.174  0.4586  0.4867  0.3799
  186SLPC   H6R21409   0.429   1.905   7.280 -1.4322  0.3895  0.2660
  186SLPC   H6S21410   0.514   1.793   7.188  0.0532 -0.6194 -3.2386
  186SLPC   C2721411   0.305   1.813   7.125  0.6322 -0.7091  0.0576
  186SLPC   H7R21412   0.322   1.738   7.045  0.0135  0.4544 -1.1672
  186SLPC   H7S21413   0.233   1.890   7.089  0.9476 -0.0688  0.7844
  186SLPC   C2821414   0.231   1.754   7.250  0.1522  0.2502  0.2138
  186SLPC   H8R21415   0.124   1.733   7.227 -0.6991  1.3263  3.0023
  186SLPC   H8S21416   0.233   1.837   7.323 -0.2595 -0.1765  0.7165
  186SLPC   C2921417   0.295   1.628   7.301  0.0423 -0.5682 -0.0078
  186SLPC   H9R21418   0.325   1.556   7.223  0.3838  0.8999 -1.2755
  186SLPC  C21021419   0.307   1.603   7.428 -0.1519  0.1497  0.2757
  186SLPC  H10R21420   0.355   1.510   7.462 -2.9680 -1.7623 -0.7184
  186SLPC  C21121421   0.261   1.697   7.535  0.3468 -0.5182  0.2223
  186SLPC  H11R21422   0.203   1.785   7.501 -0.2284 -1.7326 -2.0443
  186SLPC  H11S21423   0.359   1.736   7.569 -0.1757  2.0115 -1.0348
  186SLPC  C21221424   0.193   1.620   7.646  0.0637 -0.2342  0.1293
  186SLPC  H12R21425   0.086   1.598   7.629  0.1493 -0.7114  0.2085
  186SLPC  C21321426   0.245   1.574   7.762 -0.5593  0.1597  0.1914
  186SLPC  H13R21427   0.191   1.507   7.831  1.6891 -0.1918  1.6710
  186SLPC  C21421428   0.396   1.586   7.805 -0.2381  0.3130 -0.5733
  186SLPC  H14R21429   0.458   1.610   7.716 -1.3628 -0.8199 -1.6699
  186SLPC  H14S21430   0.444   1.492   7.841 -0.1212  0.3058 -0.7483
  186SLPC  C21521431   0.421   1.706   7.902  0.1380  0.0170 -0.5580
  186SLPC  H15R21432   0.368   1.798   7.871  1.0644  0.2918 -1.3784
  186SLPC  H15S21433   0.528   1.734   7.889  0.1716 -0.5507 -1.5489
  186SLPC  C21621434   0.385   1.686   8.047  0.2920  0.6692 -0.3884
  186SLPC  H16R21435   0.433   1.591   8.080 -1.1221  0.2392  0.5246
  186SLPC  H16S21436   0.276   1.665   8.055  0.6337 -1.0913 -0.1858
  186SLPC  C21721437   0.422   1.809   8.128  0.3034 -0.2503  0.4538
  186SLPC  H17R21438   0.401   1.902   8.070  0.5094  0.1780  1.0557
  186SLPC  H17S21439   0.532   1.813   8.142  0.1291 -0.5513  2.0540
  186SLPC  C21821440   0.350   1.816   8.266 -0.5883  0.1234  0.1336
  186SLPC  H18R21441   0.387   1.736   8.334  2.1279 -0.8352 -2.3559
  186SLPC  H18S21442   0.240   1.813   8.250 -0.2971 -0.9816 -1.8570
  186SLPC  H18T21443   0.373   1.913   8.313 -3.4806  2.2538 -2.6094
  186SLPC   C3321444   0.299   2.331   7.085 -0.0799 -0.0725 -0.0292
  186SLPC   H3X21445   0.404   2.306   7.060  0.5218  1.8751  0.4280
  186SLPC   H3Y21446   0.242   2.243   7.048 -0.9336 -0.7170  2.7498
  186SLPC   C3421447   0.278   2.349   7.238  0.0877 -0.5916 -0.8668
  186SLPC   H4X21448   0.170   2.346   7.263  0.8153 -0.5864  2.4203
  186SLPC   H4Y21449   0.325   2.445   7.270  1.3111 -1.3113 -0.4499
  186SLPC   C3521450   0.345   2.234   7.313  0.0165  0.0670 -0.4708
  186SLPC   H5X21451   0.448   2.245   7.273  0.5376 -1.3623  0.4214
  186SLPC   H5Y21452   0.302   2.136   7.282  0.0186 -0.3035  0.6703
  186SLPC   C3621453   0.335   2.233   7.469 -0.4849  0.2289  0.3633
  186SLPC   H6X21454   0.229   2.257   7.491 -0.3587 -0.6705  2.0144
  186SLPC   H6Y21455   0.395   2.319   7.504  0.8990  1.3668 -4.4075
  186SLPC   C3721456   0.377   2.099   7.520 -0.8516  0.1166 -0.0928
  186SLPC   H7X21457   0.486   2.091   7.500 -0.6967 -0.5403  0.9491
  186SLPC   H7Y21458   0.332   2.016   7.462  1.2961 -1.3331  0.2495
  186SLPC   C3821459   0.337   2.088   7.673  0.0793  1.1568  0.4911
  186SLPC   H8X21460   0.370   1.989   7.711 -2.5701 -0.4961 -1.3540
  186SLPC   H8Y21461   0.227   2.082   7.662  0.0344  0.7192  1.1246
  186SLPC   C3921462   0.388   2.195   7.769 -0.3274 -0.1349  0.0860
  186SLPC   H9X21463   0.379   2.293   7.719 -1.6968 -0.1930  0.2005
  186SLPC   H9Y21464   0.495   2.179   7.794 -0.5008 -0.7317  0.4667
  186SLPC  C31021465   0.314   2.191   7.896 -0.0122 -0.5015 -0.1380
  186SLPC  H10X21466   0.318   2.091   7.944 -2.8744  0.5866  2.5386
  186SLPC  H10Y21467   0.205   2.209   7.889 -0.5483 -3.0920  1.0165
  186SLPC  C31121468   0.372   2.287   7.990 -0.1618  0.0283  0.1039
  186SLPC  H11X21469   0.337   2.390   7.967 -0.4319  0.1219  0.9172
  186SLPC  H11Y21470   0.481   2.300   7.976 -0.4145  0.5002 -1.5341
  186SLPC  C31221471   0.346   2.251   8.142  0.0208 -0.3256  0.4380
  186SLPC  H12X21472   0.446   2.237   8.188 -0.6109  1.1305  2.3057
  186SLPC  H12Y21473   0.302   2.150   8.156 -0.1532  0.0390  2.5870
  186SLPC  C31321474   0.266   2.358   8.212 -0.0992 -0.3347 -0.5977
  186SLPC  H13X21475   0.163   2.360   8.171 -0.3481 -2.1667 -0.1246
  186SLPC  H13Y21476   0.306   2.457   8.184  2.8670 -1.7337 -1.5506
  186SLPC  C31421477   0.266   2.350   8.364  0.4301 -0.4243 -0.2996
  186SLPC  H14X21478   0.369   2.354   8.404  1.3876  1.7856 -2.8512
  186SLPC  H14Y21479   0.229   2.252   8.401 -2.4622  0.4340 -0.8164
  186SLPC  C31521480   0.168   2.458   8.429  0.4844  0.4749  0.7114
  186SLPC  H15X21481   0.067   2.432   8.392  0.8848  0.5067 -0.4302
  186SLPC  H15Y21482   0.202   2.559   8.398 -0.2948  0.7060  0.5958
  186SLPC  C31621483   0.180   2.458   8.587  0.3319 -0.6225 -0.5459
  186SLPC  H16X21484   0.276   2.509   8.609  1.1559 -2.3553 -0.0734
  186SLPC  H16Y21485   0.156   2.360   8.633  1.2926 -0.6642 -0.1151
  186SLPC  C31721486   0.077   2.558   8.642  0.1426  0.4230 -1.0415
  186SLPC  H17X21487  -0.025   2.514   8.641 -0.2417  1.3013 -1.4812
  186SLPC  H17Y21488   0.082   2.654   8.586  0.5558  2.2373  1.9904
  186SLPC  C31821489   0.098   2.594   8.790 -0.4322  0.2923 -0.1541
  186SLPC  H18X21490   0.005   2.644   8.823 -0.6948  0.5523 -1.2952
  186SLPC  H18Y21491   0.178   2.669   8.806  1.3520 -2.1462  3.1255
  186SLPC  H18Z21492   0.122   2.511   8.860 -1.5459 -1.3418 -1.6634
  187SLPC     N21493   0.832   5.974   6.386 -0.4831  0.5597  0.0426
  187SLPC   C1321494   0.760   5.904   6.497  0.2747 -0.1822 -0.1975
  187SLPC  H13A21495   0.830   5.868   6.570  3.9132  0.3258 -3.2479
  187SLPC  H13B21496   0.707   5.974   6.561  0.6742  0.2890 -0.3748
  187SLPC  H13C21497   0.690   5.832   6.457 -0.3868 -0.2196  1.0221
  187SLPC   C1421498   0.725   6.020   6.287  0.3402  0.1756 -0.4449
  187SLPC  H14A21499   0.662   6.086   6.344  0.3747  1.2836 -1.6702
  187SLPC  H14B21500   0.764   6.086   6.211  1.7758  0.4879  0.5420
  187SLPC  H14C21501   0.669   5.942   6.237  0.0331 -1.1346  1.8381
  187SLPC   C1521502   0.919   5.877   6.319  0.4602  0.2262 -0.4705
  187SLPC  H15A21503   0.856   5.802   6.274 -0.8380  0.6912  0.5515
  187SLPC  H15B21504   0.975   5.934   6.247  1.3980  0.7213  0.6458
  187SLPC  H15C21505   0.992   5.842   6.391 -1.9567  0.2621  2.0953
  187SLPC   C1221506   0.905   6.091   6.445  0.8341 -0.3723  0.9575
  187SLPC  H12A21507   0.838   6.172   6.466  2.4223  1.1281  0.2937
  187SLPC  H12B21508   0.970   6.129   6.368 -2.3911  1.3645 -0.9846
  187SLPC   C1121509   1.001   6.053   6.567 -0.4482 -0.2041  0.0352
  187SLPC  H11A21510   0.949   5.996   6.647  1.4022 -1.1779  0.5688
  187SLPC  H11B21511   1.030   6.151   6.611  0.6241  0.3902 -1.9063
  187SLPC     P21512   1.238   6.031   6.453 -0.3175  0.1013  0.0906
  187SLPC   O1321513   1.279   5.935   6.352  0.3117  0.7159 -0.2008
  187SLPC   O1421514   1.202   6.168   6.401 -0.1829  0.3439  0.6872
  187SLPC   O1221515   1.111   5.973   6.531 -0.1433  0.3734 -0.0521
  187SLPC   O1121516   1.356   6.038   6.562  0.9396  0.2267  0.4554
  187SLPC    C121517   1.366   6.115   6.677 -0.0799  0.5114 -0.6021
  187SLPC    HA21518   1.471   6.143   6.701 -0.4158  1.6380 -0.4492
  187SLPC    HB21519   1.307   6.209   6.674  0.0402  0.5578 -2.3315
  187SLPC    C221520   1.309   6.039   6.793  0.0769  0.3005  0.0112
  187SLPC    HS21521   1.199   6.032   6.777  0.0646  0.3741  0.0649
  187SLPC   O2121522   1.338   6.115   6.916  1.1507  0.5005  0.1889
  187SLPC   C2121523   1.260   6.083   7.014  0.1869  0.1400  0.2801
  187SLPC   O2221524   1.163   6.011   7.019  0.2863 -0.4482  0.2446
  187SLPC   C2221525   1.308   6.157   7.142  0.4774 -0.4580 -0.0076
  187SLPC   H2R21526   1.419   6.165   7.144  0.4420  0.2861 -0.7310
  187SLPC   H2S21527   1.252   6.253   7.139 -0.0143 -0.7585 -0.5639
  187SLPC    C321528   1.380   5.898   6.793  0.9267  0.2768  0.4030
  187SLPC    HX21529   1.491   5.906   6.804  0.9838 -1.7061  1.5354
  187SLPC    HY21530   1.365   5.843   6.698 -2.0562 -1.6498  1.9206
  187SLPC   O3121531   1.345   5.825   6.918  0.1632  0.0451  0.0745
  187SLPC   C3121532   1.263   5.722   6.891 -0.1591 -0.3432  0.1510
  187SLPC   O3221533   1.210   5.693   6.784 -0.1017 -0.1763  0.3607
  187SLPC   C3221534   1.239   5.638   7.015  0.3516  0.8323  0.2133
  187SLPC   H2X21535   1.310   5.555   6.995  0.3307  1.2887 -1.8295
  187SLPC   H2Y21536   1.138   5.592   7.016  0.7372 -0.0747 -0.6713
  187SLPC   C2321537   1.288   6.090   7.282 -0.3555 -0.2806  0.1452
  187SLPC   H3R21538   1.304   5.981   7.272  0.5376 -0.4005  2.4740
  187SLPC   H3S21539   1.181   6.081   7.311 -0.5853  1.4084 -0.1180
  187SLPC   C2421540   1.373   6.159   7.391  0.4082 -0.3983  0.6296
  187SLPC   H4R21541   1.333   6.257   7.424  0.3783 -1.1567  3.0005
  187SLPC   H4S21542   1.479   6.167   7.358  0.2098 -2.1191 -0.5166
  187SLPC   C2521543   1.378   6.075   7.522  0.1403 -0.3296 -0.1894
  187SLPC   H5R21544   1.449   5.992   7.502 -0.0763 -0.7425  0.7592
  187SLPC   H5S21545   1.279   6.032   7.547 -1.8750  3.5337 -1.0620
  187SLPC   C2621546   1.433   6.159   7.639 -0.2812 -0.2845  0.5666
  187SLPC   H6R21547   1.435   6.089   7.725 -0.8796  1.2678  1.8823
  187SLPC   H6S21548   1.363   6.244   7.654 -1.3556 -0.7336 -1.6922
  187SLPC   C2721549   1.569   6.228   7.625 -0.5496  0.3607  0.5292
  187SLPC   H7R21550   1.554   6.299   7.541 -2.1580 -2.0917 -1.2873
  187SLPC   H7S21551   1.637   6.146   7.596 -2.5655 -1.3896  0.6617
  187SLPC   C2821552   1.622   6.289   7.753  0.1137  0.8325  0.4429
  187SLPC   H8R21553   1.614   6.205   7.826 -0.4419 -0.9711 -1.6589
  187SLPC   H8S21554   1.555   6.376   7.774  0.6399  1.2719  0.3008
  187SLPC   C2921555   1.761   6.341   7.752  0.0266 -0.6596  0.7780
  187SLPC   H9R21556   1.785   6.430   7.691  1.2733 -0.3261  1.7441
  187SLPC  C21021557   1.864   6.298   7.826  0.0686 -0.5152 -0.1728
  187SLPC  H10R21558   1.961   6.349   7.815 -0.2463  0.5340  1.7429
  187SLPC  C21121559   1.858   6.175   7.923 -0.0581 -0.3763  0.5926
  187SLPC  H11R21560   1.954   6.119   7.933  0.3214  0.0878 -0.3821
  187SLPC  H11S21561   1.787   6.097   7.886 -0.8966  0.6857 -0.0656
  187SLPC  C21221562   1.803   6.211   8.060  0.0975  0.0661  0.3528
  187SLPC  H12R21563   1.728   6.291   8.063 -0.3124 -0.3466  3.4214
  187SLPC  C21321564   1.829   6.143   8.177  0.5982 -0.3753 -0.3055
  187SLPC  H13R21565   1.786   6.174   8.274 -4.1047 -0.4072 -2.2242
  187SLPC  C21421566   1.927   6.035   8.202  0.0935  0.1794  0.1841
  187SLPC  H14R21567   2.034   6.060   8.186 -0.2911  0.7009 -1.7779
  187SLPC  H14S21568   1.918   5.956   8.124  2.0998 -0.0444  0.1533
  187SLPC  C21521569   1.911   5.944   8.325  0.2594  0.2544  0.6420
  187SLPC  H15R21570   1.805   5.911   8.322  0.4927 -0.6132  1.7209
  187SLPC  H15S21571   1.924   5.996   8.422  0.8914 -1.0896  1.2982
  187SLPC  C21621572   2.000   5.819   8.324  0.4900  0.5901 -0.7487
  187SLPC  H16R21573   1.994   5.759   8.230 -3.4482  0.8405 -0.7420
  187SLPC  H16S21574   1.977   5.759   8.414 -0.4242  2.6611  0.4416
  187SLPC  C21721575   2.142   5.862   8.353  0.2453 -0.3762 -0.9362
  187SLPC  H17R21576   2.126   5.913   8.450 -1.8943 -1.1092 -0.8631
  187SLPC  H17S21577   2.169   5.935   8.273 -1.1001  0.5300 -0.5909
  187SLPC  C21821578   2.243   5.753   8.382  0.3618 -0.4944  0.4125
  187SLPC  H18R21579   2.207   5.692   8.467  0.9602  1.8650  2.4035
  187SLPC  H18S21580   2.341   5.802   8.399 -0.4374  1.4521 -0.5427
  187SLPC  H18T21581   2.260   5.687   8.294  1.1759 -1.1353  1.0447
  187SLPC   C3321582   1.289   5.698   7.141  0.4066 -0.2509  0.7834
  187SLPC   H3X21583   1.238   5.795   7.159  0.5984 -0.5282  2.9676
  187SLPC   H3Y21584   1.400   5.703   7.145  0.5979  0.4761 -3.2431
  187SLPC   C3421585   1.237   5.619   7.264 -0.5339 -0.5898 -0.3643
  187SLPC   H4X21586   1.149   5.554   7.245 -1.0282 -0.2145  0.5834
  187SLPC   H4Y21587   1.196   5.695   7.335 -1.8701 -1.3092 -0.3389
  187SLPC   C3521588   1.341   5.526   7.340  0.0491  0.1909 -0.6553
  187SLPC   H5X21589   1.438   5.581   7.343  0.3895 -0.4136 -0.5040
  187SLPC   H5Y21590   1.365   5.429   7.293 -2.3964  0.4242 -2.4521
  187SLPC   C3621591   1.285   5.499   7.484 -0.8877  0.1256 -0.7954
  187SLPC   H6X21592   1.193   5.438   7.472 -0.7920 -0.2501  0.2717
  187SLPC   H6Y21593   1.265   5.601   7.525 -0.1491  0.3293 -0.9195
  187SLPC   C3721594   1.393   5.431   7.571  0.0353 -0.2521 -0.4517
  187SLPC   H7X21595   1.407   5.331   7.524  0.6953 -0.5245  0.2996
  187SLPC   H7Y21596   1.489   5.486   7.554  0.4527 -0.6185  0.6562
  187SLPC   C3821597   1.358   5.420   7.722 -0.0244 -0.1353 -0.6575
  187SLPC   H8X21598   1.254   5.382   7.715 -0.1801 -0.0396  0.9508
  187SLPC   H8Y21599   1.353   5.523   7.764 -2.3647 -0.9536  1.1673
  187SLPC   C3921600   1.458   5.337   7.802 -0.1341 -0.3185  0.3499
  187SLPC   H9X21601   1.551   5.398   7.799 -0.7270  0.6125  0.6409
  187SLPC   H9Y21602   1.471   5.240   7.750 -0.2897 -0.9523  1.4711
  187SLPC  C31021603   1.433   5.326   7.955 -0.2761 -0.1791  0.1790
  187SLPC  H10X21604   1.339   5.269   7.973 -0.5741  0.0869 -0.5135
  187SLPC  H10Y21605   1.409   5.423   8.003  1.2920 -0.3757  1.3669
  187SLPC  C31121606   1.553   5.262   8.029  0.4792  0.5860  1.4070
  187SLPC  H11X21607   1.644   5.282   7.968 -0.4419 -1.5336 -0.7198
  187SLPC  H11Y21608   1.534   5.153   8.029  1.5072  0.3906 -0.4459
  187SLPC  C31221609   1.567   5.313   8.180 -0.2548  0.3595  0.1158
  187SLPC  H12X21610   1.624   5.233   8.232 -0.3066  0.8545  0.9334
  187SLPC  H12Y21611   1.467   5.321   8.226  0.1013 -0.5545  1.0603
  187SLPC  C31321612   1.649   5.443   8.199  0.2198  0.0447 -0.6544
  187SLPC  H13X21613   1.616   5.512   8.119  1.1086 -0.8691 -1.8404
  187SLPC  H13Y21614   1.757   5.430   8.176  0.6314 -0.0677  1.2935
  187SLPC  C31421615   1.632   5.496   8.339  0.2717 -0.1427  0.3953
  187SLPC  H14X21616   1.666   5.417   8.409 -3.2701 -0.7608  1.4925
  187SLPC  H14Y21617   1.529   5.527   8.367  0.1796  0.6131 -0.7472
  187SLPC  C31521618   1.709   5.622   8.352 -0.1538  0.5240  0.0338
  187SLPC  H15X21619   1.662   5.692   8.279  3.4166  0.2545 -2.7042
  187SLPC  H15Y21620   1.815   5.615   8.318  0.3842 -1.0951  1.9444
  187SLPC  C31621621   1.707   5.693   8.493  0.1447 -0.0202  0.1622
  187SLPC  H16X21622   1.600   5.713   8.515  0.2236  0.3097  0.2461
  187SLPC  H16Y21623   1.753   5.794   8.487 -2.4209  1.0221 -3.6909
  187SLPC  C31721624   1.771   5.603   8.605  0.6161  0.6947  0.5081
  187SLPC  H17X21625   1.874   5.588   8.565  0.5945  0.8415  0.3935
  187SLPC  H17Y21626   1.720   5.505   8.606  0.9107  0.5432  2.9468
  187SLPC  C31821627   1.769   5.664   8.740 -0.0066 -0.7873  0.5772
  187SLPC  H18X21628   1.662   5.667   8.769 -0.3384  0.5593 -0.7111
  187SLPC  H18Y21629   1.799   5.771   8.735 -1.2077 -0.4656  0.2163
  187SLPC  H18Z21630   1.836   5.611   8.811  0.4390  1.5933  1.9851
  188SLPC     N21631   2.960   0.744   6.149  0.0255 -0.3795 -0.7193
  188SLPC   C1321632   2.979   0.892   6.139 -0.0346  0.4553 -0.3682
  188SLPC  H13A21633   2.875   0.918   6.139  0.1548  1.2258  0.1493
  188SLPC  H13B21634   3.039   0.921   6.225  1.0184  0.0478 -0.9599
  188SLPC  H13C21635   3.031   0.937   6.056 -1.2890 -1.9505 -2.5066
  188SLPC   C1421636   3.101   0.674   6.145 -0.2110  0.4760  0.0334
  188SLPC  H14A21637   3.167   0.719   6.217  1.4389 -1.3501 -0.3167
  188SLPC  H14B21638   3.098   0.570   6.175 -0.2142  0.0336 -1.4488
  188SLPC  H14C21639   3.145   0.683   6.047 -0.3989 -3.2472 -0.4473
  188SLPC   C1521640   2.883   0.694   6.032  0.1836  0.4097  0.2491
  188SLPC  H15A21641   2.865   0.588   6.023 -0.0658  0.3811  1.0844
  188SLPC  H15B21642   2.782   0.733   6.029 -0.6152 -1.4665  1.7124
  188SLPC  H15C21643   2.927   0.736   5.943  1.9666  0.3489  1.0861
  188SLPC   C1221644   2.902   0.701   6.278  0.6911  0.4863  0.2210
  188SLPC  H12A21645   2.976   0.698   6.357  0.5264  0.9259  0.3962
  188SLPC  H12B21646   2.894   0.596   6.255  0.5152  0.0412  2.2409
  188SLPC   C1121647   2.769   0.758   6.337 -0.3583 -0.3007  0.2661
  188SLPC  H11A21648   2.783   0.865   6.364 -0.4396  0.1374 -1.3537
  188SLPC  H11B21649   2.752   0.712   6.436 -2.1198 -0.8139 -0.2497
  188SLPC     P21650   2.582   0.593   6.235 -0.1246  0.1006 -0.7542
  188SLPC   O1321651   2.466   0.615   6.149  0.4228 -0.2578 -0.1824
  188SLPC   O1421652   2.676   0.488   6.189  0.6565 -0.3921 -0.6836
  188SLPC   O1221653   2.659   0.732   6.246  0.0649  0.7148 -0.1717
  188SLPC   O1121654   2.533   0.545   6.382 -0.3119  0.4224 -0.0278
  188SLPC    C121655   2.448   0.628   6.453  0.1391  0.3366 -0.7097
  188SLPC    HA21656   2.496   0.724   6.480  0.2537 -0.6547  2.8157
  188SLPC    HB21657   2.356   0.642   6.392 -0.2320  0.8429 -0.0313
  188SLPC    C221658   2.392   0.557   6.576 -0.3014 -0.1311 -0.7836
  188SLPC    HS21659   2.316   0.627   6.618 -0.8571 -0.2895 -1.5176
  188SLPC   O2121660   2.496   0.528   6.670  0.1910  0.8046 -0.5625
  188SLPC   C2121661   2.533   0.634   6.740 -0.0954  0.4928 -0.0702
  188SLPC   O2221662   2.485   0.749   6.729 -0.9325  0.3407  0.3741
  188SLPC   C2221663   2.638   0.593   6.835 -0.4975 -0.0867  0.1856
  188SLPC   H2R21664   2.602   0.503   6.890  1.6635 -1.4016 -0.5203
  188SLPC   H2S21665   2.716   0.558   6.765 -0.5762  0.7158 -0.3115
  188SLPC    C321666   2.325   0.424   6.535  0.1809  0.0699 -0.0939
  188SLPC    HX21667   2.412   0.358   6.512  0.2475  0.5938 -1.3965
  188SLPC    HY21668   2.260   0.430   6.445 -1.9314 -0.3271  1.3828
  188SLPC   O3121669   2.252   0.363   6.643 -0.0704 -0.2333 -0.8486
  188SLPC   C3121670   2.146   0.436   6.685  0.1636 -0.6432 -0.0453
  188SLPC   O3221671   2.111   0.542   6.641 -0.0496 -0.9000 -0.5307
  188SLPC   C3221672   2.082   0.361   6.805 -0.1619 -0.0948 -0.4135
  188SLPC   H2X21673   2.162   0.341   6.879 -0.2156  0.0613 -0.3117
  188SLPC   H2Y21674   2.063   0.256   6.772 -0.4256  0.1152 -0.9431
  188SLPC   C2321675   2.685   0.700   6.934 -0.2589 -0.8076 -0.1059
  188SLPC   H3R21676   2.608   0.780   6.945 -0.1054 -0.6994  0.1902
  188SLPC   H3S21677   2.773   0.757   6.900 -2.1872  1.4787 -1.4278
  188SLPC   C2421678   2.702   0.644   7.073  1.0158  0.0879  0.3709
  188SLPC   H4R21679   2.773   0.558   7.069  0.7227 -0.0916 -1.1484
  188SLPC   H4S21680   2.598   0.618   7.100  0.2431  2.6892  0.0800
  188SLPC   C2521681   2.744   0.751   7.178  0.4422  0.0511  0.3415
  188SLPC   H5R21682   2.660   0.818   7.204  1.7025  2.3446 -1.3207
  188SLPC   H5S21683   2.827   0.808   7.131  1.2563 -0.4630  1.1322
  188SLPC   C2621684   2.782   0.672   7.304 -0.1544 -0.4497  0.4717
  188SLPC   H6R21685   2.874   0.612   7.284  1.8955  3.3073 -2.1045
  188SLPC   H6S21686   2.693   0.616   7.340 -0.1574 -1.1742 -0.6320
  188SLPC   C2721687   2.824   0.751   7.433 -0.3021  0.1363  0.1328
  188SLPC   H7R21688   2.753   0.828   7.469 -0.8772 -1.0715  1.6451
  188SLPC   H7S21689   2.910   0.816   7.410 -2.2838  1.8047 -2.7619
  188SLPC   C2821690   2.869   0.649   7.542  0.1618  0.0213  0.3848
  188SLPC   H8R21691   2.937   0.581   7.486 -1.7332 -2.5190  1.0564
  188SLPC   H8S21692   2.775   0.598   7.571  0.8606 -1.2140  0.5161
  188SLPC   C2921693   2.954   0.710   7.648 -0.6404 -1.0521 -0.1847
  188SLPC   H9R21694   3.040   0.773   7.621 -0.1725 -2.0356 -1.0446
  188SLPC  C21021695   2.931   0.691   7.778 -0.2982 -0.0481  0.1485
  188SLPC  H10R21696   2.996   0.747   7.846 -0.6828  0.0920  0.4011
  188SLPC  C21121697   2.819   0.617   7.844 -0.5475  0.6319  0.7931
  188SLPC  H11R21698   2.877   0.552   7.914  1.5736 -0.4244 -1.8564
  188SLPC  H11S21699   2.769   0.541   7.781 -0.8868  2.0059 -0.6336
  188SLPC  C21221700   2.719   0.698   7.915 -0.4714 -0.0072  0.1391
  188SLPC  H12R21701   2.645   0.756   7.857  0.2418  0.4827 -0.2831
  188SLPC  C21321702   2.700   0.719   8.046  0.2618  0.2216 -0.1299
  188SLPC  H13R21703   2.633   0.804   8.069 -2.5917 -2.2573  1.0091
  188SLPC  C21421704   2.779   0.672   8.163 -0.0507 -0.3491 -0.8355
  188SLPC  H14R21705   2.862   0.744   8.184  0.5246 -1.4285  0.6876
  188SLPC  H14S21706   2.818   0.571   8.138  2.0399  0.4242 -0.8179
  188SLPC  C21521707   2.696   0.653   8.294 -0.0764  0.4157 -0.4421
  188SLPC  H15R21708   2.686   0.752   8.345 -2.1761  0.5638 -1.0734
  188SLPC  H15S21709   2.767   0.592   8.353 -0.6398  1.2516  1.1566
  188SLPC  C21621710   2.562   0.578   8.282  0.4039 -0.4365 -0.3160
  188SLPC  H16R21711   2.584   0.488   8.220 -0.7280 -1.3535  0.5907
  188SLPC  H16S21712   2.487   0.648   8.240  1.3907  0.9364  0.1715
  188SLPC  C21721713   2.512   0.533   8.419  0.0811  0.2787 -0.0651
  188SLPC  H17R21714   2.598   0.487   8.473  2.5178  2.4951 -1.9106
  188SLPC  H17S21715   2.440   0.455   8.387 -2.4549  2.1214  0.9916
  188SLPC  C21821716   2.435   0.644   8.495  0.2085  0.6418  0.2542
  188SLPC  H18R21717   2.504   0.727   8.519  1.5771 -0.7465  1.2244
  188SLPC  H18S21718   2.401   0.603   8.593 -0.4619  1.3783  0.3387
  188SLPC  H18T21719   2.347   0.679   8.437 -0.5138  2.2581  2.2934
  188SLPC   C3321720   1.963   0.425   6.878 -1.2195 -0.1734 -0.9148
  188SLPC   H3X21721   1.906   0.352   6.939  1.2176  0.3081  2.0588
  188SLPC   H3Y21722   1.881   0.454   6.809 -2.3569  1.8230  1.1827
  188SLPC   C3421723   2.006   0.551   6.963 -0.2039 -0.0674  0.2815
  188SLPC   H4X21724   1.918   0.595   7.015  0.7319  0.2939  1.6010
  188SLPC   H4Y21725   2.024   0.645   6.907 -0.3648  0.2642  0.7791
  188SLPC   C3521726   2.124   0.536   7.060  0.8347  0.5423  0.3164
  188SLPC   H5X21727   2.215   0.543   6.996 -1.1974  0.4492 -2.7215
  188SLPC   H5Y21728   2.126   0.437   7.110 -0.9952  1.0900  1.5143
  188SLPC   C3621729   2.133   0.625   7.183 -0.3653 -0.1787  0.2820
  188SLPC   H6X21730   2.046   0.607   7.250 -1.7152  1.8821 -0.8699
  188SLPC   H6Y21731   2.132   0.731   7.150 -0.1448  0.5181  2.4280
  188SLPC   C3721732   2.270   0.602   7.249  0.1229  0.4554  0.0078
  188SLPC   H7X21733   2.350   0.647   7.188  0.4148 -0.9790 -0.6921
  188SLPC   H7Y21734   2.288   0.494   7.266 -2.6190  0.0501  0.6012
  188SLPC   C3821735   2.276   0.672   7.385 -0.6738 -0.3069  0.7097
  188SLPC   H8X21736   2.193   0.620   7.436 -0.3742 -1.5948 -0.0850
  188SLPC   H8Y21737   2.264   0.782   7.375 -0.0125 -0.4270 -1.6180
  188SLPC   C3921738   2.399   0.633   7.466  0.2456 -0.1018 -0.1348
  188SLPC   H9X21739   2.492   0.655   7.408 -0.3356 -0.0257 -1.0445
  188SLPC   H9Y21740   2.394   0.527   7.500 -1.5607 -0.0789 -0.2847
  188SLPC  C31021741   2.417   0.726   7.588 -0.0961 -0.4830 -0.6924
  188SLPC  H10X21742   2.446   0.828   7.556 -1.9706 -0.1691 -1.4071
  188SLPC  H10Y21743   2.508   0.681   7.635 -1.1065 -1.8592 -0.0382
  188SLPC  C31121744   2.296   0.729   7.685 -0.4286 -0.0764 -0.6988
  188SLPC  H11X21745   2.256   0.626   7.679 -0.2287 -0.0925 -1.9967
  188SLPC  H11Y21746   2.224   0.808   7.657 -0.5962 -0.7926 -2.3323
  188SLPC  C31221747   2.336   0.755   7.833  0.0793 -0.4628  0.4575
  188SLPC  H12X21748   2.408   0.840   7.838 -1.8893  1.2076  1.2039
  188SLPC  H12Y21749   2.390   0.668   7.877  0.2220  0.4200  2.0869
  188SLPC  C31321750   2.219   0.788   7.924 -0.8691 -0.7474 -0.0145
  188SLPC  H13X21751   2.134   0.826   7.862  0.5892  2.6683 -0.0537
  188SLPC  H13Y21752   2.231   0.874   7.993 -0.1560 -1.7585  1.1332
  188SLPC  C31421753   2.183   0.680   8.022  0.1359  0.3164  0.4767
  188SLPC  H14X21754   2.260   0.682   8.102 -0.5081  0.3938  1.0939
  188SLPC  H14Y21755   2.205   0.587   7.966  1.1959  0.8347  0.0186
  188SLPC  C31521756   2.042   0.683   8.080 -0.3141 -0.2400  0.3887
  188SLPC  H15X21757   1.966   0.685   8.000 -0.4995  1.3932  0.5864
  188SLPC  H15Y21758   2.021   0.768   8.149  0.4613  0.8392 -0.6753
  188SLPC  C31621759   2.027   0.557   8.164  0.3295  0.3636 -0.5412
  188SLPC  H16X21760   2.105   0.555   8.243  1.1882 -2.1820 -1.4029
  188SLPC  H16Y21761   2.045   0.469   8.099 -0.0352 -1.6254  1.9916
  188SLPC  C31721762   1.890   0.534   8.221 -0.2636 -0.3026  0.1107
  188SLPC  H17X21763   1.870   0.600   8.309  1.7881 -1.1488  1.2394
  188SLPC  H17Y21764   1.890   0.436   8.272  2.2892 -0.3752  0.0206
  188SLPC  C31821765   1.781   0.552   8.122 -0.8106 -0.2219 -0.4030
  188SLPC  H18X21766   1.793   0.479   8.038 -0.2278 -0.4037 -0.1641
  188SLPC  H18Y21767   1.783   0.652   8.073  0.2192  0.6914  1.4723
  188SLPC  H18Z21768   1.681   0.552   8.170  0.0569 -0.6206  1.4501
  189SLPC     N21769   3.030   2.211   6.170 -0.1148  0.4349 -0.3520
  189SLPC   C1321770   2.995   2.350   6.217 -0.1098  0.6306  0.2346
  189SLPC  H13A21771   2.944   2.348   6.313 -1.8256 -0.3993 -0.6745
  189SLPC  H13B21772   3.082   2.411   6.236 -0.3214  0.1932  2.8674
  189SLPC  H13C21773   2.935   2.399   6.142 -0.4916  1.9747  1.3903
  189SLPC   C1421774   3.113   2.217   6.041 -0.7679 -0.4579 -0.0392
  189SLPC  H14A21775   3.198   2.282   6.055  2.5353 -4.9720  2.0620
  189SLPC  H14B21776   3.161   2.124   6.014 -1.2187 -1.0434  1.1712
  189SLPC  H14C21777   3.053   2.248   5.956  1.1259  0.6829 -1.0106
  189SLPC   C1521778   2.901   2.137   6.142  0.3231  0.1399 -0.0907
  189SLPC  H15A21779   2.836   2.129   6.228  1.5609 -2.6997  0.6204
  189SLPC  H15B21780   2.850   2.187   6.061  0.2543  0.2466  0.0193
  189SLPC  H15C21781   2.916   2.033   6.116  0.1110 -0.0362  0.4793
  189SLPC   C1221782   3.106   2.138   6.287 -0.5184  0.1368 -0.0195
  189SLPC  H12A21783   3.043   2.146   6.374 -3.1808 -0.1664 -1.8685
  189SLPC  H12B21784   3.195   2.193   6.315  0.5030  0.3771 -3.5017
  189SLPC   C1121785   3.135   1.986   6.271  0.0161 -0.6884  0.5989
  189SLPC  H11A21786   3.032   1.945   6.263 -0.1905 -0.2013  0.6727
  189SLPC  H11B21787   3.179   1.936   6.360 -2.2343 -1.5524  1.2659
  189SLPC     P21788   3.367   1.995   6.160  0.0378 -0.2319 -0.0654
  189SLPC   O1321789   3.438   1.876   6.196  0.8489  0.3180 -0.0179
  189SLPC   O1421790   3.408   2.043   6.031  0.3193 -0.2194 -0.3233
  189SLPC   O1221791   3.214   1.953   6.157  0.1248 -0.3024  0.6171
  189SLPC   O1121792   3.379   2.112   6.271  0.7059 -0.4343  0.0484
  189SLPC    C121793   3.505   2.153   6.324  0.0293 -0.6776  0.0273
  189SLPC    HA21794   3.570   2.069   6.354  0.4332 -0.0716  0.8734
  189SLPC    HB21795   3.557   2.218   6.250 -1.2280  0.5447  0.1941
  189SLPC    C221796   3.471   2.233   6.447  0.2411  0.3625  0.2307
  189SLPC    HS21797   3.387   2.300   6.420  1.3293  1.1797 -1.1716
  189SLPC   O2121798   3.590   2.290   6.497 -0.2617  0.4092 -0.3758
  189SLPC   C2121799   3.615   2.414   6.462  0.3791  0.0128 -0.5406
  189SLPC   O2221800   3.542   2.481   6.389 -0.2859  0.4018  0.3896
  189SLPC   C2221801   3.741   2.475   6.528  0.7638 -0.8277 -0.5770
  189SLPC   H2R21802   3.830   2.408   6.525  0.5220 -1.3171  2.3276
  189SLPC   H2S21803   3.768   2.565   6.467 -0.3340  0.0574  0.2251
  189SLPC    C321804   3.411   2.145   6.558  0.0745 -0.1070 -0.5178
  189SLPC    HX21805   3.485   2.063   6.573  0.2181 -0.2326 -1.8867
  189SLPC    HY21806   3.321   2.087   6.529  0.7015 -1.8588  0.9139
  189SLPC   O3121807   3.384   2.209   6.682 -0.6148 -0.5266  0.3827
  189SLPC   C3121808   3.403   2.129   6.791  0.2258 -0.2009  0.1526
  189SLPC   O3221809   3.416   2.010   6.793 -0.6079  0.1834 -0.6505
  189SLPC   C3221810   3.374   2.210   6.915  0.3250 -0.4153 -0.3665
  189SLPC   H2X21811   3.283   2.273   6.904  3.5564  4.1438 -2.5494
  189SLPC   H2Y21812   3.463   2.276   6.927 -0.8346  1.4731 -1.7339
  189SLPC   C2321813   3.707   2.526   6.669  0.1558  0.3603 -0.5713
  189SLPC   H3R21814   3.616   2.590   6.666 -0.1704 -0.1088 -0.8343
  189SLPC   H3S21815   3.794   2.589   6.698  1.6451 -1.6685 -0.5426
  189SLPC   C2421816   3.709   2.409   6.777  0.5134 -0.4483 -0.1541
  189SLPC   H4R21817   3.799   2.351   6.747 -0.1033 -1.0203 -0.9288
  189SLPC   H4S21818   3.619   2.345   6.764 -2.3488  2.7325  2.7836
  189SLPC   C2521819   3.713   2.443   6.926 -0.0762 -0.0987  0.8500
  189SLPC   H5R21820   3.699   2.352   6.989 -2.0555  0.1741  0.8235
  189SLPC   H5S21821   3.635   2.518   6.950  0.5651  1.0454 -0.5792
  189SLPC   C2621822   3.844   2.508   6.977  1.1052  0.1193 -0.5914
  189SLPC   H6R21823   3.869   2.595   6.912 -3.5108  1.5748 -0.6200
  189SLPC   H6S21824   3.921   2.430   6.961  1.6583  1.1216 -3.2200
  189SLPC   C2721825   3.849   2.559   7.126  0.2657  0.1484  0.2377
  189SLPC   H7R21826   3.794   2.656   7.124  0.3082  0.1915  0.9302
  189SLPC   H7S21827   3.956   2.587   7.140  0.4803  0.1397 -1.2611
  189SLPC   C2821828   3.803   2.462   7.232  0.2449  0.3417  0.3820
  189SLPC   H8R21829   3.699   2.430   7.209  0.1335  1.0648 -0.1535
  189SLPC   H8S21830   3.785   2.518   7.326 -0.7924 -0.0353  0.4124
  189SLPC   C2921831   3.895   2.348   7.245  0.0113 -0.0642 -0.3047
  189SLPC   H9R21832   3.868   2.263   7.180  1.3894 -0.8017  0.0561
  189SLPC  C21021833   3.995   2.340   7.330 -0.6767  0.2243  0.3815
  189SLPC  H10R21834   4.052   2.246   7.330 -1.3235 -0.1730  1.8927
  189SLPC  C21121835   4.028   2.441   7.433 -0.8744 -0.8590  0.7705
  189SLPC  H11R21836   3.929   2.480   7.466 -0.0985 -0.3454  2.5649
  189SLPC  H11S21837   4.090   2.518   7.384 -2.8988  1.1665  1.3121
  189SLPC  C21221838   4.108   2.386   7.549 -0.6757  0.5148  1.1830
  189SLPC  H12R21839   4.213   2.366   7.525 -0.7366  3.2826 -1.5936
  189SLPC  C21321840   4.060   2.352   7.669 -0.8579  0.1695  0.3429
  189SLPC  H13R21841   4.129   2.306   7.741 -1.4273 -1.0992  0.0992
  189SLPC  C21421842   3.913   2.365   7.712  0.3807 -0.2020 -0.6693
  189SLPC  H14R21843   3.863   2.317   7.625 -1.1994  1.8658 -0.9537
  189SLPC  H14S21844   3.889   2.473   7.725  0.9466 -0.1893  0.3319
  189SLPC  C21521845   3.865   2.295   7.841  0.1787 -0.4876  0.3479
  189SLPC  H15R21846   3.903   2.342   7.934  0.0993 -0.5193  0.3965
  189SLPC  H15S21847   3.912   2.194   7.847  1.7808  0.2913  1.1964
  189SLPC  C21621848   3.720   2.276   7.835  0.3837 -0.4526 -0.1569
  189SLPC  H16R21849   3.691   2.234   7.736  2.6356 -1.2744 -0.5038
  189SLPC  H16S21850   3.664   2.368   7.861 -0.8255 -1.3634  0.5005
  189SLPC  C21721851   3.681   2.175   7.945 -0.2401 -0.2899 -0.7149
  189SLPC  H17R21852   3.753   2.190   8.028 -1.8746 -0.6721  0.8309
  189SLPC  H17S21853   3.699   2.073   7.905 -1.2140 -0.4704 -0.7185
  189SLPC  C21821854   3.539   2.195   7.994  0.0194 -0.3916  0.5717
  189SLPC  H18R21855   3.539   2.181   8.104 -1.1271 -1.1117  0.4765
  189SLPC  H18S21856   3.463   2.125   7.953 -0.6618  0.5062  0.2815
  189SLPC  H18T21857   3.494   2.295   7.973  0.8643 -0.1330 -0.0929
  189SLPC   C3321858   3.343   2.115   7.034  0.3573  0.6567  0.1429
  189SLPC   H3X21859   3.423   2.039   7.049 -0.4445 -0.0659  0.8092
  189SLPC   H3Y21860   3.249   2.057   7.024  0.2813  1.0383 -1.5021
  189SLPC   C3421861   3.346   2.202   7.159  0.0649 -0.7057  0.1188
  189SLPC   H4X21862   3.280   2.291   7.156 -0.4520 -1.0558  0.8820
  189SLPC   H4Y21863   3.447   2.243   7.179  0.2710 -2.0013  1.7933
  189SLPC   C3521864   3.319   2.118   7.290 -0.3863  0.5992  0.7246
  189SLPC   H5X21865   3.398   2.042   7.312  2.0702  3.3894  1.8608
  189SLPC   H5Y21866   3.219   2.071   7.277  0.3104 -0.2497 -1.9707
  189SLPC   C3621867   3.323   2.212   7.412 -0.3761  0.1293  0.2221
  189SLPC   H6X21868   3.290   2.149   7.497 -0.6406  1.5470  1.1877
  189SLPC   H6Y21869   3.249   2.295   7.405  0.4533  0.6814 -2.7748
  189SLPC   C3721870   3.468   2.248   7.441  0.2334  0.1852 -0.5293
  189SLPC   H7X21871   3.520   2.307   7.363  0.8477  0.1014 -0.1887
  189SLPC   H7Y21872   3.530   2.156   7.452  0.2128  0.1306 -0.8689
  189SLPC   C3821873   3.482   2.318   7.573  0.6189 -1.0536  0.2302
  189SLPC   H8X21874   3.587   2.344   7.599  1.0472 -0.6741 -1.7276
  189SLPC   H8Y21875   3.451   2.253   7.657  0.8076  0.5651  1.5682
  189SLPC   C3921876   3.412   2.456   7.579 -0.0468 -0.3214 -0.2942
  189SLPC   H9X21877   3.442   2.514   7.669 -1.8327  0.3578 -0.1167
  189SLPC   H9Y21878   3.303   2.433   7.578 -0.0149 -0.5790  0.9128
  189SLPC  C31021879   3.438   2.555   7.461  0.1983 -0.3431  0.1591
  189SLPC  H10X21880   3.408   2.490   7.377 -0.5710  0.3713 -0.1244
  189SLPC  H10Y21881   3.542   2.591   7.447  0.3834 -0.1867  1.8690
  189SLPC  C31121882   3.345   2.674   7.454 -0.0864  0.2258  0.1759
  189SLPC  H11X21883   3.368   2.751   7.531  1.3988  0.0065 -0.0341
  189SLPC  H11Y21884   3.240   2.643   7.475 -0.0340  0.1902  0.3868
  189SLPC  C31221885   3.350   2.757   7.325 -0.1096  0.7480 -0.3360
  189SLPC  H12X21886   3.455   2.794   7.316 -0.4759  1.3537 -2.4417
  189SLPC  H12Y21887   3.280   2.843   7.326  2.0603  2.5796 -1.3049
  189SLPC  C31321888   3.308   2.670   7.205  0.0533  0.1925  0.2480
  189SLPC  H13X21889   3.198   2.663   7.197  0.0635 -0.5047  0.6495
  189SLPC  H13Y21890   3.351   2.569   7.219 -3.1125 -1.3642 -0.8883
  189SLPC  C31421891   3.342   2.739   7.077  0.3160 -0.5255 -0.8956
  189SLPC  H14X21892   3.445   2.774   7.097  0.8272 -2.5015  0.1081
  189SLPC  H14Y21893   3.279   2.830   7.066  0.6313 -0.5409 -3.0238
  189SLPC  C31521894   3.311   2.652   6.957  0.0039 -1.0356 -0.1705
  189SLPC  H15X21895   3.205   2.620   6.953 -0.5344  0.8138 -0.8920
  189SLPC  H15Y21896   3.373   2.560   6.969  1.3768 -0.0076  0.7589
  189SLPC  C31621897   3.345   2.734   6.831  0.3331  0.0414 -1.1304
  189SLPC  H16X21898   3.456   2.739   6.835  0.2917  0.0847  0.3401
  189SLPC  H16Y21899   3.315   2.841   6.842  0.9562  0.2609 -1.5235
  189SLPC  C31721900   3.285   2.690   6.704  0.3863  0.9508 -0.4523
  189SLPC  H17X21901   3.343   2.738   6.623  2.0766 -0.9158 -0.3751
  189SLPC  H17Y21902   3.178   2.717   6.690  0.0983 -1.0200 -2.2358
  189SLPC  C31821903   3.290   2.546   6.677  0.6994 -0.6669  0.2295
  189SLPC  H18X21904   3.394   2.517   6.652  1.1434  0.3881  0.7883
  189SLPC  H18Y21905   3.229   2.513   6.590  0.0844 -0.1748  0.4736
  189SLPC  H18Z21906   3.261   2.486   6.765 -0.5596 -1.4133 -0.6813
  190SLPC     N21907   5.078   2.117   6.412  0.3670 -0.2259  0.3626
  190SLPC   C1321908   5.047   2.082   6.273 -0.1978 -0.5929  0.8530
  190SLPC  H13A21909   4.943   2.060   6.251  0.1191 -1.2974  0.0287
  190SLPC  H13B21910   5.061   2.172   6.214 -1.6737 -0.1607  1.1321
  190SLPC  H13C21911   5.103   2.000   6.231 -2.2438 -1.8233  0.4605
  190SLPC   C1421912   5.041   2.256   6.431  0.0353 -0.4174 -0.5150
  190SLPC  H14A21913   5.101   2.317   6.365  0.0044  0.2181  0.0508
  190SLPC  H14B21914   4.938   2.266   6.398  0.1071  0.4869 -0.4559
  190SLPC  H14C21915   5.051   2.283   6.535  1.2886  0.6870 -0.9161
  190SLPC   C1521916   5.227   2.118   6.431  0.1427 -0.1718  0.3603
  190SLPC  H15A21917   5.257   2.101   6.534 -1.5716 -1.4399  0.6739
  190SLPC  H15B21918   5.272   2.042   6.368  1.1748  0.1030  0.7551
  190SLPC  H15C21919   5.264   2.213   6.395  1.0018 -0.6481 -0.0515
  190SLPC   C1221920   5.014   2.019   6.509  0.2490 -0.8698 -0.1298
  190SLPC  H12A21921   5.046   2.043   6.609  0.4872  0.6237 -0.5463
  190SLPC  H12B21922   5.049   1.923   6.474  1.4691 -0.2620 -0.6048
  190SLPC   C1121923   4.855   2.008   6.513 -0.4790 -0.0239 -0.3579
  190SLPC  H11A21924   4.809   2.109   6.514 -0.2584  0.1017 -2.2390
  190SLPC  H11B21925   4.835   1.974   6.617 -0.7200 -1.2734 -0.8006
  190SLPC     P21926   4.807   1.775   6.406 -0.1772 -0.3033 -0.4869
  190SLPC   O1321927   4.727   1.733   6.287 -0.4652  0.0581 -0.4568
  190SLPC   O1421928   4.941   1.719   6.417  0.2783  0.0872 -0.0645
  190SLPC   O1221929   4.808   1.932   6.406  0.1009 -0.5417  0.5040
  190SLPC   O1121930   4.718   1.727   6.529  0.1778  0.3643  0.3669
  190SLPC    C121931   4.776   1.655   6.635  0.1736 -0.4189  0.4977
  190SLPC    HA21932   4.854   1.581   6.607 -0.4041 -0.4190 -1.1238
  190SLPC    HB21933   4.810   1.729   6.711  1.4786 -0.4418 -0.0655
  190SLPC    C221934   4.688   1.562   6.720 -0.3732  0.1220 -0.6202
  190SLPC    HS21935   4.602   1.629   6.746  0.6731  0.5263  1.9428
  190SLPC   O2121936   4.764   1.511   6.835  0.5084 -0.0266  0.6381
  190SLPC   C2121937   4.691   1.479   6.935  0.4428 -0.5459 -0.0954
  190SLPC   O2221938   4.572   1.501   6.948  0.1661 -0.1942  0.0402
  190SLPC   C2221939   4.782   1.404   7.043  0.1155 -0.0047  0.4127
  190SLPC   H2R21940   4.760   1.297   7.024 -2.5232  0.7133 -0.9322
  190SLPC   H2S21941   4.884   1.428   7.007 -0.1031  0.5956  0.1806
  190SLPC    C321942   4.638   1.443   6.628 -0.0221 -0.0980 -1.1477
  190SLPC    HX21943   4.725   1.381   6.598  1.5777  1.3032  0.5186
  190SLPC    HY21944   4.610   1.499   6.536 -1.3714  0.3457 -0.4793
  190SLPC   O3121945   4.526   1.362   6.681 -0.3894  0.1720 -0.2546
  190SLPC   C3121946   4.406   1.397   6.680 -0.4981  0.2072  0.2961
  190SLPC   O3221947   4.351   1.488   6.628  0.0559 -1.0927  0.1677
  190SLPC   C3221948   4.341   1.303   6.792  0.2755 -0.5602 -0.2097
  190SLPC   H2X21949   4.409   1.308   6.880  2.6813 -0.2658 -2.0098
  190SLPC   H2Y21950   4.332   1.198   6.758 -0.2526 -0.8635  0.8513
  190SLPC   C2321951   4.764   1.463   7.186 -0.0337  0.7042  0.1321
  190SLPC   H3R21952   4.774   1.380   7.259  2.7427  0.6251 -0.2723
  190SLPC   H3S21953   4.662   1.506   7.192  0.4389  2.1904 -2.0140
  190SLPC   C2421954   4.862   1.574   7.215 -0.4529 -0.8113 -0.0379
  190SLPC   H4R21955   4.834   1.663   7.154 -0.9464  0.3264  1.8066
  190SLPC   H4S21956   4.967   1.544   7.193 -0.1748 -0.2385  0.4739
  190SLPC   C2521957   4.858   1.619   7.366  0.4926  0.7416 -0.9798
  190SLPC   H5R21958   4.750   1.625   7.391  0.6944  0.7860 -0.1073
  190SLPC   H5S21959   4.913   1.714   7.382  0.3878  0.6041  0.2109
  190SLPC   C2621960   4.910   1.510   7.467  0.5794 -0.6782  0.1707
  190SLPC   H6R21961   5.011   1.468   7.450  0.9656  1.1648 -2.4704
  190SLPC   H6S21962   4.836   1.427   7.463  0.9452 -1.0102  0.3372
  190SLPC   C2721963   4.890   1.576   7.605 -0.8155  0.9141  0.0010
  190SLPC   H7R21964   4.780   1.573   7.624 -0.7426  1.9687  0.6045
  190SLPC   H7S21965   4.927   1.680   7.605 -1.0197  0.9993 -1.4392
  190SLPC   C2821966   4.962   1.487   7.709  0.2577  0.4427 -1.2369
  190SLPC   H8R21967   5.063   1.470   7.665  0.5804 -0.1172 -0.3007
  190SLPC   H8S21968   4.921   1.385   7.724 -0.0277  1.0700  2.6934
  190SLPC   C2921969   4.978   1.556   7.842  0.8051 -0.2852  0.8536
  190SLPC   H9R21970   5.065   1.623   7.844  2.7348 -2.6085 -1.6425
  190SLPC  C21021971   4.906   1.555   7.953  0.4382 -0.3015 -0.4254
  190SLPC  H10R21972   4.936   1.622   8.035 -0.3260  1.1008 -1.2518
  190SLPC  C21121973   4.784   1.467   7.973  0.8755 -0.0730  0.1956
  190SLPC  H11R21974   4.801   1.408   8.065  1.0683 -3.4360 -1.8861
  190SLPC  H11S21975   4.761   1.398   7.889 -1.2979 -1.2449  1.7183
  190SLPC  C21221976   4.662   1.554   7.986 -0.7786  0.0071  0.1654
  190SLPC  H12R21977   4.592   1.559   7.902 -2.4456  1.7176  1.6282
  190SLPC  C21321978   4.624   1.623   8.093  0.2162  0.2665  0.1947
  190SLPC  H13R21979   4.531   1.681   8.082 -0.9920 -1.3084  1.9462
  190SLPC  C21421980   4.674   1.641   8.225 -0.0055 -0.0502 -0.8035
  190SLPC  H14R21981   4.595   1.688   8.287  1.9637  0.9012  1.0937
  190SLPC  H14S21982   4.737   1.732   8.224 -0.5961  0.3451 -1.9279
  190SLPC  C21521983   4.755   1.547   8.310 -0.3553 -0.6297 -0.0401
  190SLPC  H15R21984   4.828   1.489   8.250  0.8676 -0.1384  0.9676
  190SLPC  H15S21985   4.681   1.469   8.337 -0.4860 -0.7325 -0.6857
  190SLPC  C21621986   4.812   1.606   8.439  0.4320  0.1992  0.8359
  190SLPC  H16R21987   4.742   1.679   8.484 -0.2390 -0.1577  0.3783
  190SLPC  H16S21988   4.910   1.650   8.411 -0.9100  2.9346  0.3248
  190SLPC  C21721989   4.822   1.496   8.541  0.1431 -0.1423 -0.2828
  190SLPC  H17R21990   4.724   1.445   8.554  0.7924 -1.5685 -0.8662
  190SLPC  H17S21991   4.841   1.529   8.646  0.1877 -2.7628  0.5815
  190SLPC  C21821992   4.934   1.386   8.511 -0.1895  0.7937 -0.5550
  190SLPC  H18R21993   4.921   1.345   8.408 -1.2662  0.4269 -0.2886
  190SLPC  H18S21994   4.912   1.302   8.581 -0.2154  1.9019  0.7712
  190SLPC  H18T21995   5.034   1.432   8.521 -0.5024  1.5599 -0.9022
  190SLPC   C3321996   4.209   1.353   6.848  0.5761 -0.5487  0.0729
  190SLPC   H3X21997   4.124   1.337   6.779  0.1068 -0.2119  0.5632
  190SLPC   H3Y21998   4.219   1.462   6.870 -1.8549  0.0663 -1.6511
  190SLPC   C3421999   4.173   1.299   6.987 -0.4720  0.8023  0.2283
  190SLPC   H4X22000   4.190   1.189   6.994  0.7865  1.0721  1.4624
  190SLPC   H4Y22001   4.065   1.320   7.004 -0.1477  2.1444  0.6352
  190SLPC   C3522002   4.244   1.388   7.099 -0.2199 -0.3491 -0.0531
  190SLPC   H5X22003   4.193   1.485   7.117  0.8334  0.2317 -0.1726
  190SLPC   H5Y22004   4.351   1.407   7.074 -0.4667  1.0731 -0.0697
  190SLPC   C3622005   4.251   1.315   7.235 -0.3504 -0.0575  0.3677
  190SLPC   H6X22006   4.263   1.206   7.214 -2.0900 -0.2119  0.0996
  190SLPC   H6Y22007   4.147   1.323   7.273 -0.0364  0.1158  1.1989
  190SLPC   C3722008   4.349   1.375   7.337  0.1365  1.2169  0.1694
  190SLPC   H7X22009   4.312   1.474   7.371  2.2137  0.4958  4.8990
  190SLPC   H7Y22010   4.453   1.382   7.297 -0.2348  2.8496 -0.5499
  190SLPC   C3822011   4.349   1.275   7.457  0.4497  0.1188  0.5085
  190SLPC   H8X22012   4.372   1.170   7.427 -1.0343 -0.2108  0.5055
  190SLPC   H8Y22013   4.253   1.292   7.510  0.4981  3.5894 -0.4138
  190SLPC   C3922014   4.463   1.308   7.562  0.4537 -0.2899 -0.3225
  190SLPC   H9X22015   4.466   1.417   7.584  1.9400 -0.3865 -0.0247
  190SLPC   H9Y22016   4.557   1.286   7.508  0.9262 -0.0758  0.4077
  190SLPC  C31022017   4.443   1.223   7.683  0.0682  0.3097 -0.0245
  190SLPC  H10X22018   4.412   1.118   7.665  0.6278  0.3354 -1.2061
  190SLPC  H10Y22019   4.367   1.279   7.742 -2.0062 -1.3452 -1.0505
  190SLPC  C31122020   4.572   1.225   7.774 -0.1059  0.1802 -0.2124
  190SLPC  H11X22021   4.586   1.328   7.815 -1.7768  0.5416 -0.5337
  190SLPC  H11Y22022   4.651   1.207   7.698  1.3105  0.6075  1.1308
  190SLPC  C31222023   4.592   1.121   7.886  0.3739  0.0421 -0.3598
  190SLPC  H12X22024   4.699   1.121   7.918  0.2069  0.9077  0.2202
  190SLPC  H12Y22025   4.559   1.023   7.847 -3.3586  0.8303  0.6241
  190SLPC  C31322026   4.505   1.163   7.999  0.5794  0.7414 -0.2453
  190SLPC  H13X22027   4.399   1.176   7.969  0.8087  0.4635 -1.1741
  190SLPC  H13Y22028   4.534   1.265   8.031 -2.0935  0.6627  2.6734
  190SLPC  C31422029   4.528   1.072   8.131 -0.0830  0.6448  0.1282
  190SLPC  H14X22030   4.609   0.998   8.111  1.0638  1.5715  1.2911
  190SLPC  H14Y22031   4.441   1.006   8.153 -0.5856  1.5572  0.9044
  190SLPC  C31522032   4.578   1.153   8.250 -0.0438 -0.0613 -0.0575
  190SLPC  H15X22033   4.503   1.234   8.260  1.3750  1.3174 -0.2533
  190SLPC  H15Y22034   4.678   1.197   8.226 -0.5249  1.3099  0.3938
  190SLPC  C31622035   4.583   1.069   8.379 -0.2104 -0.9735  0.3001
  190SLPC  H16X22036   4.658   0.988   8.366  0.1076 -0.5711 -0.3583
  190SLPC  H16Y22037   4.482   1.024   8.389  0.2837 -2.2839 -0.5556
  190SLPC  C31722038   4.605   1.153   8.511  0.2289  0.0911  0.0083
  190SLPC  H17X22039   4.519   1.223   8.517  1.5031  1.9888 -3.0917
  190SLPC  H17Y22040   4.690   1.220   8.488 -1.2357  1.8986 -0.2186
  190SLPC  C31822041   4.620   1.084   8.648  0.4290 -0.3597 -0.5659
  190SLPC  H18X22042   4.586   1.146   8.734 -1.4848  0.2196 -1.7110
  190SLPC  H18Y22043   4.723   1.044   8.657 -0.1690 -1.3779  2.2561
  190SLPC  H18Z22044   4.553   0.995   8.647 -1.1949  0.8462 -2.3636
  191SLPC     N22045   4.722   3.741   5.911 -0.8174  0.4070  0.0017
  191SLPC   C1322046   4.678   3.840   5.805 -0.5271 -0.4222 -0.2441
  191SLPC  H13A22047   4.669   3.938   5.848 -0.2908  0.5667 -2.3655
  191SLPC  H13B22048   4.757   3.851   5.732  1.3954 -0.9139  1.7156
  191SLPC  H13C22049   4.579   3.809   5.775 -0.6450  0.9307 -1.2907
  191SLPC   C1422050   4.644   3.766   6.043  0.1966 -0.5872 -0.5297
  191SLPC  H14A22051   4.659   3.866   6.080  1.6715 -1.0831  0.2702
  191SLPC  H14B22052   4.539   3.754   6.023  0.2417 -3.4556  0.6235
  191SLPC  H14C22053   4.681   3.705   6.124  0.6140  0.1091 -0.1947
  191SLPC   C1522054   4.863   3.769   5.946 -0.1749  0.7050 -0.1188
  191SLPC  H15A22055   4.926   3.760   5.858  0.4555 -0.7404  0.4633
  191SLPC  H15B22056   4.875   3.873   5.972  0.2687  0.8690 -0.9418
  191SLPC  H15C22057   4.905   3.720   6.032  1.3811  0.6534 -0.8869
  191SLPC   C1222058   4.712   3.601   5.870  0.1028  0.0491  0.1885
  191SLPC  H12A22059   4.780   3.548   5.934  0.5420 -0.9246 -1.0607
  191SLPC  H12B22060   4.756   3.594   5.771 -1.2470  0.1120 -0.4285
  191SLPC   C1122061   4.577   3.535   5.856 -0.0825 -0.0710 -0.6326
  191SLPC  H11A22062   4.540   3.504   5.956  1.9695  0.3522  0.2922
  191SLPC  H11B22063   4.582   3.442   5.797  0.6553  0.6362 -1.6916
  191SLPC     P22064   4.332   3.631   5.809 -0.4485 -0.0577  0.0346
  191SLPC   O1322065   4.305   3.774   5.793 -0.1369 -0.3274  0.5669
  191SLPC   O1422066   4.256   3.535   5.728  0.2540 -0.2760  0.4434
  191SLPC   O1222067   4.487   3.607   5.776 -0.5185 -0.5826  0.1522
  191SLPC   O1122068   4.326   3.595   5.962  0.3614 -0.5595 -0.2121
  191SLPC    C122069   4.208   3.630   6.034 -0.0750  0.1714  0.3716
  191SLPC    HA22070   4.187   3.739   6.023  0.8159  0.3602  0.4854
  191SLPC    HB22071   4.125   3.567   5.998  1.8847 -1.0035 -2.2315
  191SLPC    C222072   4.236   3.598   6.183 -0.9902 -0.0119  0.3199
  191SLPC    HS22073   4.138   3.579   6.231 -0.9396 -0.4023  0.2751
  191SLPC   O2122074   4.312   3.697   6.257  0.4613  0.0195  0.1516
  191SLPC   C2122075   4.233   3.790   6.299 -0.4130 -0.1122  0.1972
  191SLPC   O2222076   4.114   3.799   6.277  0.2624 -0.2002 -0.0789
  191SLPC   C2222077   4.309   3.868   6.408 -0.4080  0.3635 -0.1720
  191SLPC   H2R22078   4.404   3.906   6.364 -0.0340 -0.1902  0.1476
  191SLPC   H2S22079   4.248   3.957   6.434  0.5077  0.8381  0.3823
  191SLPC    C322080   4.321   3.462   6.206 -0.2170  0.4126  0.7274
  191SLPC    HX22081   4.423   3.465   6.162 -0.9425  0.5543 -0.9711
  191SLPC    HY22082   4.262   3.384   6.154 -0.8082  1.0662  0.3966
  191SLPC   O3122083   4.315   3.428   6.345  0.0035  0.1954 -0.0234
  191SLPC   C3122084   4.397   3.336   6.377 -0.2437  0.1470  0.1844
  191SLPC   O3222085   4.473   3.270   6.304 -0.5848  0.0491 -0.6345
  191SLPC   C3222086   4.397   3.324   6.531 -0.1341 -0.3259  0.7594
  191SLPC   H2X22087   4.295   3.321   6.575  0.2022  0.3893  1.6004
  191SLPC   H2Y22088   4.432   3.423   6.567  1.0134 -0.5628  0.2997
  191SLPC   C2322089   4.319   3.787   6.539 -0.4615 -0.0256  0.5389
  191SLPC   H3R22090   4.374   3.691   6.525  2.5418  1.9966 -2.3760
  191SLPC   H3S22091   4.221   3.758   6.582 -0.2163 -0.0016  1.1167
  191SLPC   C2422092   4.390   3.866   6.651  0.0761 -0.3504 -0.2321
  191SLPC   H4R22093   4.329   3.955   6.680  1.4366  0.8427 -0.9194
  191SLPC   H4S22094   4.490   3.904   6.620 -0.2862  1.3619  0.6290
  191SLPC   C2522095   4.405   3.788   6.783 -0.6382  0.7434  0.1508
  191SLPC   H5R22096   4.471   3.701   6.763 -1.0120  1.0493 -2.5657
  191SLPC   H5S22097   4.313   3.770   6.842 -0.5539 -0.5688 -0.1149
  191SLPC   C2622098   4.484   3.875   6.893 -0.1493  0.1123  0.8295
  191SLPC   H6R22099   4.423   3.960   6.930 -1.1632 -1.2614  2.3787
  191SLPC   H6S22100   4.575   3.911   6.841 -0.3336  0.7134  0.9197
  191SLPC   C2722101   4.526   3.804   7.015 -0.0198  0.7980  0.4412
  191SLPC   H7R22102   4.599   3.726   6.983 -1.5502 -0.9161  1.0320
  191SLPC   H7S22103   4.441   3.744   7.054 -0.2591  0.5018 -0.5144
  191SLPC   C2822104   4.576   3.897   7.130 -0.4856 -0.6642 -0.1196
  191SLPC   H8R22105   4.640   3.973   7.079 -0.7759  1.0361  1.9467
  191SLPC   H8S22106   4.639   3.838   7.200 -1.5766  0.6393  2.0314
  191SLPC   C2922107   4.457   3.962   7.205  0.1370 -0.8305 -0.5941
  191SLPC   H9R22108   4.357   3.945   7.162  0.4665 -2.5286 -0.7366
  191SLPC  C21022109   4.468   4.016   7.322  0.0022 -0.3742  0.5206
  191SLPC  H10R22110   4.378   4.055   7.372  1.0917  1.8114  0.8518
  191SLPC  C21122111   4.592   4.031   7.409  0.1018 -0.0038  0.3295
  191SLPC  H11R22112   4.643   4.130   7.413  2.6255 -1.2092 -0.5604
  191SLPC  H11S22113   4.678   3.972   7.370  0.8365  0.7030  0.8467
  191SLPC  C21222114   4.566   3.968   7.546  0.1432  0.2412 -0.3725
  191SLPC  H12R22115   4.564   3.858   7.551 -1.4589  0.2893  0.4472
  191SLPC  C21322116   4.549   4.030   7.660  0.5655  0.2639 -0.0098
  191SLPC  H13R22117   4.522   3.973   7.750  0.6953 -1.0683 -0.8005
  191SLPC  C21422118   4.545   4.181   7.671 -0.3972 -0.4551  0.4857
  191SLPC  H14R22119   4.553   4.233   7.573 -0.8030  1.5080  1.4627
  191SLPC  H14S22120   4.634   4.222   7.724  0.3702  1.2387 -2.0055
  191SLPC  C21522121   4.414   4.250   7.727  0.8035  0.0880 -0.1221
  191SLPC  H15R22122   4.329   4.221   7.661  1.0255 -0.1915 -0.2870
  191SLPC  H15S22123   4.402   4.360   7.716  2.4131  0.0420 -3.0260
  191SLPC  C21622124   4.379   4.216   7.871 -0.4346 -0.5823  0.2934
  191SLPC  H16R22125   4.373   4.311   7.928 -0.4645 -0.1033 -0.4927
  191SLPC  H16S22126   4.464   4.162   7.918  0.9669  0.4946 -0.9147
  191SLPC  C21722127   4.246   4.125   7.884  0.1354 -0.2215 -0.4101
  191SLPC  H17R22128   4.261   4.056   7.799 -3.4037 -0.4516 -0.9020
  191SLPC  H17S22129   4.165   4.197   7.859 -2.4588 -3.0696 -0.4741
  191SLPC  C21822130   4.212   4.063   8.024  0.2346  0.7040 -0.2825
  191SLPC  H18R22131   4.211   4.147   8.098 -0.3024  1.0774 -0.7118
  191SLPC  H18S22132   4.298   4.002   8.057  0.2573  1.2472  0.7101
  191SLPC  H18T22133   4.111   4.017   8.026 -0.1048  1.1986 -3.5836
  191SLPC   C3322134   4.491   3.218   6.595  0.6350  0.0569  0.3624
  191SLPC   H3X22135   4.586   3.216   6.538  0.8249 -1.7858  0.7275
  191SLPC   H3Y22136   4.455   3.113   6.587  2.3358 -0.7275  2.5832
  191SLPC   C3422137   4.518   3.245   6.749  0.1461  0.3310  0.7201
  191SLPC   H4X22138   4.587   3.330   6.770 -1.4799  2.6264 -2.7286
  191SLPC   H4Y22139   4.560   3.157   6.802 -1.9154 -0.7076  0.6767
  191SLPC   C3522140   4.395   3.274   6.831  0.2443 -0.8363 -0.8341
  191SLPC   H5X22141   4.313   3.202   6.813 -0.2810  0.0047 -1.8778
  191SLPC   H5Y22142   4.350   3.374   6.815 -3.2627 -1.5198  3.6697
  191SLPC   C3622143   4.438   3.271   6.981 -0.0658  0.5164  0.3777
  191SLPC   H6X22144   4.544   3.237   6.980  0.0051  0.7564 -0.9737
  191SLPC   H6Y22145   4.380   3.188   7.027 -1.9863 -0.7962 -4.1310
  191SLPC   C3722146   4.424   3.396   7.058 -0.1257 -0.1201 -0.4818
  191SLPC   H7X22147   4.317   3.425   7.072 -0.5904 -1.9231 -0.2297
  191SLPC   H7Y22148   4.475   3.477   7.001 -0.4482 -0.0676 -0.6952
  191SLPC   C3822149   4.500   3.384   7.189 -0.4323  0.4280 -0.3176
  191SLPC   H8X22150   4.605   3.386   7.152  0.1936  0.8617  1.4158
  191SLPC   H8Y22151   4.484   3.286   7.238 -1.4652 -0.1328 -1.7669
  191SLPC   C3922152   4.503   3.499   7.299 -0.2058 -0.0327  0.0476
  191SLPC   H9X22153   4.536   3.595   7.254 -1.9012  1.1560  1.3024
  191SLPC   H9Y22154   4.562   3.470   7.388 -1.2963  0.1167  0.8327
  191SLPC  C31022155   4.352   3.515   7.346 -0.2396  0.0944  0.1722
  191SLPC  H10X22156   4.296   3.420   7.358 -1.1530  0.3539 -1.8270
  191SLPC  H10Y22157   4.293   3.542   7.256 -0.3136  1.7816  0.7048
  191SLPC  C31122158   4.327   3.605   7.467  0.2157  0.5794  0.0028
  191SLPC  H11X22159   4.223   3.587   7.500  0.2957 -0.4186 -0.2863
  191SLPC  H11Y22160   4.352   3.709   7.437 -0.5654  0.4437 -1.1304
  191SLPC  C31222161   4.407   3.545   7.595  0.2110  0.4054 -0.2492
  191SLPC  H12X22162   4.516   3.565   7.600  0.2578  0.2213 -0.5302
  191SLPC  H12Y22163   4.402   3.434   7.590  1.9188  0.3902 -3.2008
  191SLPC  C31322164   4.336   3.593   7.716  0.1643  0.8319  0.1821
  191SLPC  H13X22165   4.236   3.546   7.712  0.5800 -0.0081 -0.3646
  191SLPC  H13Y22166   4.323   3.704   7.710 -1.7102  0.5982 -0.3297
  191SLPC  C31422167   4.414   3.559   7.845 -0.3001 -0.1120  0.2911
  191SLPC  H14X22168   4.515   3.605   7.840  0.0136 -0.9303 -1.4241
  191SLPC  H14Y22169   4.424   3.449   7.860 -1.4360 -0.1737  0.6416
  191SLPC  C31522170   4.335   3.612   7.968  0.3624  0.3170 -0.9620
  191SLPC  H15X22171   4.230   3.581   7.947  0.3803  0.2975 -1.0266
  191SLPC  H15Y22172   4.333   3.721   7.985 -1.3947  0.3281 -1.2066
  191SLPC  C31622173   4.369   3.550   8.104  0.1384  0.2639 -0.0368
  191SLPC  H16X22174   4.476   3.520   8.109  0.6337  1.9153 -0.3045
  191SLPC  H16Y22175   4.315   3.456   8.127 -0.7534  0.5544 -0.9112
  191SLPC  C31722176   4.359   3.655   8.219 -0.1551 -0.3082  0.2526
  191SLPC  H17X22177   4.259   3.704   8.229 -0.5809 -1.2075  0.3854
  191SLPC  H17Y22178   4.438   3.727   8.189 -1.1905  0.8461  0.1988
  191SLPC  C31822179   4.404   3.588   8.349 -0.3821 -0.1497  0.3725
  191SLPC  H18X22180   4.506   3.547   8.334 -0.2022  0.6690 -0.6692
  191SLPC  H18Y22181   4.341   3.500   8.375  0.5293 -0.5245  1.3374
  191SLPC  H18Z22182   4.398   3.663   8.431  0.1955  1.0270 -0.6352
  192SLPC     N22183   4.999   4.264   6.131 -0.5341  0.1139  0.1347
  192SLPC   C1322184   5.129   4.189   6.116 -0.5406  0.3177  0.0924
  192SLPC  H13A22185   5.183   4.193   6.210  1.7786 -3.0755 -0.9760
  192SLPC  H13B22186   5.107   4.083   6.112 -1.8728  0.4878  2.0405
  192SLPC  H13C22187   5.183   4.228   6.032  1.0751 -0.2793  0.8174
  192SLPC   C1422188   4.918   4.226   6.250 -0.1250  0.3987 -0.1775
  192SLPC  H14A22189   4.813   4.232   6.223  0.1863  1.7982 -1.0978
  192SLPC  H14B22190   4.939   4.123   6.277  1.9133  0.9387  0.3933
  192SLPC  H14C22191   4.950   4.284   6.336 -2.2708  0.6326  0.5171
  192SLPC   C1522192   4.919   4.210   6.014  0.6750  0.0658  0.6628
  192SLPC  H15A22193   4.919   4.103   6.023  0.7589  0.1461  1.6116
  192SLPC  H15B22194   4.816   4.242   6.018  0.8506  0.5222  1.5919
  192SLPC  H15C22195   4.950   4.238   5.914  2.2646 -0.9061  0.8728
  192SLPC   C1222196   5.010   4.412   6.112  0.5754  0.3505 -0.4359
  192SLPC  H12A22197   4.915   4.460   6.133 -1.1133 -2.0566 -2.1975
  192SLPC  H12B22198   5.042   4.422   6.009  1.7484 -0.0141 -0.1145
  192SLPC   C1122199   5.105   4.495   6.199  0.3850  0.1480  0.6407
  192SLPC  H11A22200   5.108   4.603   6.173 -0.6923 -0.0197 -0.2283
  192SLPC  H11B22201   5.205   4.448   6.196  0.9605  1.4381 -0.8180
  192SLPC     P22202   4.943   4.573   6.396  0.1269 -0.1968 -0.3237
  192SLPC   O1322203   4.997   4.709   6.407 -0.0738  0.1763  0.2638
  192SLPC   O1422204   4.816   4.552   6.322 -0.7369  0.2014 -0.2477
  192SLPC   O1222205   5.067   4.485   6.337 -0.1308 -0.4103 -0.3751
  192SLPC   O1122206   4.928   4.527   6.546 -0.0625 -0.3479  0.1233
  192SLPC    C122207   4.992   4.413   6.594  0.0046  0.4871  0.1167
  192SLPC    HA22208   4.980   4.325   6.528 -0.9032  0.4234  0.3674
  192SLPC    HB22209   5.103   4.421   6.600  0.1411 -1.9953  1.5972
  192SLPC    C222210   4.965   4.377   6.749 -0.6902 -0.1161  0.3379
  192SLPC    HS22211   5.015   4.279   6.765  0.1570  0.2721  0.1279
  192SLPC   O2122212   4.830   4.377   6.781 -0.3261 -0.1395  0.0830
  192SLPC   C2122213   4.756   4.288   6.714 -0.1666 -0.8157 -0.0205
  192SLPC   O2222214   4.800   4.200   6.639  0.3809  0.3571  0.4965
  192SLPC   C2222215   4.608   4.311   6.753  0.1148  0.5892 -0.3561
  192SLPC   H2R22216   4.596   4.419   6.777  1.0464 -0.2646  4.2295
  192SLPC   H2S22217   4.545   4.298   6.662  0.1717 -1.5011 -0.1273
  192SLPC    C322218   5.041   4.469   6.846  0.5743 -0.2547  0.2907
  192SLPC    HX22219   5.025   4.575   6.818  1.9572  0.0676  0.6530
  192SLPC    HY22220   5.146   4.446   6.818  0.5144  0.6483 -0.7104
  192SLPC   O3122221   5.026   4.433   6.984  0.2760 -0.6316  0.7400
  192SLPC   C3122222   4.991   4.535   7.070  0.3658  0.8431 -0.2489
  192SLPC   O3222223   5.003   4.652   7.042 -0.3481  0.1139  0.2358
  192SLPC   C3222224   4.947   4.471   7.191 -0.4301  0.0123 -0.0759
  192SLPC   H2X22225   5.014   4.388   7.221 -1.3043 -1.0614 -1.0113
  192SLPC   H2Y22226   4.851   4.418   7.171 -0.4407 -0.1362  0.3646
  192SLPC   C2322227   4.565   4.217   6.870 -0.3937  0.2527 -0.1593
  192SLPC   H3R22228   4.641   4.150   6.915 -0.7863 -0.8962 -1.1727
  192SLPC   H3S22229   4.475   4.162   6.835 -0.0344  0.5198 -1.5429
  192SLPC   C2422230   4.514   4.295   6.992  0.4315  0.0908 -0.4826
  192SLPC   H4R22231   4.463   4.223   7.060  0.7380 -0.1812 -0.5390
  192SLPC   H4S22232   4.438   4.374   6.971 -1.8843 -1.1896  2.6264
  192SLPC   C2522233   4.622   4.367   7.077 -0.2836 -0.9072 -0.6161
  192SLPC   H5R22234   4.689   4.434   7.020 -0.6977 -1.0846 -1.3092
  192SLPC   H5S22235   4.688   4.294   7.130 -0.3005 -0.2328  0.3451
  192SLPC   C2622236   4.546   4.457   7.180  0.4078 -0.2987  0.8687
  192SLPC   H6R22237   4.470   4.521   7.132  0.7104  0.3190  1.2126
  192SLPC   H6S22238   4.625   4.527   7.213  1.6742 -1.1428 -0.2725
  192SLPC   C2722239   4.485   4.387   7.296 -0.5299 -0.1178 -0.0449
  192SLPC   H7R22240   4.560   4.318   7.341 -0.9112 -1.8835 -2.0556
  192SLPC   H7S22241   4.404   4.321   7.259  0.9641 -1.4867 -0.9644
  192SLPC   C2822242   4.430   4.466   7.407 -0.0706 -0.5762 -0.9484
  192SLPC   H8R22243   4.383   4.390   7.474 -1.4469  1.7977  0.8908
  192SLPC   H8S22244   4.348   4.528   7.365 -0.8450 -0.2216  1.0313
  192SLPC   C2922245   4.520   4.563   7.474  0.0381  0.8938 -0.3014
  192SLPC   H9R22246   4.624   4.569   7.439 -0.0249 -1.6015 -1.0599
  192SLPC  C21022247   4.486   4.655   7.557  0.7223 -0.5432 -0.9715
  192SLPC  H10R22248   4.562   4.720   7.603 -3.4937  3.4209  0.8957
  192SLPC  C21122249   4.347   4.690   7.594 -0.8098 -0.7837  0.0731
  192SLPC  H11R22250   4.304   4.591   7.620  1.7228 -1.9774 -0.1746
  192SLPC  H11S22251   4.297   4.724   7.501  0.9580  2.4996  0.2693
  192SLPC  C21222252   4.335   4.801   7.701 -0.0753 -0.0708 -0.7838
  192SLPC  H12R22253   4.277   4.890   7.669 -0.3664 -0.1393 -0.4474
  192SLPC  C21322254   4.367   4.793   7.828  0.2186 -1.0264  0.3598
  192SLPC  H13R22255   4.349   4.866   7.909 -2.4987 -2.4030  1.0460
  192SLPC  C21422256   4.436   4.669   7.883  0.1945  0.1977  0.4853
  192SLPC  H14R22257   4.544   4.680   7.907  0.9230 -2.1313 -1.4619
  192SLPC  H14S22258   4.432   4.577   7.820  0.0076 -0.7306  1.8381
  192SLPC  C21522259   4.368   4.629   8.014 -0.2575 -0.7556  0.1357
  192SLPC  H15R22260   4.286   4.559   7.986  0.2103 -0.3870 -2.2048
  192SLPC  H15S22261   4.332   4.714   8.077  1.7543 -0.0029  0.2837
  192SLPC  C21622262   4.461   4.550   8.105  0.3862 -0.0585 -0.5674
  192SLPC  H16R22263   4.562   4.595   8.106  0.9744 -1.2936 -2.0292
  192SLPC  H16S22264   4.471   4.450   8.058  2.0209  0.3683 -1.1787
  192SLPC  C21722265   4.401   4.542   8.247  0.0614 -0.1120 -0.2151
  192SLPC  H17R22266   4.477   4.489   8.309  1.0643  1.5749  0.0273
  192SLPC  H17S22267   4.383   4.643   8.289 -1.2585 -0.3983 -0.0830
  192SLPC  C21822268   4.282   4.445   8.266  0.1802 -0.0081  0.0795
  192SLPC  H18R22269   4.236   4.454   8.367  0.6039 -0.0642  0.2777
  192SLPC  H18S22270   4.307   4.341   8.240  0.6335 -0.3470  1.8003
  192SLPC  H18T22271   4.200   4.471   8.196  0.7265  0.6485 -0.3311
  192SLPC   C3322272   4.932   4.557   7.322 -0.2869 -0.1425 -0.4186
  192SLPC   H3X22273   4.846   4.626   7.303 -1.1077 -1.1238 -0.3254
  192SLPC   H3Y22274   5.010   4.633   7.344 -1.4455  1.3607 -1.3694
  192SLPC   C3422275   4.904   4.472   7.442 -0.3331  0.9394 -0.0792
  192SLPC   H4X22276   4.983   4.398   7.465 -0.5386  1.1093  1.1871
  192SLPC   H4Y22277   4.809   4.418   7.425 -1.1386  2.8347 -1.8598
  192SLPC   C3522278   4.889   4.568   7.562 -0.1578 -0.5420  0.1924
  192SLPC   H5X22279   4.800   4.627   7.532  0.1521 -0.3027 -0.2657
  192SLPC   H5Y22280   4.973   4.638   7.575 -1.1319  0.8283 -0.8054
  192SLPC   C3622281   4.854   4.502   7.688  0.3601 -0.3913 -0.0024
  192SLPC   H6X22282   4.896   4.408   7.730 -0.7399 -0.9714 -0.1824
  192SLPC   H6Y22283   4.747   4.475   7.675  0.7066 -1.5184 -0.5755
  192SLPC   C3722284   4.862   4.606   7.801  0.0125  0.3480  0.3090
  192SLPC   H7X22285   4.793   4.692   7.788 -0.0109  0.3409  0.3796
  192SLPC   H7Y22286   4.966   4.644   7.802  0.4007 -0.4355 -3.2845
  192SLPC   C3822287   4.825   4.542   7.935  0.0672  0.6525 -0.0330
  192SLPC   H8X22288   4.864   4.439   7.944 -2.2839 -0.2378  0.4169
  192SLPC   H8Y22289   4.715   4.527   7.937  0.2584 -0.7644  2.1689
  192SLPC   C3922290   4.877   4.613   8.056  0.2510 -0.4184  0.6937
  192SLPC   H9X22291   4.836   4.716   8.047  0.5637 -0.3918 -0.4717
  192SLPC   H9Y22292   4.987   4.625   8.057  0.1224  0.9044  2.8144
  192SLPC  C31022293   4.829   4.547   8.184  0.0950  0.3738  0.4309
  192SLPC  H10X22294   4.864   4.442   8.180 -1.2783 -0.0574 -1.2166
  192SLPC  H10Y22295   4.719   4.545   8.200  0.3974  0.3873  2.6727
  192SLPC  C31122296   4.887   4.617   8.308  1.2402  0.5063  0.1255
  192SLPC  H11X22297   4.837   4.716   8.315 -0.5029 -0.2594 -0.9710
  192SLPC  H11Y22298   4.994   4.641   8.292  1.4477  1.2906  2.5536
  192SLPC  C31222299   4.886   4.538   8.441 -0.1427  0.1176  0.5272
  192SLPC  H12X22300   4.804   4.464   8.434  0.4784 -0.3796 -2.0362
  192SLPC  H12Y22301   4.864   4.604   8.529  0.6129 -0.5134  1.1909
  192SLPC  C31322302   5.021   4.478   8.482  0.4927 -0.4008 -0.3960
  192SLPC  H13X22303   5.105   4.551   8.481 -0.1458  0.4439  2.5348
  192SLPC  H13Y22304   5.052   4.408   8.402  0.6729 -0.6881 -0.0718
  192SLPC  C31422305   5.019   4.404   8.618  0.3126  0.0140  0.1730
  192SLPC  H14X22306   4.972   4.464   8.699  0.1817 -0.8220  0.7225
  192SLPC  H14Y22307   5.124   4.371   8.630 -0.3386 -2.6864 -0.9536
  192SLPC  C31522308   4.936   4.275   8.622  0.2359  0.0659 -0.1053
  192SLPC  H15X22309   4.828   4.298   8.608  0.1761  0.7624  1.3573
  192SLPC  H15Y22310   4.949   4.242   8.728  0.6739 -2.9800 -1.0736
  192SLPC  C31622311   4.988   4.164   8.528  0.5387  0.5477  0.3535
  192SLPC  H16X22312   5.099   4.151   8.524  0.5384  0.5233  0.4448
  192SLPC  H16Y22313   4.962   4.193   8.424 -0.8758 -0.7559  0.3275
  192SLPC  C31722314   4.928   4.021   8.547 -0.1329  0.5849  0.7599
  192SLPC  H17X22315   4.819   4.018   8.524  0.5006  0.3492 -2.4682
  192SLPC  H17Y22316   4.937   4.004   8.656 -0.6443  1.8767  1.0160
  192SLPC  C31822317   5.012   3.932   8.467 -0.0888 -0.5177 -0.2897
  192SLPC  H18X22318   4.962   3.834   8.482 -2.1535  0.2774 -1.6676
  192SLPC  H18Y22319   5.115   3.932   8.507 -0.6137  0.0054  1.0941
  192SLPC  H18Z22320   5.009   3.968   8.362 -1.1196 -0.9559 -0.4169
  193SOD    SOD22321   4.757   4.897   6.051 -0.3499  0.3280  0.1199
  194SOD    SOD22322   6.520   5.801   6.019  0.3665  0.0469 -0.1484
  195SOD    SOD22323   4.713   0.337  17.143 -0.0310  0.0542  0.2003
  196SOD    SOD22324   3.274   1.707  11.471  0.2276  0.1476  0.0997
  197SOD    SOD22325   0.206   6.581  13.137 -0.1495 -0.0634  0.1350
  198SOD    SOD22326   1.472   2.861  12.658 -0.2744 -0.5636 -0.2690
  199SOD    SOD22327   0.355   0.786   2.616  0.6170  0.2255  0.3107
  200SOD    SOD22328   0.790   5.337  11.439 -0.4724  0.1261  0.4798
  201SOD    SOD22329   0.900   4.158   0.946 -0.0191  0.1368  0.1902
  202SOD    SOD22330   1.020   5.043   5.873  0.1982  0.2012 -0.2703
  203SOD    SOD22331   1.243   5.499   0.150 -0.3727  0.1895  0.0180
  204SOD    SOD22332   3.859   1.326   2.278  0.2730  0.2482 -0.2937
  205SOD    SOD22333   5.421   2.492  11.412 -0.3004 -0.0060  0.6219
  206SOD    SOD22334   1.366   1.924   1.455  0.2854 -0.2790 -0.4382
  207SOD    SOD22335   1.183   3.870  13.515 -0.1619  0.1328 -0.2136
  208SOD    SOD22336   2.964   3.310   5.069 -0.3931 -0.0419 -0.0284
  209SOD    SOD22337   4.724   2.792   0.348 -0.4525  0.0594 -0.0310
  210SOD    SOD22338   5.983   1.526   0.627  0.1164 -0.2251 -0.3293
  211SOD    SOD22339   1.949   6.061  11.043 -0.0537  0.5343 -0.1324
  212SOD    SOD22340   4.632   3.830  13.791 -0.0801 -0.0006  0.0371
  213SOD    SOD22341   6.660   3.690  10.946 -0.0033  0.2134 -0.1408
  214SOD    SOD22342   4.522   6.395   5.661 -0.1123 -0.2570  0.0491
  215SOD    SOD22343   3.291   3.030   4.261 -0.2098 -0.3290  0.0945
  216SOD    SOD22344   6.289   0.470  11.565  0.4979 -0.5675 -0.1098
  217SOD    SOD22345   1.772   0.467   0.557  0.3502 -0.0963 -0.1559
  218SOD    SOD22346   4.938   4.175  11.938 -0.0441  0.1310  0.1073
  219SOD    SOD22347   5.673   2.538   3.888  0.0205 -0.1877 -0.1166
  220SOD    SOD22348   1.674   2.889   0.245 -0.0191 -0.4396  0.2749
  221SOD    SOD22349   1.504   2.135  11.958  0.5470 -0.0092 -0.6150
  222SOD    SOD22350   1.638   1.561  11.136  0.3134 -0.0009 -0.3870
  223SOD    SOD22351   2.427   3.920  15.761 -0.0354 -0.3705 -0.0006
  224SOD    SOD22352   1.348   2.873  16.632  0.2231  0.3569 -0.0934
  225SOD    SOD22353   0.360   0.041   5.524  0.2950 -0.0199  0.1823
  226SOD    SOD22354   0.545   2.473  11.203 -0.1150 -0.1678  0.2271
  227SOD    SOD22355   3.842   3.078  15.633 -0.4876  0.2342 -0.2734
  228SOD    SOD22356   2.869   6.410  10.819 -0.1694 -0.2076 -0.4327
  229SOD    SOD22357   2.449   1.179  12.027 -0.3049  0.0148  0.2863
  230SOD    SOD22358   0.997   6.094   3.439  0.2162  0.2742 -0.1634
  231SOD    SOD22359   5.736   5.011   4.080 -0.4770 -0.0300 -0.1823
  232SOD    SOD22360   5.095   1.057   0.831 -0.1904  0.1968 -0.0953
  233SOD    SOD22361   6.324   3.856   2.482 -0.6096  0.1566  0.0937
  234SOD    SOD22362   3.207   2.618  16.091  0.0455 -0.7255 -0.2648
  235SOD    SOD22363   5.772   2.435  12.715  0.3267  0.4093  0.3228
  236SOD    SOD22364   4.408   2.083  12.009  0.6165  0.1689 -0.7328
  237SOD    SOD22365   0.778   1.840  13.448 -0.4332  0.0028  0.1700
  238SOD    SOD22366   2.355   5.198   4.318 -0.2878  0.4041 -0.4014
  239SOD    SOD22367   4.589   0.759  13.062  0.5704 -0.2928  0.3875
  240SOD    SOD22368   1.070   3.853   4.621 -0.2361 -0.1192 -0.1901
  241SOD    SOD22369   2.160   3.903   6.169  0.1271  0.8533 -0.2581
  242SOD    SOD22370   1.277   6.315   5.898  0.1582  0.2856  0.4073
  243SOD    SOD22371   6.646   1.044   5.372 -0.8451  0.0109  0.3408
  244SOD    SOD22372   6.682   2.005  11.161 -0.2274  0.2189  0.0975
  245SOD    SOD22373   2.310   5.700   0.657 -0.2581 -0.4403 -0.4099
  246SOD    SOD22374   4.197   1.016   5.441  0.0802 -0.1904  0.3235
  247SOD    SOD22375   6.474   0.381   1.241  0.5587 -0.0688  0.1945
  248SOD    SOD22376   3.938   5.935  15.008  0.2462 -0.1155  0.1317
  249SOD    SOD22377   0.226   5.027   5.619  0.6397  0.0636 -0.7492
  250SOD    SOD22378   0.545   1.933  15.727 -0.1061  0.7084  0.0946
  251SOD    SOD22379   6.008   2.775   1.784  0.1732 -0.7089 -0.2322
  252SOD    SOD22380   2.450   6.249  12.261 -0.3635 -0.0655 -0.1007
  253SOD    SOD22381   3.650   0.478   4.873 -0.1406 -0.0664  0.2397
  254SOD    SOD22382   1.675   4.760   4.075 -0.2828  0.0696 -0.2083
  255SOD    SOD22383   2.631   2.301  15.495 -0.0930 -0.1769 -0.0793
  256SOD    SOD22384   6.345   4.696   0.540 -0.3010 -0.4141 -0.2003
  257SOD    SOD22385   2.140   2.863   3.101  0.4124 -0.4257 -0.2874
  258SOD    SOD22386   3.125   2.899  10.345  0.2429 -0.0568 -0.2197
  259SOD    SOD22387   2.859   0.951  13.628  0.2149 -0.5857 -0.4867
  260SOD    SOD22388   3.445   3.005   3.218  0.4902  0.4287  0.2287
  261SOD    SOD22389   5.470   6.488  12.987  0.5288  0.2650  0.3986
  262SOD    SOD22390   6.205   1.750   6.112  0.0914 -0.0317 -0.0852
  263SOD    SOD22391   6.505   5.437  13.226 -0.2709 -0.3332  0.7648
  264SOD    SOD22392   6.752   3.154  11.414 -0.1013  0.1655 -0.2234
  265SOD    SOD22393   1.673   6.062   3.336  0.2131  0.5243 -0.1697
  266CLA    CLA22394   0.772   0.945   3.600  0.4370  0.2138  0.3478
  267CLA    CLA22395   3.369   2.748   3.241  0.0437 -0.3206  0.2320
  268CLA    CLA22396   1.319   6.218  16.913  0.4945 -0.2071 -0.6460
  269CLA    CLA22397   4.229   0.232  13.181 -0.3112 -0.3600 -0.0962
  270CLA    CLA22398   3.061   2.096   1.175 -0.0505  0.2918  0.0501
  271CLA    CLA22399   2.102   4.242  14.114 -0.2215  0.1656  0.2586
  272CLA    CLA22400   1.343   2.817  14.117  0.3233 -0.2683 -0.0904
  273CLA    CLA22401   0.711   2.341  12.918  0.0063  0.1576 -0.2062
  274CLA    CLA22402   0.894   0.864  12.891  0.0779  0.1225  0.2936
  275CLA    CLA22403   4.250   1.743  11.711 -0.3080  0.3637 -0.4263
  276CLA    CLA22404   6.240   5.254   5.832 -0.1574 -0.2547 -0.1608
  277CLA    CLA22405   2.613   0.868  13.548  0.4175 -0.1110  0.0258
  278CLA    CLA22406   6.776   3.173  11.902 -0.1641 -0.5341 -0.2555
  279CLA    CLA22407   5.799   3.992   5.324  0.3272  0.3259 -0.1366
  280CLA    CLA22408   2.389   4.617   1.388  0.2292  0.4241 -0.1895
  281CLA    CLA22409   6.024   3.571   5.075  0.1473 -0.0436  0.0886
  282CLA    CLA22410   4.905   3.509   5.007  0.1939  0.1922  0.3982
  283CLA    CLA22411   5.959   2.887   5.261  0.1828  0.1512  0.1603
  284CLA    CLA22412   1.953   1.969  11.064  0.1610  0.3476 -0.0882
  285CLA    CLA22413   5.250   0.598   0.438  0.5340  0.1782 -0.1385
  286CLA    CLA22414   4.800   2.252  12.301 -0.0170 -0.1960 -0.2740
  287CLA    CLA22415   5.903   4.067  14.383 -0.2389  0.1557  0.1132
  288CLA    CLA22416   3.575   2.520  17.114  0.2894  0.0580 -0.2225
  289CLA    CLA22417   5.859   6.551  12.713  0.1907  0.1722  0.2586
  290CLA    CLA22418   6.520   4.305  17.231  0.1209  0.0575  0.1949
  291CLA    CLA22419   6.539   5.772  16.772 -0.6099 -0.1226  0.2640
  292CLA    CLA22420   5.449   2.854   1.251 -0.5358 -0.3053  0.0148
  293CLA    CLA22421   4.439   3.516   4.833  0.1576  0.3616 -0.2475
  294CLA    CLA22422   6.117   0.085   1.891  0.1676  0.1701 -0.8610
  295CLA    CLA22423   1.411   3.888   4.908  0.0825 -0.2734  0.1884
  296CLA    CLA22424   0.442   6.253  13.420 -0.1654 -0.1090  0.0774
  297CLA    CLA22425   5.789   2.082  12.160  0.4015 -0.5485  0.3388
  298CLA    CLA22426   3.479   4.143   3.241  0.2342  0.3006 -0.0019
  299CLA    CLA22427   3.098   2.130  13.981  0.0196 -0.3515  0.1037
  300CLA    CLA22428   4.096   4.425   5.711  0.0583 -0.1087  0.2904
  301CLA    CLA22429   2.902   6.653   2.912 -0.0232 -0.1091 -0.0872
  302CLA    CLA22430   6.411   6.020  15.752 -0.6035  0.2641  0.6718
  303CLA    CLA22431   3.297   0.425  12.177  0.2229  0.2940 -0.0855
  304CLA    CLA22432   0.759   1.785  17.020  0.0246 -0.4640 -0.4115
  305CLA    CLA22433   0.692   1.529   0.392  0.2472 -0.0256 -0.1419
  306CLA    CLA22434   5.010   3.692   2.173 -0.3161  0.2060  0.5947
  307CLA    CLA22435   3.185   5.682   1.884 -0.3088 -0.3437  0.1103
  308CLA    CLA22436   0.537   4.618   1.562 -0.1268  0.5798  0.2902
  309CLA    CLA22437   1.326   5.903   0.300 -0.8647  0.4224 -0.1732
  310CLA    CLA22438   4.181   6.766   5.139 -0.0131  0.0621  0.2270
  311CLA    CLA22439   4.762   2.414  11.717 -0.0363  0.0637 -0.1700
  312CLA    CLA22440   0.496   6.376  15.619 -0.2856  0.5676  0.4329
  313CLA    CLA22441   0.866   3.835  16.097  0.2624 -0.1821 -0.5077
  314CLA    CLA22442   3.355   4.337   5.063  0.0224  0.0136 -0.3641
  315CLA    CLA22443   4.654   6.343  12.567  0.1459 -0.1362 -0.3145
  316CLA    CLA22444   3.977   3.366   0.304 -0.1155  0.4630  0.2836
  317CLA    CLA22445   3.685   0.793   0.253 -0.0547  0.0543  0.2945
  318CLA    CLA22446   4.194   0.292  16.127 -0.5513  0.2334 -0.0052
  319TIP3   OH222447   3.060   3.935  17.000 -0.2805 -0.3688 -0.1023
  319TIP3    H122448   2.980   3.988  17.002 -0.0127  0.0091  0.4985
  319TIP3    H222449   3.127   3.994  16.965 -0.2763 -0.7116 -0.6934
  320TIP3   OH222450   1.702   3.043  13.483  0.5528 -0.5190  0.3445
  320TIP3    H122451   1.776   3.072  13.536  0.7367  0.2074 -0.2947
  320TIP3    H222452   1.693   2.950  13.502  0.3039 -0.1542  2.0170
  321TIP3   OH222453   2.711   4.714   4.586 -0.0078 -0.1964  0.3857
  321TIP3    H122454   2.620   4.738   4.602 -0.4335 -0.9932 -0.7557
  321TIP3    H222455   2.719   4.626   4.624  0.5605  0.2651  1.3533
  322TIP3   OH222456   4.112   0.980  14.478 -1.2568 -0.1291  0.4460
  322TIP3    H122457   4.107   0.994  14.384 -0.3357  1.0348  0.5556
  322TIP3    H222458   4.158   0.898  14.489 -0.0318  0.4809 -0.0987
  323TIP3   OH222459   5.523   6.155  11.241  0.2414 -0.0305 -0.2589
  323TIP3    H122460   5.472   6.117  11.169  2.5742  1.1820 -2.6271
  323TIP3    H222461   5.535   6.247  11.216  1.9347  0.1725  1.2055
  324TIP3   OH222462   2.229   1.495  16.620 -0.3327  0.1033 -0.0566
  324TIP3    H122463   2.254   1.440  16.546 -3.3279 -1.9746  0.4183
  324TIP3    H222464   2.233   1.437  16.695 -1.0314  1.2302  0.8566
  325TIP3   OH222465   4.572   3.878  14.363  0.2544  0.6167  0.0108
  325TIP3    H122466   4.492   3.895  14.313  0.8572  0.7054 -0.9143
  325TIP3    H222467   4.599   3.790  14.336 -0.0088  0.2259  0.9826
  326TIP3   OH222468   2.937   0.107   2.312 -0.7317 -0.2468  0.0014
  326TIP3    H122469   2.920   0.178   2.250  1.5385  1.3577  1.1475
  326TIP3    H222470   3.031   0.111   2.328 -0.9438 -2.0379  1.8966
  327TIP3   OH222471   2.018   5.520   3.670  0.0843 -0.5876  0.1837
  327TIP3    H122472   2.035   5.436   3.714 -0.1154 -1.1593 -0.7995
  327TIP3    H222473   2.104   5.557   3.654  0.2317 -1.1688 -0.4199
  328TIP3   OH222474   5.581   1.528  12.579 -0.2775 -0.4345  0.5334
  328TIP3    H122475   5.562   1.615  12.615 -0.3497  0.5014 -1.6854
  328TIP3    H222476   5.522   1.520  12.503  1.6007 -1.3313 -0.8676
  329TIP3   OH222477   5.462   1.127  16.292 -0.7591  0.0724 -0.0122
  329TIP3    H122478   5.379   1.137  16.246 -1.1313  0.2704  0.7005
  329TIP3    H222479   5.440   1.132  16.385  0.1942  1.4270  0.1737
  330TIP3   OH222480   3.349   5.887   3.414 -0.4109  0.2661  0.1337
  330TIP3    H122481   3.443   5.883   3.429 -0.5165 -0.8469  0.4892
  330TIP3    H222482   3.337   5.858   3.323 -0.1713  3.0112 -0.8299
  331TIP3   OH222483   3.566   2.696   4.401  0.6732  0.0057  0.1405
  331TIP3    H122484   3.516   2.626   4.360  0.5011  0.6620 -0.7876
  331TIP3    H222485   3.574   2.670   4.493 -2.2866  0.3949  0.5644
  332TIP3   OH222486   2.968   6.251   6.367  0.2721 -0.1752  0.0320
  332TIP3    H122487   2.999   6.194   6.437 -2.7129 -1.3945  0.4226
  332TIP3    H222488   2.897   6.202   6.325  0.4234  1.5166 -2.3400
  333TIP3   OH222489   3.703   1.065  15.292 -0.4346  0.4913  0.2401
  333TIP3    H122490   3.643   1.036  15.361 -1.0791  0.9798 -0.1034
  333TIP3    H222491   3.782   1.092  15.338  0.0112 -1.3507  0.6028
  334TIP3   OH222492   1.808   4.577  14.132 -0.1681  1.0259 -0.3385
  334TIP3    H122493   1.731   4.557  14.080  0.1073  1.4926 -0.9338
  334TIP3    H222494   1.880   4.534  14.086 -0.1192  0.3473  0.3764
  335TIP3   OH222495   0.924   0.292  16.445  1.1173  0.1400 -0.1570
  335TIP3    H122496   0.898   0.312  16.536  0.8567 -1.2052  0.0714
  335TIP3    H222497   0.932   0.197  16.443  1.8576  0.2270 -1.3610
  336TIP3   OH222498   0.931   0.640  15.407 -0.6487  0.3493  0.5279
  336TIP3    H122499   1.014   0.655  15.361 -0.6846  1.1006  0.6974
  336TIP3    H222500   0.956   0.586  15.482 -0.3185  0.5031  0.5347
  337TIP3   OH222501   0.236   3.379  14.672  0.2216 -0.0278 -0.1535
  337TIP3    H122502   0.189   3.439  14.615  0.6770 -0.3063 -0.8272
  337TIP3    H222503   0.198   3.293  14.652  1.1629 -0.2837 -0.8549
  338TIP3   OH222504   6.555   4.582  15.197 -0.5702 -0.2291  0.0883
  338TIP3    H122505   6.510   4.510  15.241 -1.1605  0.0376 -0.0682
  338TIP3    H222506   6.554   4.653  15.261 -1.5118  0.1896 -0.3799
  339TIP3   OH222507   6.066   1.846   3.074  0.3102 -0.4895  0.2725
  339TIP3    H122508   5.994   1.795   3.036  0.2548  0.1121 -0.4327
  339TIP3    H222509   6.108   1.888   2.999 -0.1822  1.2056  0.9198
  340TIP3   OH222510   2.229   3.477  16.270  0.3525 -0.5070 -0.0688
  340TIP3    H122511   2.265   3.437  16.350  0.9818  1.5483  0.7369
  340TIP3    H222512   2.139   3.499  16.293  0.3937 -0.3429 -0.0576
  341TIP3   OH222513   3.489   1.207   2.617  0.1828  0.4489 -0.4577
  341TIP3    H122514   3.456   1.277   2.560  0.0961  1.0098  0.2642
  341TIP3    H222515   3.524   1.141   2.557 -1.0404  0.4576 -1.1970
  342TIP3   OH222516   5.928   6.365   5.044  0.3161 -0.3155  0.1821
  342TIP3    H122517   6.012   6.374   5.089 -0.6145  1.1244  1.7004
  342TIP3    H222518   5.948   6.316   4.964  2.4728 -0.5595  0.8491
  343TIP3   OH222519   3.333   4.698  11.214 -0.6815  0.3322 -0.7174
  343TIP3    H122520   3.262   4.687  11.276  1.5341  0.6465  1.9906
  343TIP3    H222521   3.356   4.791  11.221  0.6367  0.0210 -0.8218
  344TIP3   OH222522   1.766   5.019   5.237 -0.1610 -0.1016  0.0550
  344TIP3    H122523   1.814   5.102   5.244 -1.0945  0.5734 -1.3846
  344TIP3    H222524   1.686   5.041   5.190 -0.0076 -1.9820 -1.1611
  345TIP3   OH222525   0.055   0.712   3.127  0.1992  0.7878 -0.3632
  345TIP3    H122526   0.026   0.623   3.147 -0.5292  0.9015 -0.8986
  345TIP3    H222527   0.151   0.706   3.121  0.0632 -0.2701 -1.8606
  346TIP3   OH222528   2.851   6.816  15.152  0.3245 -0.4868  0.0297
  346TIP3    H122529   2.856   6.866  15.233  0.6696  1.2853 -1.0545
  346TIP3    H222530   2.937   6.777  15.142  1.2041  1.6040 -0.8904
  347TIP3   OH222531   6.511   1.383  16.303  0.0923 -0.0718 -0.1413
  347TIP3    H122532   6.539   1.308  16.250  0.1683 -0.8050  0.9217
  347TIP3    H222533   6.538   1.460  16.251  0.7313 -0.7734 -0.8693
  348TIP3   OH222534   6.476   6.124   3.639 -0.5498 -0.0073  0.0999
  348TIP3    H122535   6.424   6.141   3.718  1.1014  2.5282  0.6962
  348TIP3    H222536   6.555   6.081   3.672 -0.9795 -1.2658 -0.4856
  349TIP3   OH222537   3.344   5.252  11.131  0.5743  0.1875  0.1727
  349TIP3    H122538   3.400   5.264  11.054 -1.4336 -0.3304 -1.3831
  349TIP3    H222539   3.324   5.341  11.160 -0.1190  0.4179 -0.9889
  350TIP3   OH222540   1.879   5.668  16.144 -0.4167 -0.0508 -0.1632
  350TIP3    H122541   1.966   5.695  16.175 -0.9664  1.6178 -0.0321
  350TIP3    H222542   1.818   5.709  16.206 -1.4704  2.0237 -2.5311
  351TIP3   OH222543   3.904   5.275  12.632  0.3457  0.0645 -0.2282
  351TIP3    H122544   3.969   5.345  12.643  0.8833 -0.5581  0.6377
  351TIP3    H222545   3.956   5.199  12.605 -0.4517  0.4591 -3.0715
  352TIP3   OH222546   4.108   5.635   4.621  0.8076  0.0567  0.2495
  352TIP3    H122547   4.122   5.544   4.596  1.2250  0.0127  0.6483
  352TIP3    H222548   4.065   5.674   4.545  1.0544 -0.3557 -0.1037
  353TIP3   OH222549   4.726   2.419   2.285  0.5172 -0.6031  0.2027
  353TIP3    H122550   4.795   2.368   2.244  0.3612 -0.0209 -0.8013
  353TIP3    H222551   4.672   2.449   2.212  2.1557  3.3020  0.5058
  354TIP3   OH222552   3.702   1.303  13.638  0.3393 -0.2963 -0.4060
  354TIP3    H122553   3.607   1.298  13.635  0.2400  1.3469 -0.6530
  354TIP3    H222554   3.728   1.320  13.547  0.8689 -0.8110 -0.3518
  355TIP3   OH222555   6.187   5.388  11.224  0.3752  0.4892  0.5496
  355TIP3    H122556   6.186   5.404  11.318 -0.5216  1.6304  0.3574
  355TIP3    H222557   6.125   5.451  11.188  1.2819  0.5966 -0.8901
  356TIP3   OH222558   1.358   5.986  15.049 -0.5073 -0.4342  0.6295
  356TIP3    H122559   1.341   6.062  14.993 -0.6448 -0.1811  1.0132
  356TIP3    H222560   1.328   6.013  15.136  0.0578 -0.6844  0.9051
  357TIP3   OH222561   2.669   3.420  15.682 -0.4640  0.4995  0.1034
  357TIP3    H122562   2.600   3.389  15.624 -0.4598 -0.3274  0.5475
  357TIP3    H222563   2.623   3.459  15.756 -0.4488 -0.7575  0.7742
  358TIP3   OH222564   6.806   5.827   6.281 -0.5452  0.4889 -0.7634
  358TIP3    H122565   6.782   5.759   6.218 -1.6865 -0.8608  1.0984
  358TIP3    H222566   6.724   5.847   6.327  0.6942 -0.0916  1.7790
  359TIP3   OH222567   1.942   1.642  10.816  0.2882 -0.2563  0.0009
  359TIP3    H122568   1.916   1.550  10.815  1.0403 -0.4736  0.1944
  359TIP3    H222569   1.913   1.676  10.731  0.6885 -0.8565 -0.3736
  360TIP3   OH222570   3.029   0.060   1.292  0.1259 -0.4452 -0.1942
  360TIP3    H122571   2.996  -0.020   1.334  1.1829 -0.7492  0.0864
  360TIP3    H222572   2.953   0.098   1.248 -0.3366 -1.7483 -0.5478
  361TIP3   OH222573   1.037   4.705   2.398 -0.2449  0.0054  0.2419
  361TIP3    H122574   1.075   4.788   2.369 -3.2636  0.5443 -2.3124
  361TIP3    H222575   1.041   4.648   2.322 -1.6242 -0.9795  0.8831
  362TIP3   OH222576   5.689   0.629  10.293 -0.0443 -0.2066  0.0737
  362TIP3    H122577   5.753   0.667  10.233  1.6676 -0.4163  1.7604
  362TIP3    H222578   5.672   0.542  10.257  0.9835 -0.3381 -0.1002
  363TIP3   OH222579   2.976   0.628  14.755 -0.1279  0.2404 -0.0306
  363TIP3    H122580   2.967   0.552  14.813  0.0546 -0.4400 -0.8931
  363TIP3    H222581   2.963   0.703  14.813 -1.0589 -0.4616  0.6813
  364TIP3   OH222582   6.732   4.992   3.542  0.2464  0.7594 -0.6502
  364TIP3    H122583   6.646   5.003   3.502  0.5185  0.4142 -1.3547
  364TIP3    H222584   6.745   4.897   3.544 -0.7815  0.6244  2.5146
  365TIP3   OH222585   3.950   2.480   5.526  0.2926  0.0220 -0.1218
  365TIP3    H122586   3.867   2.520   5.551  1.4722  1.0680  2.1976
  365TIP3    H222587   3.942   2.467   5.431 -2.9577 -0.9817  0.2172
  366TIP3   OH222588   6.662   0.002   6.429  0.2528 -0.0067 -0.6513
  366TIP3    H122589   6.617  -0.041   6.501 -0.9877 -0.3733 -1.6210
  366TIP3    H222590   6.734  -0.056   6.407  0.6907  0.1477  0.3394
  367TIP3   OH222591   3.652   0.655  10.914 -0.4846  0.0453  0.0505
  367TIP3    H122592   3.691   0.742  10.921 -1.2205  0.4405 -0.7066
  367TIP3    H222593   3.652   0.636  10.821  0.6286 -1.2233  0.2952
  368TIP3   OH222594   4.857   5.016  13.078 -0.1382 -0.5124 -0.3214
  368TIP3    H122595   4.907   5.068  13.015  0.4803 -0.7111  0.0044
  368TIP3    H222596   4.866   5.062  13.161 -0.2181 -0.7294 -0.1904
  369TIP3   OH222597   6.067   4.036  12.289  0.3461  0.3063  0.2143
  369TIP3    H122598   6.070   3.947  12.324  0.3826  0.0145 -0.5069
  369TIP3    H222599   6.114   4.030  12.205 -2.1679  0.3586 -1.2352
  370TIP3   OH222600   6.581   6.022   6.002 -0.0545 -0.5290 -0.2626
  370TIP3    H122601   6.495   6.036   5.962 -0.1608  0.4142  0.2779
  370TIP3    H222602   6.640   6.082   5.955  0.1407 -0.5863 -0.0910
  371TIP3   OH222603   2.110   3.442   1.930  0.0885 -0.0236  0.3310
  371TIP3    H122604   2.078   3.439   2.020 -1.4316  1.2404 -0.1516
  371TIP3    H222605   2.064   3.370   1.885  1.2617 -1.0111  0.6696
  372TIP3   OH222606   5.872   5.751  16.692  0.1835 -0.4292  0.3632
  372TIP3    H122607   5.883   5.661  16.722 -1.1912 -0.7330 -0.0575
  372TIP3    H222608   5.783   5.775  16.718  0.3830  0.6602  0.0827
  373TIP3   OH222609   3.776   3.721   1.462  0.2030  0.3290 -0.0121
  373TIP3    H122610   3.726   3.688   1.387 -0.4874  1.2055  0.0580
  373TIP3    H222611   3.834   3.787   1.425  0.8361 -0.2149  0.0125
  374TIP3   OH222612   4.815   4.803  12.439  0.9316 -0.1008 -0.3079
  374TIP3    H122613   4.768   4.841  12.365  0.6052  0.6322  0.2661
  374TIP3    H222614   4.852   4.878  12.486  0.8786 -0.5331  0.4440
  375TIP3   OH222615   4.000   1.602  12.727 -0.0398  0.3271 -0.6619
  375TIP3    H122616   3.909   1.572  12.721 -0.5508  1.8543 -0.6688
  375TIP3    H222617   4.004   1.653  12.807  1.2029 -1.0002  0.1342
  376TIP3   OH222618   6.569   3.937  12.019  0.2523 -0.5455 -0.1827
  376TIP3    H122619   6.549   3.853  11.976 -0.2973 -0.2279 -0.5638
  376TIP3    H222620   6.664   3.942  12.019  0.2858 -1.1739 -0.1613
  377TIP3   OH222621   2.019   4.089   0.680 -0.0624 -0.1605 -0.1925
  377TIP3    H122622   1.989   4.176   0.707  0.3405 -0.6356  1.9087
  377TIP3    H222623   2.112   4.089   0.700 -0.4827 -1.8199  1.9128
  378TIP3   OH222624   4.164   0.141  12.518 -0.1153  0.2882  0.4503
  378TIP3    H122625   4.119   0.206  12.572 -1.4725 -2.3270  2.6202
  378TIP3    H222626   4.100   0.117  12.451  0.2669  0.9172 -0.1483
  379TIP3   OH222627   2.421   6.221  15.436  0.3430  0.6959 -0.0176
  379TIP3    H122628   2.438   6.198  15.344 -2.0334 -1.0317 -0.0776
  379TIP3    H222629   2.467   6.154  15.486 -2.2406 -1.1854 -0.0832
  380TIP3   OH222630   1.061   3.350  16.525 -0.0531  0.2338  0.6365
  380TIP3    H122631   1.046   3.328  16.433 -2.0884  0.6740  0.8427
  380TIP3    H222632   1.153   3.376  16.528  0.2583 -0.5409 -1.1221
  381TIP3   OH222633   6.526   1.567  10.968 -0.0245 -0.2491 -0.4638
  381TIP3    H122634   6.509   1.590  10.877 -0.8316 -1.5479 -0.6504
  381TIP3    H222635   6.603   1.619  10.991  0.3978 -0.1500 -1.9921
  382TIP3   OH222636   4.582   2.574  16.376  0.1718 -0.3945  0.1860
  382TIP3    H122637   4.563   2.482  16.393  1.3183 -1.0150 -1.8358
  382TIP3    H222638   4.664   2.591  16.422  0.2508 -0.5123  0.0852
  383TIP3   OH222639   5.827   3.862   2.838  0.1671 -0.7274 -0.2721
  383TIP3    H122640   5.761   3.855   2.770 -1.1479  4.3374  0.3034
  383TIP3    H222641   5.904   3.899   2.794  0.3571 -0.3497  0.3591
  384TIP3   OH222642   3.083   4.927   2.559 -0.1636 -0.8909 -0.1810
  384TIP3    H122643   3.152   4.901   2.498  0.3396  0.4680 -0.2060
  384TIP3    H222644   3.131   4.961   2.635 -0.7771  1.0932 -0.6455
  385TIP3   OH222645   5.895   6.450   4.628  0.2272  0.3705 -0.0987
  385TIP3    H122646   5.813   6.480   4.588  0.0536  1.9982  1.4256
  385TIP3    H222647   5.876   6.360   4.657 -0.4007  0.0491 -1.4654
  386TIP3   OH222648   5.866   5.279   2.524  0.2809  0.0224  0.9275
  386TIP3    H122649   5.870   5.184   2.531 -0.7346 -0.0992  0.0406
  386TIP3    H222650   5.939   5.303   2.467 -0.5061 -0.3985 -0.2683
  387TIP3   OH222651   0.093   1.668   1.526  0.3914 -0.1153 -0.2608
  387TIP3    H122652   0.120   1.756   1.550  1.0639 -0.4498  0.2699
  387TIP3    H222653   0.150   1.644   1.453  1.8064 -0.9431  1.0678
  388TIP3   OH222654   5.907   3.058  14.051 -0.2785  0.6663  0.2898
  388TIP3    H122655   5.923   3.150  14.072 -1.4642  1.0012 -0.2090
  388TIP3    H222656   5.821   3.039  14.089 -0.8007  0.2529 -1.0304
  389TIP3   OH222657   4.052   5.027  12.584  0.0892  0.5806  0.2818
  389TIP3    H122658   4.059   4.948  12.530 -0.0721  0.5789  0.2657
  389TIP3    H222659   4.078   4.997  12.672 -2.0319 -0.0021  0.7518
  390TIP3   OH222660   5.044   1.051   0.281 -0.3896 -0.6973  0.2334
  390TIP3    H122661   5.010   1.055   0.192  1.7264  0.7490 -0.5387
  390TIP3    H222662   5.100   0.973   0.281 -1.1706 -1.2672  0.6020
  391TIP3   OH222663   5.149   4.676  13.204 -0.1891 -0.3019  0.5108
  391TIP3    H122664   5.240   4.649  13.219  0.6990  1.4851 -1.4423
  391TIP3    H222665   5.101   4.593  13.196  1.6468 -1.2800 -0.6485
  392TIP3   OH222666   6.222   5.586  13.540 -0.8610  0.1748  0.1729
  392TIP3    H122667   6.196   5.670  13.578  0.6606  0.4954  0.5708
  392TIP3    H222668   6.306   5.567  13.582 -1.7208 -2.1047  0.9400
  393TIP3   OH222669   4.801   3.151   0.784  0.3661 -0.2564  0.4833
  393TIP3    H122670   4.830   3.060   0.783  1.6281  0.1429  0.7667
  393TIP3    H222671   4.876   3.200   0.818  0.5750  1.2018 -2.0033
  394TIP3   OH222672   4.967   4.930  15.934  0.0283  0.3871 -0.0829
  394TIP3    H122673   4.973   4.837  15.912 -0.3685 -0.0834  1.7649
  394TIP3    H222674   4.883   4.958  15.897  1.6904  0.8926 -3.7045
  395TIP3   OH222675   6.513   6.553  15.747  0.0969  0.5732  0.1523
  395TIP3    H122676   6.455   6.481  15.720 -1.1274  1.5456  0.1447
  395TIP3    H222677   6.528   6.603  15.666  0.4528  0.6751  0.2801
  396TIP3   OH222678   3.290   0.270  14.605 -0.0762  0.0928 -0.8075
  396TIP3    H122679   3.249   0.185  14.591  0.1456 -0.1586  0.0888
  396TIP3    H222680   3.240   0.330  14.548 -0.7942 -0.4649 -0.7687
  397TIP3   OH222681   3.679   5.104   1.032  0.0582  0.2701  0.3755
  397TIP3    H122682   3.694   5.040   1.101  0.4647  0.5807  0.5769
  397TIP3    H222683   3.584   5.115   1.029  0.0906  0.8604  1.4445
  398TIP3   OH222684   0.387   4.960   3.290 -0.3159 -0.2037  0.3172
  398TIP3    H122685   0.390   5.034   3.229 -1.9610 -0.1757  0.2457
  398TIP3    H222686   0.421   4.995   3.372 -0.7784  0.5638  0.1908
  399TIP3   OH222687   2.865   0.177  12.349 -1.0078  0.1496 -0.3294
  399TIP3    H122688   2.914   0.223  12.280 -0.5510  0.4375  0.1894
  399TIP3    H222689   2.834   0.247  12.407  0.3696 -0.2540  0.9119
  400TIP3   OH222690   4.534   1.616  14.014  0.1823 -0.1242 -0.2046
  400TIP3    H122691   4.453   1.650  13.976 -0.1047  0.8376  1.2279
  400TIP3    H222692   4.505   1.545  14.072  0.6205 -1.6300 -1.7986
  401TIP3   OH222693   1.292   4.160   3.270  0.6570 -0.7363  0.4194
  401TIP3    H122694   1.352   4.129   3.202  0.2668 -0.6193  0.0198
  401TIP3    H222695   1.207   4.165   3.227  0.8004  1.3630  0.3402
  402TIP3   OH222696   5.010   4.600   3.028  0.1984 -0.1134 -0.2165
  402TIP3    H122697   4.941   4.548   2.987 -0.7169  2.3264 -1.8819
  402TIP3    H222698   5.038   4.661   2.960  1.3722  1.4421  1.6049
  403TIP3   OH222699   4.100   4.369  12.672 -0.1339 -0.1027  0.3068
  403TIP3    H122700   4.082   4.314  12.596 -0.7866  2.0095 -1.0961
  403TIP3    H222701   4.167   4.321  12.720 -1.7122 -2.8111 -0.1040
  404TIP3   OH222702   5.208   4.145  14.464  0.0708  0.1617 -0.7489
  404TIP3    H122703   5.219   4.050  14.456 -1.6066 -0.1623  0.5444
  404TIP3    H222704   5.124   4.156  14.507 -0.0928  2.2796 -1.5415
  405TIP3   OH222705   6.219   5.735   5.013  0.0742  0.0775 -0.3633
  405TIP3    H122706   6.271   5.672   4.964  0.8312  0.1935  0.2878
  405TIP3    H222707   6.282   5.779   5.070 -0.0364  2.9419 -2.3396
  406TIP3   OH222708   2.678   2.486   6.268  0.0544  0.3811 -0.3214
  406TIP3    H122709   2.670   2.492   6.173 -0.4883  1.1333 -0.2332
  406TIP3    H222710   2.753   2.541   6.289 -0.3764  0.9348 -0.2287
  407TIP3   OH222711   2.563   3.265   6.415  0.1625 -0.8089  0.2184
  407TIP3    H122712   2.580   3.319   6.492 -3.5462 -0.8855  1.1813
  407TIP3    H222713   2.513   3.190   6.448  0.6401 -2.0927 -1.8927
  408TIP3   OH222714   3.701   0.979   3.715  0.5194  0.1047 -0.0494
  408TIP3    H122715   3.649   1.054   3.743 -0.8927 -0.7656 -0.3233
  408TIP3    H222716   3.667   0.957   3.628  0.1024 -1.5926  0.5250
  409TIP3   OH222717   5.228   4.001  12.703 -0.6887 -0.3764 -0.0236
  409TIP3    H122718   5.208   4.090  12.674 -0.1486 -0.5928 -1.0841
  409TIP3    H222719   5.212   4.002  12.798 -0.3531  0.9362  0.0209
  410TIP3   OH222720   4.124   1.440  13.599 -0.4231  0.4885 -0.2016
  410TIP3    H122721   4.207   1.418  13.556 -0.3789  1.1412 -0.4569
  410TIP3    H222722   4.092   1.516  13.552 -1.1568  0.2566 -0.0810
  411TIP3   OH222723   4.618   0.153   4.609 -0.2136 -0.6974 -0.0526
  411TIP3    H122724   4.614   0.248   4.617  2.6531 -0.6065  1.0729
  411TIP3    H222725   4.557   0.121   4.676 -0.3110  0.3326  0.3686
  412TIP3   OH222726   5.226   2.125  13.989 -0.0061  0.0462 -0.1338
  412TIP3    H122727   5.239   2.107  13.896 -0.1250 -1.2213  0.0750
  412TIP3    H222728   5.257   2.046  14.033  1.4698  1.2275  1.0005
  413TIP3   OH222729   5.390   3.988  11.218 -0.4050 -0.0685  0.2131
  413TIP3    H122730   5.319   4.052  11.205 -0.0771  0.3079  0.2548
  413TIP3    H222731   5.463   4.023  11.166  0.4179  0.6423  1.8096
  414TIP3   OH222732   0.714   0.385  15.010 -0.2857 -0.6755  0.1740
  414TIP3    H122733   0.753   0.426  15.087 -0.6578 -0.7159  0.3856
  414TIP3    H222734   0.757   0.427  14.935  2.0353 -2.5084  0.4162
  415TIP3   OH222735   5.293   0.261   1.325  0.3898  0.6693  0.3222
  415TIP3    H122736   5.305   0.191   1.389 -0.4447 -0.1113 -0.3598
  415TIP3    H222737   5.373   0.313   1.330  1.6160 -1.1265 -0.1403
  416TIP3   OH222738   2.850   2.385  16.858  0.0311  0.0954  0.7818
  416TIP3    H122739   2.857   2.358  16.766 -0.0083 -0.0913  0.8329
  416TIP3    H222740   2.935   2.361  16.896 -0.9658 -2.4201  1.4851
  417TIP3   OH222741   1.498   0.426   4.230  0.0901 -0.7653  0.8956
  417TIP3    H122742   1.404   0.428   4.211  0.2341  0.6383  0.2802
  417TIP3    H222743   1.538   0.395   4.149  0.1451 -1.6518  1.2553
  418TIP3   OH222744   6.145   5.431   1.617 -0.3949 -0.3945  0.0056
  418TIP3    H122745   6.151   5.501   1.553 -0.6372 -0.1866  0.2096
  418TIP3    H222746   6.124   5.353   1.566  0.9211 -0.5298 -0.3482
  419TIP3   OH222747   1.579   2.574   5.274 -0.1647 -0.5804 -0.2302
  419TIP3    H122748   1.590   2.644   5.210  1.6364  1.2755  1.9933
  419TIP3    H222749   1.491   2.586   5.308 -0.7508 -0.9313 -1.5904
  420TIP3   OH222750   1.765   5.089   1.666 -0.3729  0.4903  0.3407
  420TIP3    H122751   1.696   5.156   1.669 -0.1371  0.7340  0.3837
  420TIP3    H222752   1.777   5.071   1.573 -0.9926 -0.0725  0.3733
  421TIP3   OH222753   1.334   2.733  16.224 -0.2249  0.0879  0.1904
  421TIP3    H122754   1.301   2.678  16.153 -1.6196  0.6708  0.3758
  421TIP3    H222755   1.375   2.808  16.179  2.2420 -1.3525 -0.0843
  422TIP3   OH222756   0.511   3.091   1.791 -0.2673 -0.2093 -0.0523
  422TIP3    H122757   0.506   3.186   1.784 -1.5641 -0.3419 -1.3751
  422TIP3    H222758   0.420   3.062   1.784 -0.0513 -1.4682  1.9561
  423TIP3   OH222759   3.294   4.564  14.495 -0.0415  0.3949 -0.2560
  423TIP3    H122760   3.205   4.568  14.528  0.0126  1.3969 -0.2338
  423TIP3    H222761   3.343   4.520  14.565 -0.2263  1.1599  0.3674
  424TIP3   OH222762   6.175   6.646  17.222  0.1040 -0.1771 -0.4167
  424TIP3    H122763   6.148   6.736  17.244  0.0107 -0.1485 -0.6425
  424TIP3    H222764   6.182   6.647  17.127  1.7720  0.0529 -0.3006
  425TIP3   OH222765   0.717   3.609   2.303 -0.0971 -0.3582 -0.1025
  425TIP3    H122766   0.670   3.583   2.382  0.0086  0.3042  0.1848
  425TIP3    H222767   0.769   3.685   2.330  0.2528 -0.3783 -0.7059
  426TIP3   OH222768   4.801   2.309   3.790 -0.0756  0.0091 -0.2071
  426TIP3    H122769   4.861   2.379   3.817  0.7498  0.3646 -2.8889
  426TIP3    H222770   4.828   2.233   3.842  1.7214  0.5772 -0.2774
  427TIP3   OH222771   2.614   3.470   1.770 -0.3838 -0.1657  0.0634
  427TIP3    H122772   2.605   3.533   1.699  2.4593  0.0387 -0.1521
  427TIP3    H222773   2.559   3.506   1.840  0.0356  1.8110 -0.5726
  428TIP3   OH222774   3.067   1.671  11.573 -0.0593  0.2233 -0.0030
  428TIP3    H122775   3.069   1.722  11.654  0.1674  2.1134 -1.1677
  428TIP3    H222776   2.975   1.667  11.549 -0.0047  0.7067 -0.2941
  429TIP3   OH222777   3.792   0.505   6.006 -0.3264  0.8160  0.0888
  429TIP3    H122778   3.861   0.544   6.059  1.3249  0.0741 -1.4420
  429TIP3    H222779   3.779   0.417   6.042 -1.3723  1.3786  1.1420
  430TIP3   OH222780   2.673   1.007  15.775 -0.1927 -0.4146 -0.1237
  430TIP3    H122781   2.703   0.971  15.858  1.4696 -0.3935 -0.6926
  430TIP3    H222782   2.714   0.952  15.708 -0.6402  0.2274 -0.9453
  431TIP3   OH222783   1.914   0.553  17.291  0.1819  0.3794 -0.6839
  431TIP3    H122784   1.990   0.611  17.298  0.8416 -0.5141 -0.2800
  431TIP3    H222785   1.949   0.466  17.311 -0.6632 -0.2564 -1.8976
  432TIP3   OH222786   0.967   6.419   6.704 -0.2367 -0.2894 -0.1240
  432TIP3    H122787   0.896   6.390   6.648  1.2260 -3.8541 -0.2547
  432TIP3    H222788   1.039   6.438   6.645  0.4528 -1.4662  0.3102
  433TIP3   OH222789   3.763   2.129  11.274 -0.0460  0.2094 -0.3930
  433TIP3    H122790   3.835   2.149  11.213 -0.1358 -1.7535 -1.1719
  433TIP3    H222791   3.804   2.133  11.361  0.7260  0.3420 -0.7535
  434TIP3   OH222792   1.985   0.897   4.436 -0.4054  0.1853  0.2098
  434TIP3    H122793   1.996   0.984   4.474  0.8194  0.0608  0.1486
  434TIP3    H222794   2.028   0.838   4.498 -2.0713 -0.5002  0.7515
  435TIP3   OH222795   4.207   5.104   1.379 -0.3775  0.5022  0.4701
  435TIP3    H122796   4.235   5.084   1.290 -0.7509 -0.9863  0.6862
  435TIP3    H222797   4.152   5.182   1.370 -1.1134 -0.1517 -0.7133
  436TIP3   OH222798   2.133   4.495  13.156 -0.2151  0.1853 -0.3980
  436TIP3    H122799   2.213   4.509  13.207  0.2364 -2.5840 -0.2321
  436TIP3    H222800   2.161   4.503  13.065 -0.1318  1.0193 -0.2984
  437TIP3   OH222801   0.680   0.250   5.609  0.1938  0.1747  0.2893
  437TIP3    H122802   0.654   0.167   5.648  0.0930  1.0450  2.0868
  437TIP3    H222803   0.774   0.241   5.593  0.2705 -0.1256  0.9009
  438TIP3   OH222804   6.380   5.639  13.262  0.1621 -0.0037  0.1739
  438TIP3    H122805   6.288   5.615  13.270  0.3185 -0.4712  0.5918
  438TIP3    H222806   6.384   5.731  13.290 -0.2848  0.2376 -0.5351
  439TIP3   OH222807   1.860   4.546   1.431  0.3990  0.4602 -0.0490
  439TIP3    H122808   1.818   4.552   1.517  0.2422  0.7850 -0.1451
  439TIP3    H222809   1.815   4.613   1.379  2.4718  2.2885  0.4472
  440TIP3   OH222810   1.733   2.352   2.979 -0.2328  0.2050 -0.0093
  440TIP3    H122811   1.687   2.318   3.055 -0.1828 -1.0750 -0.5456
  440TIP3    H222812   1.810   2.396   3.015 -1.2248  1.3031  0.7999
  441TIP3   OH222813   5.435   1.497  16.140  0.5111  0.2119  0.0057
  441TIP3    H122814   5.365   1.433  16.148 -0.8941  1.8453  1.3673
  441TIP3    H222815   5.489   1.465  16.068 -1.4613 -1.2457 -0.8901
  442TIP3   OH222816   0.725   3.555  14.199  0.3176  0.5157 -0.3512
  442TIP3    H122817   0.792   3.523  14.259 -0.4040 -0.4261 -0.0366
  442TIP3    H222818   0.761   3.537  14.112  0.3903 -0.1715 -0.1836
  443TIP3   OH222819   2.069   4.340   5.455 -0.3674  0.9389  0.0637
  443TIP3    H122820   2.021   4.294   5.386 -0.0098  0.2348  0.2757
  443TIP3    H222821   2.159   4.308   5.447  0.3863  3.2438 -1.2089
  444TIP3   OH222822   0.348   4.260  13.823  0.2980 -0.4001  0.3727
  444TIP3    H122823   0.261   4.259  13.783  0.1623 -0.2919  0.6623
  444TIP3    H222824   0.347   4.337  13.881  0.2014 -1.0240  1.2091
  445TIP3   OH222825   0.069   0.544   1.854 -0.0167  0.3222 -0.1309
  445TIP3    H122826   0.152   0.543   1.807 -0.2158  3.3484 -0.6512
  445TIP3    H222827   0.003   0.559   1.786 -0.7157  0.5403  0.5819
  446TIP3   OH222828   3.215   5.275  15.682  0.3901  0.0395 -0.1873
  446TIP3    H122829   3.170   5.219  15.618  0.1896  0.8924 -0.8016
  446TIP3    H222830   3.168   5.259  15.764 -0.8434  0.6790 -0.7573
  447TIP3   OH222831   5.081   0.479   0.169 -0.2028  0.4382 -0.1482
  447TIP3    H122832   5.079   0.494   0.264 -0.2713  2.2472 -0.4225
  447TIP3    H222833   5.173   0.487   0.145 -0.0091 -1.2830 -0.0634
  448TIP3   OH222834   2.325   0.799  12.577 -0.1614  0.2353 -0.7894
  448TIP3    H122835   2.338   0.708  12.550 -0.5967  0.4801 -1.8430
  448TIP3    H222836   2.236   0.801  12.612 -0.5059  0.4585 -1.6608
  449TIP3   OH222837   4.596   4.813  16.473  0.1206 -0.4177  0.3803
  449TIP3    H122838   4.558   4.761  16.402  0.0324  0.7822 -0.4662
  449TIP3    H222839   4.690   4.803  16.463  0.1150 -0.0138 -0.0962
  450TIP3   OH222840   4.657   6.680   0.241  0.3221  0.5041 -0.3641
  450TIP3    H122841   4.724   6.735   0.281  0.9268 -0.3094 -0.2496
  450TIP3    H222842   4.574   6.711   0.278  0.6652  1.3124 -0.2840
  451TIP3   OH222843   3.307   1.892  15.736 -0.3059 -0.0908 -0.2056
  451TIP3    H122844   3.282   1.902  15.828 -3.1987 -0.1462 -0.9257
  451TIP3    H222845   3.356   1.810  15.733  2.5223  1.4469  1.7531
  452TIP3   OH222846   3.667   3.139  16.100 -0.0021 -0.2135 -0.6558
  452TIP3    H122847   3.628   3.077  16.038 -0.3249 -1.1503  0.4568
  452TIP3    H222848   3.656   3.097  16.186  0.3361  1.1068  0.0526
  453TIP3   OH222849   6.482   0.039  10.802 -0.2002  0.2631 -0.1157
  453TIP3    H122850   6.574   0.022  10.820  0.4071  1.4760 -1.8945
  453TIP3    H222851   6.434  -0.022  10.858  1.7253 -2.7019 -1.6000
  454TIP3   OH222852   1.149   5.762  14.001  0.2918 -0.3778  0.1369
  454TIP3    H122853   1.230   5.719  14.027  0.3681  0.9681  2.3148
  454TIP3    H222854   1.172   5.814  13.924  1.4017 -0.3676  0.4685
  455TIP3   OH222855   4.584   4.494  13.018  0.2122 -0.0767 -0.4152
  455TIP3    H122856   4.590   4.414  12.965 -1.0491 -0.3362 -0.1994
  455TIP3    H222857   4.545   4.464  13.101  2.2828  0.3025  0.7078
  456TIP3   OH222858   5.924   0.906   4.142  0.4015  0.0881 -0.0786
  456TIP3    H122859   5.885   0.830   4.186 -0.4982  0.9213  0.5800
  456TIP3    H222860   5.932   0.880   4.050  0.8984 -1.1138  0.2996
  457TIP3   OH222861   3.265   5.106   1.881 -0.5585  0.5608  0.4385
  457TIP3    H122862   3.270   5.151   1.797  1.9043  1.4482  1.0077
  457TIP3    H222863   3.194   5.151   1.928 -0.2800  1.6968 -0.2173
  458TIP3   OH222864   0.946   0.884  15.862 -0.0159 -0.4015  0.0866
  458TIP3    H122865   0.896   0.834  15.797 -0.5538 -2.1013  1.7688
  458TIP3    H222866   0.908   0.859  15.946  1.4088  0.9225  1.1474
  459TIP3   OH222867   1.627   1.187  16.910  0.2628 -0.5023 -0.1715
  459TIP3    H122868   1.562   1.124  16.941  0.7743 -0.8234  0.2523
  459TIP3    H222869   1.708   1.162  16.954  0.6527 -0.0411 -0.6223
  460TIP3   OH222870   2.321   3.380   3.681 -0.0525  0.1249 -0.3771
  460TIP3    H122871   2.369   3.297   3.687  0.5866  0.5444  0.5419
  460TIP3    H222872   2.281   3.390   3.767 -0.9509  0.2833 -0.8150
  461TIP3   OH222873   1.194   6.562  16.152 -0.3663  0.0111 -0.0036
  461TIP3    H122874   1.129   6.503  16.112  0.7060 -0.2259 -1.4397
  461TIP3    H222875   1.273   6.509  16.158  1.7520  2.3355 -4.8181
  462TIP3   OH222876   3.903   6.677  17.199 -0.2023  0.3278 -0.2331
  462TIP3    H122877   3.951   6.669  17.281 -0.2968 -0.5677 -0.2581
  462TIP3    H222878   3.836   6.744  17.216 -2.2324 -2.0488  1.4179
  463TIP3   OH222879   6.637   0.323   5.954 -0.1130  0.9905  0.7189
  463TIP3    H122880   6.603   0.394   5.900  0.8950  2.2697  1.7258
  463TIP3    H222881   6.592   0.333   6.038 -0.0520  0.3531  0.8323
  464TIP3   OH222882   5.065   1.441  14.643  0.4361  0.0677  0.2857
  464TIP3    H122883   5.034   1.520  14.599  1.8712  0.9637  0.8524
  464TIP3    H222884   5.003   1.373  14.615 -0.7841  1.3581 -0.2541
  465TIP3   OH222885   1.844   5.874   3.700 -0.8044  0.2091  0.2800
  465TIP3    H122886   1.810   5.786   3.681  1.5410 -0.4333 -1.0657
  465TIP3    H222887   1.937   5.869   3.681 -0.6958  3.1164 -0.1750
  466TIP3   OH222888   0.262   2.130  13.328 -0.5033  0.3215 -0.1895
  466TIP3    H122889   0.244   2.082  13.409 -1.9435 -1.1914 -1.3455
  466TIP3    H222890   0.218   2.214  13.339 -1.9147 -0.4309  0.0601
  467TIP3   OH222891   1.969   5.609   3.268  0.1873 -0.2157  0.0100
  467TIP3    H122892   2.041   5.554   3.238  0.8698  1.1099 -0.8459
  467TIP3    H222893   1.930   5.561   3.342 -0.7461 -2.9522 -2.1871
  468TIP3   OH222894   3.452   2.109  11.375  0.0926 -0.1555 -0.1162
  468TIP3    H122895   3.512   2.068  11.312  1.8053  0.5250  1.0262
  468TIP3    H222896   3.406   2.176  11.324  1.1730  0.1299 -0.7420
  469TIP3   OH222897   1.927   4.767   1.629  0.1414 -0.1643 -0.4809
  469TIP3    H122898   2.017   4.767   1.662 -0.5606  2.1801  1.5558
  469TIP3    H222899   1.896   4.678   1.647  1.4144 -0.4213  0.5560
  470TIP3   OH222900   4.298   5.854  13.435 -0.0244 -0.0037 -0.0184
  470TIP3    H122901   4.219   5.891  13.396 -0.9934 -1.5848  0.3861
  470TIP3    H222902   4.312   5.906  13.515  1.2913  2.4699 -1.8048
  471TIP3   OH222903   4.227   0.929  15.093  0.2290  0.0122  0.0831
  471TIP3    H122904   4.235   0.951  15.000  1.2174  1.5971  0.5159
  471TIP3    H222905   4.164   0.858  15.096 -1.1377  1.1183 -1.6619
  472TIP3   OH222906   2.838   5.615   3.569  0.7025  0.7190  0.4520
  472TIP3    H122907   2.909   5.671   3.601  0.1164  1.7898 -0.0638
  472TIP3    H222908   2.801   5.576   3.648  2.0953 -0.1280  0.6852
  473TIP3   OH222909   0.102   2.111   4.522  0.0347  0.4800 -0.3097
  473TIP3    H122910   0.016   2.070   4.512  0.2147  0.4965 -2.1213
  473TIP3    H222911   0.109   2.170   4.447  2.6706 -1.4369 -1.6251
  474TIP3   OH222912   2.184   2.966   4.564 -0.5469  0.0618 -0.2505
  474TIP3    H122913   2.147   2.889   4.521 -3.2007  1.3075 -0.2765
  474TIP3    H222914   2.110   3.006   4.610  1.2550  1.3857  1.5838
  475TIP3   OH222915   2.437   6.538  11.891  0.0506 -0.0634 -0.0403
  475TIP3    H122916   2.434   6.634  11.886 -1.8993 -0.1775 -1.7121
  475TIP3    H222917   2.504   6.513  11.827 -1.4527  0.0878 -1.7302
  476TIP3   OH222918   0.445   4.963  13.750 -0.4120  0.0657 -0.2668
  476TIP3    H122919   0.372   4.903  13.761  1.5395 -2.6576 -1.2758
  476TIP3    H222920   0.521   4.915  13.785  1.3208  1.6426 -1.7087
  477TIP3   OH222921   1.079   3.559  16.963 -0.4416 -0.0285  0.3804
  477TIP3    H122922   1.062   3.589  16.873  2.4502  1.6205  0.3411
  477TIP3    H222923   1.015   3.607  17.016 -1.1580  0.1424 -0.6050
  478TIP3   OH222924   0.242   2.668  12.400 -0.1432  0.2960 -0.0204
  478TIP3    H122925   0.335   2.663  12.376  0.2924  0.7265  1.5409
  478TIP3    H222926   0.196   2.666  12.316  1.3177  1.0260 -0.8618
  479TIP3   OH222927   2.703   4.649   3.388  0.2206 -0.1727 -0.0652
  479TIP3    H122928   2.754   4.610   3.318  0.8694  0.6869 -0.0732
  479TIP3    H222929   2.613   4.622   3.370  0.6466 -1.6081 -0.1013
  480TIP3   OH222930   5.044   3.780   0.811 -0.3888  0.5033 -0.3950
  480TIP3    H122931   4.996   3.721   0.869 -0.0517  0.4876 -0.1283
  480TIP3    H222932   5.056   3.859   0.863  0.5002  0.2441 -0.2031
  481TIP3   OH222933   2.540   1.024  16.882 -0.1579  0.5053  0.4007
  481TIP3    H122934   2.445   1.016  16.869  0.0103 -2.1955  0.4674
  481TIP3    H222935   2.572   1.056  16.797 -1.0676  0.8310  0.1670
  482TIP3   OH222936   1.363   4.677   1.244 -0.3131 -0.2520 -0.1217
  482TIP3    H122937   1.392   4.594   1.281  0.6351 -0.3014 -0.9412
  482TIP3    H222938   1.280   4.695   1.287 -0.6498 -1.7522 -0.1248
  483TIP3   OH222939   6.557   3.809  11.573  0.8799 -0.1354 -0.2671
  483TIP3    H122940   6.621   3.741  11.595  0.5519 -1.1660 -2.4366
  483TIP3    H222941   6.477   3.783  11.620  1.0980 -0.5939 -0.1513
  484TIP3   OH222942   5.989   5.147   4.836  0.1060  0.2217  0.2065
  484TIP3    H122943   6.035   5.063   4.833 -0.7579 -0.2985  1.1380
  484TIP3    H222944   5.896   5.123   4.830 -0.1970  1.0361  1.4233
  485TIP3   OH222945   6.026   0.717  12.726  0.1531 -0.1022  0.0711
  485TIP3    H122946   6.079   0.769  12.665  1.1159 -1.1583 -0.0207
  485TIP3    H222947   5.946   0.768  12.738  0.9796  1.2936 -0.1741
  486TIP3   OH222948   6.285   5.407   6.092  0.2011 -0.4396  0.0445
  486TIP3    H122949   6.262   5.368   6.176  0.2889 -0.9956 -0.1902
  486TIP3    H222950   6.280   5.335   6.030  1.6644 -0.3615 -0.1697
  487TIP3   OH222951   5.228   1.422  12.656 -0.6904  0.7422  0.2163
  487TIP3    H122952   5.194   1.385  12.575 -0.0835  0.7406 -0.0446
  487TIP3    H222953   5.242   1.346  12.713 -2.0256  0.8357  0.6769
  488TIP3   OH222954   5.295   2.868   4.381  0.2416 -0.4145 -0.0770
  488TIP3    H122955   5.230   2.938   4.374  0.3750 -0.3787 -0.9308
  488TIP3    H222956   5.313   2.861   4.475 -0.2203  0.2862  0.0609
  489TIP3   OH222957   1.532   4.327  11.591  0.2354  0.1520 -0.0970
  489TIP3    H122958   1.468   4.310  11.659  0.1554 -1.4636 -0.5573
  489TIP3    H222959   1.615   4.337  11.638 -0.2408  1.6930  0.4462
  490TIP3   OH222960   1.564   5.680  14.500  0.3089 -0.6046 -0.1389
  490TIP3    H122961   1.632   5.745  14.519  0.3043 -1.0220  1.3538
  490TIP3    H222962   1.611   5.605  14.464  0.2575  0.4029 -2.4338
  491TIP3   OH222963   2.573   6.764  16.086  0.4519 -0.0632 -0.1977
  491TIP3    H122964   2.657   6.720  16.077  1.1379  1.3034 -0.7018
  491TIP3    H222965   2.530   6.721  16.160  1.5860 -0.7766  0.0486
  492TIP3   OH222966   6.794   0.242   1.544  0.1271 -0.4581  0.2014
  492TIP3    H122967   6.710   0.203   1.568  0.5811 -1.3179  0.3910
  492TIP3    H222968   6.789   0.331   1.579 -1.2574 -0.0299 -1.0021
  493TIP3   OH222969   4.913   1.742  12.435 -0.0778  0.2777  0.0590
  493TIP3    H122970   4.973   1.715  12.505 -0.2765  0.1802  0.1909
  493TIP3    H222971   4.968   1.793  12.375  0.6580 -1.6859 -0.9887
  494TIP3   OH222972   1.435   5.914  12.608  0.2483  0.0142 -0.0231
  494TIP3    H122973   1.360   5.955  12.566 -0.1999 -0.5671  0.1975
  494TIP3    H222974   1.486   5.987  12.643 -0.1605  0.4184 -0.2674
  495TIP3   OH222975   4.860   6.384  12.348 -0.3609  0.0187 -0.2669
  495TIP3    H122976   4.784   6.360  12.401  1.5292  0.5560  2.8732
  495TIP3    H222977   4.922   6.422  12.411  1.5536  1.8391 -3.1114
  496TIP3   OH222978   0.285   1.764   2.471 -0.9075 -0.0801  0.4557
  496TIP3    H122979   0.229   1.731   2.400 -0.6503 -0.5622  0.4756
  496TIP3    H222980   0.345   1.825   2.428 -1.2805  0.2419  0.3915
  497TIP3   OH222981   1.891   4.153  11.388 -0.4265 -0.0690  0.3454
  497TIP3    H122982   1.959   4.114  11.333  0.6415 -2.5794  3.3739
  497TIP3    H222983   1.817   4.093  11.381 -1.3019  1.0832 -0.5313
  498TIP3   OH222984   4.968   5.797  16.921  0.0613  0.7588 -0.5175
  498TIP3    H122985   4.941   5.882  16.957 -1.4130  0.5355 -1.0794
  498TIP3    H222986   5.050   5.778  16.966  0.1630  2.2531 -0.0182
  499TIP3   OH222987   0.611   5.911   1.457  0.0452 -0.3252  0.1855
  499TIP3    H122988   0.686   5.928   1.514  0.4317 -1.7582  0.1273
  499TIP3    H222989   0.622   5.971   1.384  0.3119  0.5308  0.9196
  500TIP3   OH222990   2.587   2.936   4.147  0.0235  0.2115  0.5444
  500TIP3    H122991   2.560   3.019   4.108  1.1120  0.8875  1.2131
  500TIP3    H222992   2.660   2.906   4.092 -1.0111 -0.8105 -0.2952
  501TIP3   OH222993   2.410   6.202   4.389  0.1898 -0.0709  0.2333
  501TIP3    H122994   2.320   6.192   4.421  0.0387 -0.6786 -0.3494
  501TIP3    H222995   2.445   6.276   4.438 -0.9813  0.8570 -0.2929
  502TIP3   OH222996   6.431   4.705   4.902 -0.1670  0.3478  0.4120
  502TIP3    H122997   6.463   4.678   4.988  0.6378 -1.1351 -0.3216
  502TIP3    H222998   6.403   4.795   4.913 -0.9424 -0.1278  2.4626
  503TIP3   OH222999   2.075   2.768  13.886 -0.2176 -0.1844  0.3351
  503TIP3    H123000   2.108   2.702  13.825 -2.9596 -0.1514 -1.2733
  503TIP3    H223001   2.131   2.844  13.871 -1.0986 -0.0221 -2.5124
  504TIP3   OH223002   4.776   6.123   5.164 -0.0992 -0.2819  0.4909
  504TIP3    H123003   4.759   6.217   5.173  2.1427  0.2130 -0.0497
  504TIP3    H223004   4.858   6.109   5.212 -0.0145 -1.8217 -0.0764
  505TIP3   OH223005   2.846   3.907  15.232 -0.4468 -0.1807  0.2841
  505TIP3    H123006   2.841   3.992  15.277  0.5884 -0.6850  1.3585
  505TIP3    H223007   2.768   3.906  15.176  0.6302  2.4063 -1.3897
  506TIP3   OH223008   4.010   1.019  14.016 -0.0398 -0.7716 -0.4291
  506TIP3    H123009   3.997   0.937  13.968 -1.8510  0.0658 -1.4062
  506TIP3    H223010   4.008   1.086  13.948 -2.7085  0.4469  0.8058
  507TIP3   OH223011   3.150   3.494   3.150 -1.0574 -0.3134 -0.6564
  507TIP3    H123012   3.067   3.454   3.174 -0.6107 -0.6050  0.4362
  507TIP3    H223013   3.132   3.540   3.069 -1.7117 -2.3622 -1.7230
  508TIP3   OH223014   6.317   4.334   5.408  0.1498  0.2441  0.2669
  508TIP3    H123015   6.406   4.300   5.422 -0.1821 -1.0675 -0.7340
  508TIP3    H223016   6.271   4.318   5.490 -0.1403 -2.1926 -0.3388
  509TIP3   OH223017   4.529   6.014  13.114 -0.3100 -0.3177 -0.2177
  509TIP3    H123018   4.547   5.943  13.175  0.0957  0.9223  1.1540
  509TIP3    H223019   4.600   6.010  13.050  2.5793  1.8257  2.6637
  510TIP3   OH223020   3.114   1.435  11.835  0.6208  0.4248  0.0215
  510TIP3    H123021   3.075   1.483  11.908  2.1229  1.1701  0.3415
  510TIP3    H223022   3.097   1.490  11.758 -1.0768 -0.4227 -0.2409
  511TIP3   OH223023   1.633   1.303  13.392 -0.2364  0.7851  0.3631
  511TIP3    H123024   1.707   1.317  13.333 -0.3819 -0.4623 -0.1467
  511TIP3    H223025   1.561   1.277  13.334 -0.6280  0.4344  1.0041
  512TIP3   OH223026   2.891   0.514   0.529  0.4052 -0.0099 -0.4133
  512TIP3    H123027   2.966   0.457   0.543 -0.9544 -1.2909  1.9256
  512TIP3    H223028   2.827   0.458   0.483  0.8710  1.0768 -2.4239
  513TIP3   OH223029   1.849   0.641   2.110 -0.8198 -0.4491  0.1941
  513TIP3    H123030   1.847   0.717   2.168 -1.2245  0.1590 -0.6088
  513TIP3    H223031   1.937   0.605   2.121 -0.1660  0.9339 -0.4325
  514TIP3   OH223032   5.763   1.733   5.244 -0.2922 -0.8899 -0.7075
  514TIP3    H123033   5.702   1.772   5.181 -1.8875 -2.7687 -0.3758
  514TIP3    H223034   5.740   1.640   5.245  1.2326 -1.2737  0.9618
  515TIP3   OH223035   1.084   2.295  15.147 -0.9015  0.2356 -0.0199
  515TIP3    H123036   1.116   2.376  15.106  1.0662 -1.2084 -1.4253
  515TIP3    H223037   1.016   2.263  15.088  2.1112 -1.9855 -2.5067
  516TIP3   OH223038   3.436   4.779   4.321  0.1796 -0.2614 -0.4063
  516TIP3    H123039   3.352   4.802   4.282  0.5695  0.2487 -0.9650
  516TIP3    H223040   3.474   4.863   4.347  2.1292 -0.0894 -3.4995
  517TIP3   OH223041   2.068   1.635   3.100 -0.1003  0.6302  0.3038
  517TIP3    H123042   2.124   1.571   3.057  0.5532  1.0318  0.5468
  517TIP3    H223043   2.065   1.709   3.040 -0.4166  0.5932  0.2696
  518TIP3   OH223044   3.095   3.343   4.015  0.0789  0.3975  0.2108
  518TIP3    H123045   3.162   3.280   3.987 -1.6992 -0.8803 -1.3386
  518TIP3    H223046   3.045   3.361   3.935 -3.1587 -0.8331  1.9052
  519TIP3   OH223047   5.229   0.896  13.752 -0.5590 -1.1316  0.4827
  519TIP3    H123048   5.186   0.955  13.691  0.6349 -0.1355  0.5789
  519TIP3    H223049   5.195   0.920  13.838  0.6813  0.1205  0.6383
  520TIP3   OH223050   3.524   1.894  11.815 -0.2762  0.9580  0.1899
  520TIP3    H123051   3.482   1.979  11.802 -2.1397  0.3782  2.0324
  520TIP3    H223052   3.492   1.840  11.743 -2.2550  0.7266  1.1839
  521TIP3   OH223053   4.760   5.844   0.397  0.3208 -0.5671 -0.6301
  521TIP3    H123054   4.738   5.753   0.378  0.2209 -0.7480  0.3529
  521TIP3    H223055   4.806   5.841   0.480 -0.1296  0.3358 -0.3482
  522TIP3   OH223056   5.813   4.706   3.116 -0.5192  0.6710 -0.4000
  522TIP3    H123057   5.862   4.721   3.035 -0.7390 -0.6230 -0.7981
  522TIP3    H223058   5.734   4.760   3.107  0.0760  1.5409 -0.4545
  523TIP3   OH223059   2.978   0.212   0.895  0.3545  0.5506  0.0392
  523TIP3    H123060   2.888   0.216   0.862  1.0122  0.9132 -1.7552
  523TIP3    H223061   3.003   0.120   0.888  0.1413  0.4517  0.5267
  524TIP3   OH223062   3.634   1.752  12.047  0.1114  0.2727 -0.6113
  524TIP3    H123063   3.599   1.829  12.002 -0.2379 -0.2637 -1.2594
  524TIP3    H223064   3.559   1.694  12.058  0.6347 -0.5421 -1.3071
  525TIP3   OH223065   2.371   4.808   3.286  0.2527 -0.0925  0.4624
  525TIP3    H123066   2.323   4.863   3.348  1.3592 -0.5924  1.7784
  525TIP3    H223067   2.415   4.871   3.228  0.1915  0.3947  0.9362
  526TIP3   OH223068   1.874   3.214  12.661  0.4349  0.1499 -0.1563
  526TIP3    H123069   1.929   3.212  12.583 -0.2930  1.5321 -0.7249
  526TIP3    H223070   1.919   3.158  12.724  1.4955 -0.2529 -1.2551
  527TIP3   OH223071   0.989   4.342  11.213  0.2930  0.2011 -0.4873
  527TIP3    H123072   1.079   4.351  11.182  1.0020 -0.5695  1.2785
  527TIP3    H223073   0.962   4.432  11.234  1.3820  0.2124  0.9165
  528TIP3   OH223074   1.875   6.633  11.626 -0.2080 -0.7449  0.1442
  528TIP3    H123075   1.912   6.547  11.643  0.6789 -0.1807  1.1571
  528TIP3    H223076   1.868   6.673  11.713  1.0915  0.8690 -0.4686
  529TIP3   OH223077   0.570   2.782   4.244 -0.2504 -0.1017  0.4551
  529TIP3    H123078   0.594   2.865   4.286  0.8094 -0.5659  0.7696
  529TIP3    H223079   0.475   2.789   4.232 -0.3122  0.7653  1.3407
  530TIP3   OH223080   5.616   4.304  13.313  0.0972  0.1736  0.0679
  530TIP3    H123081   5.549   4.259  13.263 -0.3764  1.1278 -0.1746
  530TIP3    H223082   5.695   4.253  13.300 -0.3760 -0.4383 -0.4022
  531TIP3   OH223083   6.159   2.870   6.042 -0.1980  0.3430  0.3997
  531TIP3    H123084   6.247   2.870   6.080  1.1778 -0.5385 -2.6106
  531TIP3    H223085   6.125   2.782   6.059  1.9708 -1.3978 -3.6370
  532TIP3   OH223086   3.023   0.450  11.472 -0.6176 -0.3196  0.2663
  532TIP3    H123087   3.078   0.404  11.409 -0.4387  0.1664  0.0691
  532TIP3    H223088   3.067   0.437  11.556 -0.6224 -0.5938  0.2280
  533TIP3   OH223089   2.116   4.303  10.681  0.2208  0.3773 -0.1716
  533TIP3    H123090   2.089   4.377  10.734  2.2762  1.1742 -0.1867
  533TIP3    H223091   2.186   4.337  10.625  0.9036 -1.4498 -0.4779
  534TIP3   OH223092   0.172   2.432  17.239  0.1179  0.1101  0.1090
  534TIP3    H123093   0.130   2.505  17.285 -0.5843 -0.2194  0.0006
  534TIP3    H223094   0.255   2.420  17.284 -0.4647 -0.0589  1.1512
  535TIP3   OH223095   3.827   3.294  14.515 -0.2855  0.1354  0.4737
  535TIP3    H123096   3.864   3.351  14.582 -0.1946  0.2354  0.3377
  535TIP3    H223097   3.740   3.330  14.499  1.2559  2.7312 -2.5669
  536TIP3   OH223098   0.510   6.179  12.726  0.0197  0.1459  0.0954
  536TIP3    H123099   0.526   6.201  12.817 -2.1551  1.6367  0.1570
  536TIP3    H223100   0.440   6.113  12.729 -3.2173  3.3838 -0.5840
  537TIP3   OH223101   5.281   2.337   6.176 -0.1258 -0.1086  0.3964
  537TIP3    H123102   5.300   2.277   6.104 -0.0892  0.7301 -0.3012
  537TIP3    H223103   5.200   2.381   6.150  0.7836  1.4149  0.0665
  538TIP3   OH223104   1.739   0.790  14.927  0.5835 -0.4488 -0.9279
  538TIP3    H123105   1.794   0.713  14.940  2.9349  1.5847  1.6009
  538TIP3    H223106   1.794   0.851  14.878 -0.1749  0.7827 -0.2702
  539TIP3   OH223107   1.718   0.054   1.878  0.7857 -0.2929  0.0848
  539TIP3    H123108   1.813   0.068   1.879  0.5469  1.7729 -1.1543
  539TIP3    H223109   1.691   0.088   1.793 -0.4887 -5.2361 -1.6507
  540TIP3   OH223110   3.907   2.979   2.787  0.4238 -0.3218  0.0860
  540TIP3    H123111   3.939   3.066   2.764  0.0450 -0.6464 -1.7225
  540TIP3    H223112   3.953   2.920   2.729 -0.1396 -1.2304  0.5425
  541TIP3   OH223113   2.436   4.176   1.231 -0.0254  0.3697  0.7366
  541TIP3    H123114   2.466   4.116   1.299 -0.7265 -1.8446 -0.8559
  541TIP3    H223115   2.354   4.211   1.265 -2.0612 -3.2013 -0.2831
  542TIP3   OH223116   2.554   0.938   2.613  0.1775 -0.5966  0.1488
  542TIP3    H123117   2.514   1.023   2.631  0.5059 -0.4252  0.0785
  542TIP3    H223118   2.640   0.960   2.576  0.9947 -0.9658  1.7880
  543TIP3   OH223119   0.020   1.109   4.027 -0.3825 -0.3274  0.0717
  543TIP3    H123120  -0.059   1.116   3.974 -0.2854  1.7543  0.1671
  543TIP3    H223121   0.072   1.185   4.003  0.8959 -0.8270  1.1651
  544TIP3   OH223122   1.436   3.642   5.338  0.3576 -0.0972  0.6216
  544TIP3    H123123   1.415   3.553   5.310 -0.5142 -0.0049  0.9616
  544TIP3    H223124   1.385   3.698   5.280  0.2067  0.1463  0.9843
  545TIP3   OH223125   1.942   0.850   1.055  0.1961  0.2775  0.2548
  545TIP3    H123126   1.907   0.899   1.129 -1.4707 -1.3230  0.5365
  545TIP3    H223127   1.960   0.918   0.989  1.0664  1.6272  1.8434
  546TIP3   OH223128   3.096   3.804   0.059 -0.2786 -1.0970 -0.4239
  546TIP3    H123129   3.160   3.734   0.054  0.2598 -0.5043 -2.0704
  546TIP3    H223130   3.011   3.760   0.054  0.0371 -1.7074 -0.4346
  547TIP3   OH223131   5.519   1.908   2.801 -0.0738 -0.6964 -0.3570
  547TIP3    H123132   5.591   1.936   2.858  0.1345  0.6379 -1.2623
  547TIP3    H223133   5.481   1.989   2.768 -0.7744 -1.4314 -1.4085
  548TIP3   OH223134   5.198   3.721   5.741 -0.2649  0.5507  0.0749
  548TIP3    H123135   5.143   3.799   5.725 -0.0070  0.5112 -1.0818
  548TIP3    H223136   5.264   3.751   5.803 -1.8770  0.4712  1.8696
  549TIP3   OH223137   4.373   4.142  11.440 -0.0163 -0.0074  0.1464
  549TIP3    H123138   4.422   4.104  11.513 -1.0753 -1.1665  0.2746
  549TIP3    H223139   4.300   4.187  11.482  0.4457  0.9864 -0.0953
  550TIP3   OH223140   0.522   0.722  14.154 -0.0608 -0.1411 -0.2598
  550TIP3    H123141   0.533   0.769  14.071  0.8539  0.4295  0.1703
  550TIP3    H223142   0.446   0.762  14.195 -1.1184 -1.0909 -1.2631
  551TIP3   OH223143   4.937   1.237   2.918 -0.0335  0.3804  0.1855
  551TIP3    H123144   4.869   1.305   2.914 -1.3923 -1.0075 -0.7324
  551TIP3    H223145   4.895   1.159   2.883  1.8276 -0.7004  0.3053
  552TIP3   OH223146   3.341   2.131  12.868  0.1350  0.1238 -0.7216
  552TIP3    H123147   3.315   2.060  12.926  1.2598 -0.8744 -1.4152
  552TIP3    H223148   3.258   2.170  12.839 -0.4644 -0.3110  0.3687
  553TIP3   OH223149   2.876   5.444   3.055 -0.1397  0.2219 -0.4342
  553TIP3    H123150   2.866   5.368   3.111 -1.5468  1.3198  0.8533
  553TIP3    H223151   2.889   5.408   2.967 -1.1992 -1.5064  0.1014
  554TIP3   OH223152   0.420   3.606   1.868 -0.1142 -0.6545  0.0351
  554TIP3    H123153   0.443   3.620   1.960 -1.5099 -2.5007  0.6916
  554TIP3    H223154   0.355   3.674   1.849 -0.4777 -0.8164  0.6800
  555TIP3   OH223155   0.614   4.466  16.865  0.1136 -0.1283 -0.3468
  555TIP3    H123156   0.558   4.494  16.793  0.4523 -2.5488 -1.6152
  555TIP3    H223157   0.680   4.410  16.824  1.1246 -0.4706  1.6626
  556TIP3   OH223158   1.864   0.369  13.889 -0.0505  0.3472 -0.1654
  556TIP3    H123159   1.929   0.389  13.822  0.4928 -1.6798 -0.2679
  556TIP3    H223160   1.873   0.275  13.904 -3.1800 -0.0535 -0.4189
  557TIP3   OH223161   2.268   0.855   1.001  0.6565 -0.1109  0.0562
  557TIP3    H123162   2.252   0.850   1.095  0.1384  1.8213  0.1012
  557TIP3    H223163   2.336   0.922   0.992  1.3635 -0.9371 -0.8943
  558TIP3   OH223164   6.560   1.849  10.711 -0.1503 -0.2795  0.3135
  558TIP3    H123165   6.481   1.894  10.680  0.1760 -0.5371 -0.9165
  558TIP3    H223166   6.547   1.758  10.685  0.9242 -0.1665 -0.6588
  559TIP3   OH223167   5.867   5.754   5.762  0.2898 -0.3851  0.6117
  559TIP3    H123168   5.841   5.831   5.712  3.1902  1.1103  1.2617
  559TIP3    H223169   5.833   5.769   5.850  0.9255  0.2396  0.7590
  560TIP3   OH223170   6.422   4.658  16.112 -0.7631  0.4980 -0.2288
  560TIP3    H123171   6.472   4.652  16.193 -1.4779  2.8874  0.4231
  560TIP3    H223172   6.344   4.605  16.128 -0.3762  0.0613  0.2310
  561TIP3   OH223173   2.968   2.737   4.052  0.5043 -0.0916 -0.3310
  561TIP3    H123174   2.893   2.689   4.088  0.2083 -0.9158 -1.9967
  561TIP3    H223175   3.031   2.668   4.028  2.1110  0.6107  1.6514
  562TIP3   OH223176   3.740   0.917  12.741  0.2951  0.2698 -0.2357
  562TIP3    H123177   3.680   0.860  12.693  0.0753  0.5624 -0.3118
  562TIP3    H223178   3.712   1.006  12.717 -0.1371  0.4231  0.8485
  563TIP3   OH223179   6.748   5.870  15.783 -0.1784 -0.4017  0.4280
  563TIP3    H123180   6.717   5.894  15.695  2.5424  0.9142 -0.2002
  563TIP3    H223181   6.814   5.803  15.768  0.2661 -0.2103  1.4977
  564TIP3   OH223182   1.454   0.036   6.418 -0.2396  0.1880 -0.0636
  564TIP3    H123183   1.513  -0.037   6.397 -0.7942 -0.2351 -0.1670
  564TIP3    H223184   1.513   0.109   6.438  0.3030  0.3019 -2.0031
  565TIP3   OH223185   4.570   3.045  17.193 -0.2049  0.3688 -0.2956
  565TIP3    H123186   4.615   2.969  17.155  0.0885 -0.5307  1.7940
  565TIP3    H223187   4.490   3.008  17.231  0.1378  1.0255  1.1028
  566TIP3   OH223188   4.010   3.440  17.246  0.3234  0.0192 -0.1858
  566TIP3    H123189   3.937   3.484  17.290 -0.2281 -0.4854 -0.5935
  566TIP3    H223190   3.999   3.348  17.266 -0.3938 -0.3209 -2.0142
  567TIP3   OH223191   1.356   5.185  11.986  0.7121 -0.2975  0.0558
  567TIP3    H123192   1.445   5.194  12.022  0.4177  0.7364  0.5485
  567TIP3    H223193   1.341   5.267  11.940  1.2490 -1.7739 -2.8492
  568TIP3   OH223194   3.898   5.675   0.929  0.3074 -0.3143  0.4362
  568TIP3    H123195   3.993   5.678   0.924  0.3911 -2.0439  0.4937
  568TIP3    H223196   3.880   5.615   1.002 -0.8010 -1.5025 -0.7624
  569TIP3   OH223197   5.664   0.440   2.842 -0.5352  0.1175 -1.0679
  569TIP3    H123198   5.733   0.471   2.900 -0.9437  0.1599 -0.6038
  569TIP3    H223199   5.654   0.510   2.777 -0.1126  0.0913 -1.1651
  570TIP3   OH223200   4.704   2.714   1.505 -0.2336 -0.0297  0.1138
  570TIP3    H123201   4.628   2.674   1.547  0.5070 -0.5327  0.9960
  570TIP3    H223202   4.729   2.786   1.563 -0.0736  0.1755 -0.2050
  571TIP3   OH223203   4.872   5.650  13.570  0.3462 -0.3389  0.3435
  571TIP3    H123204   4.887   5.561  13.539  0.8173  0.4221 -1.6401
  571TIP3    H223205   4.781   5.648  13.602  0.3597 -1.5251  0.3484
  572TIP3   OH223206   0.938   5.265  11.670  0.1033 -0.0110  0.3379
  572TIP3    H123207   0.958   5.359  11.678  0.4518 -0.0376 -0.1503
  572TIP3    H223208   1.021   5.222  11.690 -0.1482 -0.2328  0.9151
  573TIP3   OH223209   2.270   2.408  12.599  0.4815 -0.4710  0.8246
  573TIP3    H123210   2.310   2.495  12.588  3.3129 -2.0240 -1.8496
  573TIP3    H223211   2.317   2.369  12.672 -1.3641  0.4955  2.5792
  574TIP3   OH223212   4.802   1.766  12.107 -0.0304  0.5605 -0.0297
  574TIP3    H123213   4.859   1.830  12.150  0.7574  0.6592 -1.2144
  574TIP3    H223214   4.784   1.804  12.021 -0.2643 -0.3983 -0.4110
  575TIP3   OH223215   0.516   4.801  14.006  0.1567 -0.2663 -0.6336
  575TIP3    H123216   0.458   4.734  13.970  0.5769 -1.7711  1.3934
  575TIP3    H223217   0.596   4.754  14.030  0.8601  1.1436 -0.1470
  576TIP3   OH223218   3.718   0.596  10.661  0.4109  0.4193  0.4806
  576TIP3    H123219   3.677   0.509  10.659  1.9468 -0.3572  1.5382
  576TIP3    H223220   3.782   0.593  10.590  0.5036  0.6789  0.5558
  577TIP3   OH223221   1.216   0.446  16.758 -0.4817 -0.6069 -0.1486
  577TIP3    H123222   1.244   0.528  16.719 -3.0271 -0.2352 -1.2899
  577TIP3    H223223   1.298   0.398  16.775  0.9760  1.8164 -0.1439
  578TIP3   OH223224   0.784   2.066  17.144 -0.3678  0.2308 -0.6176
  578TIP3    H123225   0.754   2.067  17.235  1.3456 -1.2719 -0.0087
  578TIP3    H223226   0.787   1.973  17.121  0.9796  0.5023 -1.6025
  579TIP3   OH223227   1.717   0.731   5.953 -0.6038 -0.6118 -0.3267
  579TIP3    H123228   1.702   0.640   5.925  2.3550 -1.6791  1.3411
  579TIP3    H223229   1.726   0.725   6.048 -3.5366  1.9378  0.1893
  580TIP3   OH223230   1.646   6.406  12.117  0.1739 -0.3798  0.3581
  580TIP3    H123231   1.627   6.317  12.144  0.1970 -0.6110 -0.3829
  580TIP3    H223232   1.696   6.397  12.036 -0.7405  0.3201 -0.2977
  581TIP3   OH223233   4.112   1.225   0.665 -0.0672  0.2310 -0.6236
  581TIP3    H123234   4.103   1.214   0.571  1.3910  1.5443 -0.9342
  581TIP3    H223235   4.191   1.277   0.676  0.1373 -0.4391  1.3628
  582TIP3   OH223236   1.423   6.438   6.081  0.1437  0.2757  0.2419
  582TIP3    H123237   1.513   6.467   6.097  0.3099  0.4148 -0.9114
  582TIP3    H223238   1.378   6.453   6.164  0.9897  0.9433  0.5893
  583TIP3   OH223239   3.868   0.429   1.808 -0.0089 -0.3358  0.1534
  583TIP3    H123240   3.939   0.450   1.748  0.0154 -0.3075  0.1922
  583TIP3    H223241   3.837   0.343   1.780 -0.2313 -0.1657 -0.1245
  584TIP3   OH223242   6.604   0.590  13.938 -0.2811  0.3011 -0.0713
  584TIP3    H123243   6.578   0.569  13.848 -2.3347 -0.5271  0.6658
  584TIP3    H223244   6.638   0.508  13.973  3.1643  1.3140 -0.9286
  585TIP3   OH223245   6.721   1.447   3.145 -0.4826  0.0270 -0.2557
  585TIP3    H123246   6.649   1.473   3.203  0.1673 -1.7803  1.4118
  585TIP3    H223247   6.771   1.528   3.131 -1.5390  0.8117  0.4213
  586TIP3   OH223248   4.335   3.738  16.769 -0.6246  0.1674  0.6247
  586TIP3    H123249   4.407   3.713  16.827  0.6633 -1.1852 -1.4902
  586TIP3    H223250   4.275   3.664  16.774 -1.2782  0.7453  1.4245
  587TIP3   OH223251   1.540   2.812   0.425 -0.8597  0.1860  0.2371
  587TIP3    H123252   1.543   2.847   0.514  1.1970 -0.4829  0.4620
  587TIP3    H223253   1.529   2.717   0.438 -1.5583  0.2020 -0.2463
  588TIP3   OH223254   5.594   4.001  14.374  0.0880 -0.2265 -0.0524
  588TIP3    H123255   5.683   4.023  14.347  0.1416  0.0040  0.3066
  588TIP3    H223256   5.560   4.081  14.413  0.1286 -0.6300  0.8438
  589TIP3   OH223257   4.347   4.870   4.726 -0.1777 -0.1733  0.4581
  589TIP3    H123258   4.399   4.933   4.776  0.2203 -1.3033  1.4958
  589TIP3    H223259   4.407   4.838   4.659 -0.2756  0.2798  0.1476
  590TIP3   OH223260   5.652   4.483  14.519 -0.3520  0.2475  0.0719
  590TIP3    H123261   5.722   4.475  14.582 -0.2189  1.1964  0.0470
  590TIP3    H223262   5.692   4.462  14.435  0.3122  2.4600 -0.1774
  591TIP3   OH223263   6.122   1.830  14.854 -0.2740  0.3646  0.0815
  591TIP3    H123264   6.092   1.902  14.800 -0.2292  0.0502 -0.3632
  591TIP3    H223265   6.209   1.856  14.884 -1.2727  1.6126  1.9885
  592TIP3   OH223266   3.003   6.564   3.203 -0.0358  0.0679  0.4135
  592TIP3    H123267   3.094   6.540   3.182  0.4776  1.5287  0.8984
  592TIP3    H223268   2.970   6.604   3.123 -1.2138 -3.0216 -0.7299
  593TIP3   OH223269   2.518   0.942  16.522  0.0687 -0.8630 -0.1036
  593TIP3    H123270   2.512   0.851  16.493 -3.4412 -0.7498  0.0441
  593TIP3    H223271   2.500   0.994  16.443 -0.7779 -0.3576  0.4163
  594TIP3   OH223272   2.519   2.731  16.605 -0.1540 -0.0256 -0.0458
  594TIP3    H123273   2.500   2.674  16.531  0.8808 -2.0676  1.1981
  594TIP3    H223274   2.516   2.673  16.681 -0.2177  1.8214  1.3936
  595TIP3   OH223275   4.419   4.393   1.802 -0.0005  0.9064 -0.4086
  595TIP3    H123276   4.380   4.433   1.724 -0.4592 -2.1156 -1.8247
  595TIP3    H223277   4.509   4.372   1.775 -0.7064 -1.8051 -0.8302
  596TIP3   OH223278   0.309   6.682  15.012 -0.2835 -0.2241 -0.0913
  596TIP3    H123279   0.227   6.680  14.963  0.2479  0.3469 -1.0293
  596TIP3    H223280   0.378   6.684  14.945  0.4539  0.6150  0.6597
  597TIP3   OH223281   5.964   6.629   0.270 -0.2379  0.2339 -0.2329
  597TIP3    H123282   5.930   6.634   0.359 -0.2463  1.6319 -0.2958
  597TIP3    H223283   5.955   6.537   0.245  2.8837 -0.8799  2.4184
  598TIP3   OH223284   0.743   5.764   0.167  0.5065  0.4799 -0.6600
  598TIP3    H123285   0.798   5.686   0.172  0.4969  0.5432  0.8192
  598TIP3    H223286   0.762   5.803   0.082  1.1781 -0.6485 -1.0269
  599TIP3   OH223287   6.463   0.145  17.179  0.1542 -0.1829  0.2061
  599TIP3    H123288   6.487   0.066  17.229 -1.1049 -0.8453 -0.2099
  599TIP3    H223289   6.518   0.141  17.101  1.4914  0.3845  1.0944
  600TIP3   OH223290   1.331   3.079  12.718  0.1497  0.7207  0.0264
  600TIP3    H123291   1.396   3.142  12.749  0.5467  0.9194 -1.1769
  600TIP3    H223292   1.296   3.119  12.638 -1.3405  0.5465  0.5702
  601TIP3   OH223293   6.702   3.415   2.366 -0.7421  0.6843 -0.3255
  601TIP3    H123294   6.755   3.464   2.430 -1.3332  0.0210  0.6830
  601TIP3    H223295   6.762   3.400   2.292  0.8068 -0.9056  1.1962
  602TIP3   OH223296   5.270   5.770   3.009  0.1953 -0.0222  0.0123
  602TIP3    H123297   5.346   5.762   2.952 -0.6797  0.0078 -1.1717
  602TIP3    H223298   5.284   5.851   3.057  1.0388 -0.1571 -0.0067
  603TIP3   OH223299   4.117   1.459  14.982 -0.9381  0.5729 -0.1435
  603TIP3    H123300   4.162   1.425  14.904  0.8372  1.7398  0.3235
  603TIP3    H223301   4.184   1.511  15.027 -2.2735  0.8674  1.5588
  604TIP3   OH223302   0.785   4.835   2.449  0.1342  0.0303  0.1351
  604TIP3    H123303   0.865   4.801   2.410  0.0290 -1.1679  0.9344
  604TIP3    H223304   0.720   4.832   2.379  0.1959 -1.2086  0.1215
  605TIP3   OH223305   2.748   5.582  12.873 -0.2622  0.1200 -0.0557
  605TIP3    H123306   2.844   5.577  12.866 -0.1931 -1.6258  1.6445
  605TIP3    H223307   2.723   5.644  12.805  2.0737  0.5646 -0.5855
  606TIP3   OH223308   2.147   0.760  17.280 -0.1095  0.7992 -0.6660
  606TIP3    H123309   2.185   0.814  17.211  1.5569  1.3906  0.6912
  606TIP3    H223310   2.217   0.748  17.344 -1.1348 -1.0887  0.1662
  607TIP3   OH223311   5.832   1.302   5.586  0.0620  0.1443 -0.0523
  607TIP3    H123312   5.876   1.385   5.567  0.0002  0.2825  0.4021
  607TIP3    H223313   5.889   1.258   5.649 -0.6582  0.5208  0.8875
  608TIP3   OH223314   1.759   4.133   0.721 -0.0380 -0.7255  0.3658
  608TIP3    H123315   1.768   4.081   0.801  0.4431 -1.4404 -0.1549
  608TIP3    H223316   1.801   4.081   0.653 -1.7598 -0.8061 -0.6694
  609TIP3   OH223317   5.951   2.773  13.202  0.3655 -0.1924  0.1970
  609TIP3    H123318   6.031   2.748  13.248  0.4761 -0.7931 -0.3141
  609TIP3    H223319   5.890   2.798  13.272  1.1886  0.8461  0.5416
  610TIP3   OH223320   6.695   1.955  16.682  0.1735 -0.0277 -0.2845
  610TIP3    H123321   6.705   2.048  16.662 -2.1050  0.3478  0.2709
  610TIP3    H223322   6.711   1.949  16.776  1.1362 -0.3522 -0.4585
  611TIP3   OH223323   6.728   3.765   2.239 -0.2630  0.4236 -0.6271
  611TIP3    H123324   6.784   3.690   2.256  0.3845  1.1882  0.7597
  611TIP3    H223325   6.742   3.786   2.147 -0.3500 -1.0588 -0.9834
  612TIP3   OH223326   5.131   2.508  14.720 -0.3354  0.0949  0.1850
  612TIP3    H123327   5.161   2.486  14.808 -0.0233  0.1319  0.0905
  612TIP3    H223328   5.190   2.459  14.662 -0.6568 -0.0781 -0.0028
  613TIP3   OH223329   5.767   4.537   0.697  0.6001  0.1716 -0.3256
  613TIP3    H123330   5.833   4.550   0.765  1.7483 -0.3381 -1.3178
  613TIP3    H223331   5.705   4.475   0.735 -0.0907  1.7325  1.1347
  614TIP3   OH223332   0.571   1.846   5.731 -0.2292 -0.2021  0.3067
  614TIP3    H123333   0.485   1.844   5.772 -0.4819  1.6320 -0.0866
  614TIP3    H223334   0.607   1.758   5.746 -1.5789 -0.5401  1.6914
  615TIP3   OH223335   2.847   5.866   0.700  0.3125 -0.4680  0.0922
  615TIP3    H123336   2.912   5.917   0.748 -0.3192 -0.2829  0.7691
  615TIP3    H223337   2.794   5.931   0.654  2.3877 -0.7392 -2.8385
  616TIP3   OH223338   5.820   3.978   1.894 -0.5145 -0.9154  0.1155
  616TIP3    H123339   5.854   4.063   1.922 -0.6256 -1.1957  1.0891
  616TIP3    H223340   5.782   3.940   1.972 -1.6007 -1.3287 -0.6058
  617TIP3   OH223341   6.594   3.485   6.195  0.1827 -0.0735 -0.3869
  617TIP3    H123342   6.638   3.401   6.178 -0.4445 -0.6123  0.6131
  617TIP3    H223343   6.584   3.488   6.290 -1.0544  0.4858 -0.5230
  618TIP3   OH223344   1.941   4.680   1.142  0.1457 -0.7728 -0.3170
  618TIP3    H123345   1.922   4.770   1.116  0.6867 -1.0043 -1.5594
  618TIP3    H223346   2.003   4.689   1.215  0.2589 -0.1442 -0.4885
  619TIP3   OH223347   1.146   2.903   2.651  0.2590  0.2792  0.4716
  619TIP3    H123348   1.095   2.914   2.731  0.2571  0.7378  0.4117
  619TIP3    H223349   1.091   2.940   2.582  0.9772  1.4936  0.5191
  620TIP3   OH223350   5.640   6.076   0.437 -0.6982 -0.1041 -0.2853
  620TIP3    H123351   5.620   6.152   0.382  0.5414  0.7404  0.3940
  620TIP3    H223352   5.703   6.025   0.386  0.0773  0.4259  0.1323
  621TIP3   OH223353   5.330   5.474  16.329  0.7028 -0.1151 -0.0600
  621TIP3    H123354   5.377   5.517  16.257  0.3414  0.1270 -0.1514
  621TIP3    H223355   5.255   5.432  16.287  0.7650 -0.3928  0.1048
  622TIP3   OH223356   2.095   4.001  11.922 -0.1783 -0.3524 -0.1425
  622TIP3    H123357   2.014   3.985  11.971  0.1177 -1.4588  0.0008
  622TIP3    H223358   2.147   4.057  11.980 -0.6285 -0.0428 -0.0282
  623TIP3   OH223359   2.414   1.071   0.729  0.2402 -0.0688 -0.1230
  623TIP3    H123360   2.329   1.100   0.696  1.4916  1.7982 -1.8194
  623TIP3    H223361   2.466   1.056   0.650  2.5716  2.2249  0.9064
  624TIP3   OH223362   2.887   1.744  12.882 -0.2269  0.1471 -0.8794
  624TIP3    H123363   2.806   1.694  12.868 -0.0165  0.2363 -2.5794
  624TIP3    H223364   2.865   1.807  12.950 -1.7943  0.6226 -1.7955
  625TIP3   OH223365   4.491   2.402  16.705 -0.3906 -0.2484 -0.1810
  625TIP3    H123366   4.446   2.477  16.743 -1.1962 -1.4899  1.4116
  625TIP3    H223367   4.562   2.382  16.766 -0.2272 -0.8225 -0.5457
  626TIP3   OH223368   0.864   4.931   3.363 -1.2098 -0.1167  0.1600
  626TIP3    H123369   0.919   4.853   3.362  0.5090  1.0716 -0.0126
  626TIP3    H223370   0.806   4.920   3.287 -0.8748 -1.1465  0.0450
  627TIP3   OH223371   1.880   6.319   0.894 -0.2227 -0.2916  0.2789
  627TIP3    H123372   1.964   6.303   0.852 -1.4585 -1.8070 -1.7455
  627TIP3    H223373   1.886   6.274   0.978  1.6598  1.2830  1.0257
  628TIP3   OH223374   0.461   5.083   4.327 -0.1832 -0.1362  0.0668
  628TIP3    H123375   0.478   5.024   4.400  1.2095 -0.8234 -0.7969
  628TIP3    H223376   0.514   5.049   4.255 -2.2373 -0.0226 -1.5688
  629TIP3   OH223377   4.969   2.777   2.684 -0.1788 -0.1145  0.4247
  629TIP3    H123378   4.958   2.798   2.592  0.5440 -0.2984  0.2957
  629TIP3    H223379   4.926   2.691   2.694  0.5600 -0.5289  0.0600
  630TIP3   OH223380   3.398   1.157  11.904 -0.0938  0.0495 -0.4932
  630TIP3    H123381   3.437   1.174  11.819 -0.1426 -1.8539 -0.9292
  630TIP3    H223382   3.377   1.243  11.939  1.8176  0.9580 -1.5118
  631TIP3   OH223383   6.259   2.951   0.952  0.0593 -0.3005  0.1653
  631TIP3    H123384   6.235   2.996   0.870  1.2324  0.0707  0.0216
  631TIP3    H223385   6.254   2.858   0.930 -1.7011 -0.2628  0.2711
  632TIP3   OH223386   2.322   2.466   1.546  0.2687 -0.0952 -0.1009
  632TIP3    H123387   2.237   2.443   1.584  0.8172  0.2098  1.3535
  632TIP3    H223388   2.311   2.451   1.453 -1.3600 -0.1596  0.0771
  633TIP3   OH223389   0.291   0.278  17.187  0.2782 -0.0550  0.7282
  633TIP3    H123390   0.378   0.280  17.147  0.5606 -1.8164  1.2384
  633TIP3    H223391   0.245   0.207  17.142 -0.0895 -0.7053  2.0899
  634TIP3   OH223392   2.202   3.750   2.314 -0.4051  0.4718  0.3208
  634TIP3    H123393   2.149   3.702   2.377 -0.8955 -0.0468 -0.4834
  634TIP3    H223394   2.290   3.712   2.323 -0.7946 -0.6116 -0.3345
  635TIP3   OH223395   5.190   1.930  15.200 -0.3188 -0.4635 -0.2150
  635TIP3    H123396   5.100   1.926  15.169 -0.5276 -0.1750  0.3354
  635TIP3    H223397   5.182   1.955  15.292  0.2521 -1.8265  0.2247
  636TIP3   OH223398   3.593   0.291   0.695  0.2458 -0.3410  0.0456
  636TIP3    H123399   3.655   0.319   0.762  0.4357 -1.3582  0.3117
  636TIP3    H223400   3.533   0.364   0.685  2.1426  1.1187 -1.0237
  637TIP3   OH223401   5.356   0.856  11.139  0.0823  0.0853  0.1222
  637TIP3    H123402   5.268   0.832  11.110  0.3485  0.3262 -0.9224
  637TIP3    H223403   5.355   0.951  11.144 -0.1662  0.0098  1.6003
  638TIP3   OH223404   0.665   2.411  16.251 -0.2571 -0.2934  0.1835
  638TIP3    H123405   0.735   2.384  16.311 -0.7774 -0.2281  0.8322
  638TIP3    H223406   0.586   2.409  16.305 -1.2322 -3.1931 -1.2559
  639TIP3   OH223407   4.570   4.533   4.499  0.1947 -0.6759  0.5289
  639TIP3    H123408   4.501   4.583   4.543  0.1571  0.9288 -1.3008
  639TIP3    H223409   4.652   4.568   4.533  0.1375 -1.5521  1.5876
  640TIP3   OH223410   0.066   4.985   3.251 -0.1466 -0.0634  0.1874
  640TIP3    H123411   0.037   5.070   3.284 -2.4906 -0.5438 -0.5402
  640TIP3    H223412   0.114   5.006   3.171 -0.6933  0.5873  0.0186
  641TIP3   OH223413   6.142   0.851   0.564 -0.1407 -0.2954 -0.0589
  641TIP3    H123414   6.220   0.803   0.538  0.0592  0.1926 -0.3732
  641TIP3    H223415   6.151   0.936   0.521 -0.5214 -0.0013  0.4386
  642TIP3   OH223416   1.870   4.929   2.357 -0.0991 -0.1572 -0.3838
  642TIP3    H123417   1.899   4.930   2.448  3.0787 -1.6447 -1.3086
  642TIP3    H223418   1.846   4.837   2.341  1.4719 -0.3797 -1.6204
  643TIP3   OH223419   6.634   5.496   1.102  0.4665 -0.0358 -0.3993
  643TIP3    H123420   6.648   5.407   1.137  2.8898  0.5965  0.3372
  643TIP3    H223421   6.625   5.483   1.008  0.0918 -1.1393 -0.2226
  644TIP3   OH223422   3.858   1.051  16.875 -0.0762  0.3603  0.4640
  644TIP3    H123423   3.947   1.084  16.888  0.1526  0.1718 -0.6043
  644TIP3    H223424   3.831   1.021  16.962  0.9329  0.3600  0.7839
  645TIP3   OH223425   5.173   4.364  10.936 -0.3494  0.2765  0.2106
  645TIP3    H123426   5.209   4.451  10.921 -0.9493  0.7713  1.4868
  645TIP3    H223427   5.087   4.365  10.893  0.2081 -0.1447 -0.9214
  646TIP3   OH223428   4.930   3.872  14.670  0.1577  0.5594 -0.4363
  646TIP3    H123429   4.978   3.808  14.722  2.3019  0.6262 -2.2695
  646TIP3    H223430   4.910   3.827  14.588 -2.1182  0.8535 -0.0777
  647TIP3   OH223431   6.731   5.141  12.512 -0.3316  0.4851  0.5330
  647TIP3    H123432   6.746   5.070  12.575 -1.7588  0.4289  0.8175
  647TIP3    H223433   6.673   5.102  12.446  0.3024  0.8651 -0.2635
  648TIP3   OH223434   5.804   4.783   4.516 -0.3456  0.1277 -0.4920
  648TIP3    H123435   5.746   4.734   4.575 -0.4927  1.9159  0.8887
  648TIP3    H223436   5.870   4.719   4.489 -0.2677 -0.7385  1.6373
  649TIP3   OH223437   4.111   4.067   2.442 -0.6103 -0.5339  0.8345
  649TIP3    H123438   4.120   4.087   2.349  0.2779  0.2707  1.0946
  649TIP3    H223439   4.072   3.979   2.444  0.8501 -1.2287 -0.2887
  650TIP3   OH223440   0.402   4.260   4.772  0.5308  0.2252  0.4719
  650TIP3    H123441   0.448   4.189   4.727  1.8507  0.8529  0.8221
  650TIP3    H223442   0.314   4.225   4.788  0.8317 -0.9224 -0.3382
  651TIP3   OH223443   0.663   4.461   2.684 -0.0290  0.0885 -0.0727
  651TIP3    H123444   0.588   4.417   2.724 -0.3549  0.6501 -0.0601
  651TIP3    H223445   0.734   4.451   2.749 -0.6950  1.4410  0.8885
  652TIP3   OH223446   1.163   6.181   5.226  0.6172 -0.6049 -0.6776
  652TIP3    H123447   1.167   6.270   5.189  2.0918  0.1891  1.2719
  652TIP3    H223448   1.248   6.143   5.205  1.2794 -0.3219  1.3902
  653TIP3   OH223449   2.390   5.515  12.140 -0.4045 -0.6495  0.0732
  653TIP3    H123450   2.369   5.599  12.181 -0.3648 -0.0244 -1.1632
  653TIP3    H223451   2.451   5.538  12.070  0.0767 -1.7911  0.1161
  654TIP3   OH223452   5.141   2.270  15.348 -0.1132  0.5072 -0.5972
  654TIP3    H123453   5.209   2.260  15.281 -0.0166 -1.3202 -0.2423
  654TIP3    H223454   5.128   2.365  15.354  0.9415  0.7751 -2.1262
  655TIP3   OH223455   4.757   6.608   6.410  0.3486 -1.1155 -0.3731
  655TIP3    H123456   4.792   6.529   6.450  1.2877 -1.2315 -1.4156
  655TIP3    H223457   4.669   6.584   6.381  0.6870 -1.8155 -0.8133
  656TIP3   OH223458   4.931   6.774  13.307 -0.5439 -0.2305  0.4993
  656TIP3    H123459   4.836   6.779  13.320 -0.5111 -0.2737  0.7593
  656TIP3    H223460   4.942   6.775  13.212 -1.0141 -3.8573  0.3290
  657TIP3   OH223461   2.857   3.198  12.197  0.4655  0.1606  0.6931
  657TIP3    H123462   2.858   3.273  12.258  0.4033  1.3678 -0.7625
  657TIP3    H223463   2.765   3.189  12.172  0.2060 -1.5122  2.1789
  658TIP3   OH223464   6.090   5.676  12.624  0.0864 -0.0947  0.2368
  658TIP3    H123465   6.139   5.609  12.673  0.4097  0.0764  0.1461
  658TIP3    H223466   6.068   5.742  12.690 -4.2274 -2.4647  1.3336
  659TIP3   OH223467   2.023   3.169   2.786 -0.8093  0.2960 -0.7052
  659TIP3    H123468   1.970   3.096   2.817 -2.0838  0.8836 -1.5011
  659TIP3    H223469   2.098   3.127   2.743 -1.0684 -0.5318 -0.3577
  660TIP3   OH223470   2.454   6.804   2.396 -0.3742 -0.1441  0.4686
  660TIP3    H123471   2.375   6.809   2.341 -0.2908 -1.9039  0.1473
  660TIP3    H223472   2.505   6.732   2.357  0.1664 -0.7365  2.2559
  661TIP3   OH223473   0.236   6.260  13.820 -0.1188 -0.5448 -0.1769
  661TIP3    H123474   0.196   6.182  13.859 -0.2614  0.5120  1.8426
  661TIP3    H223475   0.313   6.277  13.875  0.1474  0.4806 -0.8633
  662TIP3   OH223476   2.502   1.956  12.128 -0.2409 -0.4491 -0.1541
  662TIP3    H123477   2.518   2.029  12.068  1.4111  0.3362  1.1870
  662TIP3    H223478   2.538   1.986  12.212  2.4945 -3.6269 -0.0711
  663TIP3   OH223479   1.532   6.012  17.051 -0.4077  0.4724 -0.0187
  663TIP3    H123480   1.485   5.970  17.124 -0.4553 -0.0472 -0.3411
  663TIP3    H223481   1.471   6.079  17.020 -1.1381 -0.4748 -0.7039
  664TIP3   OH223482   4.864   2.067  13.284 -0.1357  0.5313 -0.3099
  664TIP3    H123483   4.855   2.154  13.323 -1.7609  0.4632 -0.4871
  664TIP3    H223484   4.784   2.021  13.308  0.7626 -0.9775 -0.0985
  665TIP3   OH223485   6.790   2.728   3.114 -0.8783  0.3245 -0.3157
  665TIP3    H123486   6.776   2.761   3.025  1.5535  2.7096  0.1614
  665TIP3    H223487   6.811   2.635   3.101 -0.0706  0.7519 -2.2557
  666TIP3   OH223488   6.663   2.462  11.886  0.3542 -0.3911 -0.2591
  666TIP3    H123489   6.750   2.476  11.924 -0.9284  1.1223  2.2727
  666TIP3    H223490   6.649   2.538  11.830 -0.3069  0.6538  1.2856
  667TIP3   OH223491   2.995   1.040   0.200 -0.8160  0.4384 -0.0004
  667TIP3    H123492   3.033   1.122   0.231  1.1672 -1.1194  1.8624
  667TIP3    H223493   2.919   1.025   0.257 -0.8117  0.6830  0.0691
  668TIP3   OH223494   3.632   3.015  13.959 -0.3108  0.5651 -0.5782
  668TIP3    H123495   3.708   2.982  13.910 -0.8483 -0.4178 -0.7578
  668TIP3    H223496   3.668   3.039  14.045  0.3704  0.9738 -0.9733
  669TIP3   OH223497   1.756   4.555   0.422  0.4424 -0.2203  0.1833
  669TIP3    H123498   1.686   4.499   0.387  0.6705 -0.0315 -0.5754
  669TIP3    H223499   1.836   4.507   0.404  0.4664 -0.7928  1.7360
  670TIP3   OH223500   3.650   1.633  10.711 -0.5896 -0.2174  0.2242
  670TIP3    H123501   3.617   1.557  10.760 -2.2042  0.4746  0.2578
  670TIP3    H223502   3.619   1.619  10.622 -2.3106  1.1584  0.5572
  671TIP3   OH223503   6.515   4.450   6.728  0.0352 -0.3111  0.2449
  671TIP3    H123504   6.505   4.446   6.823  1.0659 -0.8486  0.3378
  671TIP3    H223505   6.460   4.379   6.695 -0.5211  0.0325  0.4085
  672TIP3   OH223506   6.598   1.836   0.325 -0.4774  0.1737 -0.3675
  672TIP3    H123507   6.526   1.895   0.346 -0.5253  0.1619 -0.4948
  672TIP3    H223508   6.559   1.750   0.319 -0.6679  0.3344 -1.5951
  673TIP3   OH223509   1.819   0.604   2.982 -0.5848 -0.0009  0.1219
  673TIP3    H123510   1.781   0.690   2.965 -1.9158 -0.6342 -0.1638
  673TIP3    H223511   1.773   0.545   2.923  1.5202 -0.6448 -0.9326
  674TIP3   OH223512   4.037   6.555   0.125  0.2018  0.1637 -0.3155
  674TIP3    H123513   4.014   6.558   0.218  0.0655  2.1070 -0.3855
  674TIP3    H223514   4.133   6.553   0.124  0.2575  1.7393 -0.1226
  675TIP3   OH223515   1.619   6.432  15.655 -0.2974  0.0038 -0.1696
  675TIP3    H123516   1.566   6.512  15.668  0.3751  0.6363 -1.2855
  675TIP3    H223517   1.592   6.399  15.569  0.6045 -0.0630 -0.4335
  676TIP3   OH223518   0.292   2.487  15.632  0.0052 -0.5622 -0.1248
  676TIP3    H123519   0.301   2.415  15.695 -0.5291 -0.8209 -0.3400
  676TIP3    H223520   0.226   2.456  15.570 -0.7873  0.4375  0.2153
  677TIP3   OH223521   2.890   4.669  11.063 -0.0452  0.1312 -0.0511
  677TIP3    H123522   2.942   4.602  11.018 -0.4803 -0.5806  0.5082
  677TIP3    H223523   2.808   4.625  11.086  0.3022  0.3939  1.7366
  678TIP3   OH223524   0.240   1.050  15.171  0.2955 -0.5439 -0.3845
  678TIP3    H123525   0.149   1.081  15.176  0.7394  0.8668 -0.7498
  678TIP3    H223526   0.243   0.975  15.230 -0.8832 -0.0318  0.3440
  679TIP3   OH223527   3.504   1.856  12.415  0.2661 -0.2450 -0.1023
  679TIP3    H123528   3.544   1.846  12.328  0.4277  1.6857 -0.2812
  679TIP3    H223529   3.416   1.889  12.397  0.0524 -0.5218  0.4367
  680TIP3   OH223530   0.548   2.953  16.461 -0.1825 -0.8274  0.2231
  680TIP3    H123531   0.598   2.923  16.384 -0.0001  2.5125 -1.0516
  680TIP3    H223532   0.611   3.007  16.510 -1.4246  0.2545  0.6439
  681TIP3   OH223533   3.875   3.097  13.291  0.0129 -0.4316  0.0486
  681TIP3    H123534   3.833   3.044  13.224  0.5761 -0.9358  0.0928
  681TIP3    H223535   3.837   3.184  13.280  0.7917 -0.2726 -1.5534
  682TIP3   OH223536   3.108   0.483  14.537 -0.8295  0.2126 -0.1813
  682TIP3    H123537   3.087   0.563  14.489  0.3188  0.8669  0.3782
  682TIP3    H223538   3.085   0.504  14.628  0.5308  0.3114  0.1471
  683TIP3   OH223539   2.562   6.593   5.019 -0.4423  0.2142 -0.6885
  683TIP3    H123540   2.478   6.553   5.040 -1.2360  1.4146 -1.4945
  683TIP3    H223541   2.627   6.526   5.040 -1.2832  0.5945  3.5242
  684TIP3   OH223542   6.341   2.108   0.086  0.4605  0.0706 -0.5642
  684TIP3    H123543   6.421   2.088   0.037  0.6763 -1.2638  0.3133
  684TIP3    H223544   6.272   2.060   0.040  0.3105  0.4823 -0.7749
  685TIP3   OH223545   1.974   5.996  12.896 -0.3498 -0.0140 -0.6167
  685TIP3    H123546   2.004   5.928  12.957 -1.1789 -0.6033 -0.8516
  685TIP3    H223547   2.053   6.025  12.851 -0.0519 -1.1618 -0.8394
  686TIP3   OH223548   4.846   4.607   2.246  0.3443  0.0739  0.1303
  686TIP3    H123549   4.775   4.581   2.306  0.1734  1.5402  0.5786
  686TIP3    H223550   4.807   4.601   2.159 -0.2717  0.6598  0.3621
  687TIP3   OH223551   3.238   4.324  16.110 -0.2980  0.2649 -0.2148
  687TIP3    H123552   3.186   4.374  16.173  1.9913 -0.8616  2.6877
  687TIP3    H223553   3.215   4.233  16.127  1.1122 -0.1155 -0.2547
  688TIP3   OH223554   2.871   0.575  16.589 -0.0017 -0.0276 -0.4358
  688TIP3    H123555   2.911   0.639  16.647  0.9720  0.5054 -1.6673
  688TIP3    H223556   2.788   0.553  16.631 -0.0634  1.5605  0.3132
  689TIP3   OH223557   1.423   1.088   5.554 -0.2301  0.3892  0.3820
  689TIP3    H123558   1.489   1.061   5.490 -0.2539  0.8254  0.1747
  689TIP3    H223559   1.472   1.128   5.625 -0.1102 -1.1536  1.1828
  690TIP3   OH223560   1.100   3.355   4.159 -0.8864  0.0950  0.2122
  690TIP3    H123561   1.196   3.356   4.149 -0.8985  1.4613  0.1002
  690TIP3    H223562   1.082   3.275   4.209  0.3536  0.0419  0.6046
  691TIP3   OH223563   0.137   0.340  11.718  0.1634 -0.0540 -0.2601
  691TIP3    H123564   0.224   0.374  11.737  0.2563 -0.7607  0.5849
  691TIP3    H223565   0.152   0.253  11.682 -0.0589  0.9055 -2.8044
  692TIP3   OH223566   6.579   6.403  11.960  0.7210 -0.3862  0.5982
  692TIP3    H123567   6.582   6.328  12.020  1.7645 -0.7493  0.1057
  692TIP3    H223568   6.555   6.364  11.875 -0.5381  0.0956  0.7201
  693TIP3   OH223569   6.353   1.891   4.255  0.3966 -0.1636  0.4429
  693TIP3    H123570   6.308   1.808   4.267 -0.7372  0.4032  0.1823
  693TIP3    H223571   6.386   1.913   4.342  0.2678 -0.6429  0.6119
  694TIP3   OH223572   3.819   1.248  16.614  0.6344 -0.0476  0.0458
  694TIP3    H123573   3.744   1.196  16.642 -0.2082 -0.0399 -2.1176
  694TIP3    H223574   3.783   1.336  16.600  1.3937  0.3567  0.5481
  695TIP3   OH223575   5.676   3.104   3.808  0.0901  0.5975  0.1987
  695TIP3    H123576   5.669   3.165   3.881  0.2365  3.2045 -1.8674
  695TIP3    H223577   5.770   3.086   3.801  0.4755  2.9869 -1.3584
  696TIP3   OH223578   2.867   6.177   0.717 -0.1585 -0.0209  0.3955
  696TIP3    H123579   2.941   6.179   0.656  0.9275 -2.3916  1.5563
  696TIP3    H223580   2.898   6.227   0.792  0.6188 -1.6344  1.1921
  697TIP3   OH223581   0.940   4.631  11.538  0.2294 -0.1251  0.1415
  697TIP3    H123582   1.005   4.697  11.561  0.8830 -1.3284  1.9370
  697TIP3    H223583   0.857   4.667  11.568  0.1184  1.1466 -1.5944
  698TIP3   OH223584   5.219   1.698  12.070 -0.3968  0.0034  0.1594
  698TIP3    H123585   5.237   1.707  12.164 -0.2945 -1.6810  0.3205
  698TIP3    H223586   5.125   1.680  12.065  0.1902 -3.4487  0.2355
  699TIP3   OH223587   5.501   1.815   6.327 -0.1930 -0.3788  0.0968
  699TIP3    H123588   5.587   1.775   6.340 -0.5929 -1.4340 -0.4543
  699TIP3    H223589   5.481   1.857   6.411  1.2880  0.7055 -0.0871
  700TIP3   OH223590   6.518   0.208  11.104  0.9076  0.3705 -0.6573
  700TIP3    H123591   6.455   0.158  11.156  2.0170 -0.4419 -0.1009
  700TIP3    H223592   6.480   0.296  11.100 -0.6088 -0.2681 -0.9003
  701TIP3   OH223593   3.123   6.785   2.093 -0.3227  0.9312  0.6049
  701TIP3    H123594   3.216   6.779   2.112 -0.2915 -1.0175 -0.0720
  701TIP3    H223595   3.087   6.700   2.117 -1.3469  0.5108 -2.1773
  702TIP3   OH223596   2.433   6.632   5.645 -0.0303  0.0237 -0.0429
  702TIP3    H123597   2.411   6.647   5.553  1.6910 -0.8849 -0.6247
  702TIP3    H223598   2.373   6.563   5.674  1.5999 -2.0380 -1.4419
  703TIP3   OH223599   2.709   5.993  16.328  0.0341  0.5365  0.0679
  703TIP3    H123600   2.639   6.059  16.332 -1.1265 -0.5852 -1.1868
  703TIP3    H223601   2.787   6.042  16.303 -0.7474  1.5000 -0.5315
  704TIP3   OH223602   3.751   5.324  16.857 -0.3139  0.4338 -0.5591
  704TIP3    H123603   3.692   5.251  16.874  2.6820 -1.8830  0.3465
  704TIP3    H223604   3.749   5.335  16.762 -1.6054 -0.0991 -0.5997
  705TIP3   OH223605   4.822   5.399  13.412  0.5839  0.1339  0.1724
  705TIP3    H123606   4.801   5.377  13.503  0.9638 -0.4512  0.1240
  705TIP3    H223607   4.793   5.323  13.361 -0.9633  1.0772 -0.3710
  706TIP3   OH223608   2.667   6.316   5.814  0.9900 -0.0120  0.2868
  706TIP3    H123609   2.721   6.241   5.838 -0.7539 -0.9465  1.3694
  706TIP3    H223610   2.663   6.312   5.718  0.3852 -1.6683  0.3732
  707TIP3   OH223611   1.087   1.989   0.899 -0.4133 -0.0203 -0.2018
  707TIP3    H123612   1.000   1.967   0.866 -0.1846 -0.4691 -0.5051
  707TIP3    H223613   1.071   2.041   0.977 -0.9527 -0.4697 -0.0181
  708TIP3   OH223614   6.159   2.245  13.454 -0.0372  0.1569  0.1468
  708TIP3    H123615   6.125   2.314  13.512  1.3539  0.5541  0.4971
  708TIP3    H223616   6.250   2.233  13.482 -0.0324 -1.2653 -0.4484
  709TIP3   OH223617   2.589   4.016  14.888 -0.1276 -0.2940  0.5821
  709TIP3    H123618   2.673   4.033  14.845 -0.6244  0.1643 -0.2108
  709TIP3    H223619   2.605   3.937  14.940  0.2123 -1.4434 -1.1983
  710TIP3   OH223620   5.281   1.580   5.870  0.1278 -0.6871 -0.4168
  710TIP3    H123621   5.271   1.524   5.947  3.1641  0.2453  0.7212
  710TIP3    H223622   5.217   1.546   5.808 -0.8600 -2.8786  1.6953
  711TIP3   OH223623   0.585   5.946  15.437  0.3202 -0.6061 -0.0512
  711TIP3    H123624   0.514   6.010  15.434  0.8464 -0.0246 -4.6771
  711TIP3    H223625   0.650   5.985  15.495 -1.4147  0.7722  1.0064
  712TIP3   OH223626   0.748   0.384   0.238 -0.2608  0.1624 -0.0732
  712TIP3    H123627   0.830   0.379   0.189 -0.3940 -0.5857 -0.2301
  712TIP3    H223628   0.679   0.381   0.172 -0.4158  2.3391 -0.0514
  713TIP3   OH223629   1.024   1.823  16.702 -0.3253 -0.3350 -0.0526
  713TIP3    H123630   1.016   1.856  16.791  0.6495  0.7820 -0.3759
  713TIP3    H223631   0.993   1.894  16.646  0.3921 -0.4978 -0.6777
  714TIP3   OH223632   1.848   0.004  11.157  0.6514  0.5231 -0.2622
  714TIP3    H123633   1.840   0.062  11.233 -0.5511  0.0231  0.0175
  714TIP3    H223634   1.758  -0.024  11.139  1.2192 -1.3836 -0.2666
  715TIP3   OH223635   6.634   1.728   6.001  0.1248 -0.1860 -0.3507
  715TIP3    H123636   6.656   1.672   6.076 -0.5849 -0.3721 -0.2798
  715TIP3    H223637   6.694   1.698   5.931  0.7228 -0.0719  0.1079
  716TIP3   OH223638   3.525   0.534   3.561 -0.1250 -0.1568 -0.3318
  716TIP3    H123639   3.503   0.587   3.638 -0.5401  0.8894 -1.1433
  716TIP3    H223640   3.620   0.542   3.553 -0.0723 -0.3393  0.1283
  717TIP3   OH223641   6.138   6.813   0.416 -0.6275  0.4234  0.4706
  717TIP3    H123642   6.181   6.746   0.363 -4.9001 -0.8577 -1.6016
  717TIP3    H223643   6.131   6.889   0.358 -0.0781  1.0238  1.1861
  718TIP3   OH223644   4.172   1.400  12.512  0.0639  0.2635 -0.1929
  718TIP3    H123645   4.140   1.390  12.602  1.1637  0.1860  0.2047
  718TIP3    H223646   4.117   1.342  12.460 -0.3498  0.0360  0.4848
  719TIP3   OH223647   5.977   3.398  14.144 -0.0299 -0.1063  0.1644
  719TIP3    H123648   5.933   3.412  14.227  0.7213 -1.6957  0.8454
  719TIP3    H223649   6.067   3.377  14.167  0.5689  0.8932 -1.1267
  720TIP3   OH223650   2.709   4.195  13.142  0.4335  0.1384  0.8106
  720TIP3    H123651   2.722   4.289  13.156  0.5078  0.1573  0.6198
  720TIP3    H223652   2.787   4.167  13.094  0.1209  0.1015  0.3214
  721TIP3   OH223653   3.468   0.201  14.803  0.1345 -0.4550 -0.2245
  721TIP3    H123654   3.394   0.228  14.748 -0.0072 -1.6899 -0.6582
  721TIP3    H223655   3.515   0.137  14.749  3.4822  2.8080 -1.2994
  722TIP3   OH223656   0.827   3.119  12.542 -0.1889  0.2232 -0.0559
  722TIP3    H123657   0.832   3.175  12.619  0.6612 -0.1202  0.1415
  722TIP3    H223658   0.736   3.088  12.542 -1.0183  2.5496 -0.8676
  723TIP3   OH223659   4.998   5.715  13.822 -0.2530  0.0150  0.2607
  723TIP3    H123660   5.078   5.663  13.830 -1.1926 -1.3116  1.2519
  723TIP3    H223661   4.981   5.719  13.727 -0.9502 -2.7360  0.2382
  724TIP3   OH223662   3.963   6.237  15.783  0.1881  0.2549  0.0094
  724TIP3    H123663   3.892   6.175  15.767  0.5320  0.0148 -0.6129
  724TIP3    H223664   3.919   6.318  15.808 -0.4067  0.7276 -2.4599
  725TIP3   OH223665   6.016   5.790  12.174  0.9659  0.2276  0.1106
  725TIP3    H123666   5.951   5.764  12.240  1.8988 -0.6267  0.7230
  725TIP3    H223667   5.965   5.831  12.104 -0.3271 -1.2677  0.1484
  726TIP3   OH223668   2.959   5.769   6.242  0.3833  0.3075  0.0046
  726TIP3    H123669   2.908   5.701   6.286  1.2189 -0.7280 -0.6125
  726TIP3    H223670   3.036   5.723   6.209  2.1363  2.0160  1.6663
  727TIP3   OH223671   4.182   4.239  11.862 -0.1518 -0.3380  0.0791
  727TIP3    H123672   4.120   4.238  11.936 -1.5579 -1.3428 -1.0709
  727TIP3    H223673   4.156   4.316  11.811 -0.3572 -0.6692 -0.3184
  728TIP3   OH223674   4.446   0.947   3.623 -0.5828  0.2535 -0.7593
  728TIP3    H123675   4.458   0.966   3.530  1.4881  0.9686 -0.3758
  728TIP3    H223676   4.485   1.022   3.667 -1.5615 -0.0832  0.6822
  729TIP3   OH223677   0.562   2.826  15.030  0.3967 -0.3224  0.5407
  729TIP3    H123678   0.640   2.782  15.064  0.8288 -0.2661 -0.3834
  729TIP3    H223679   0.495   2.757  15.030  0.9838 -0.9009 -0.5905
  730TIP3   OH223680   3.548   4.645   1.113  0.6646 -0.2451  0.5074
  730TIP3    H123681   3.614   4.706   1.079 -1.9831  1.1305 -2.5075
  730TIP3    H223682   3.498   4.696   1.176  0.4230 -0.2679  0.3353
  731TIP3   OH223683   4.727   4.330  13.666 -0.1121 -0.2148 -0.0140
  731TIP3    H123684   4.647   4.371  13.633 -0.5441  0.4644  1.8175
  731TIP3    H223685   4.798   4.375  13.620 -0.6745  1.1693  0.4591
  732TIP3   OH223686   4.151   3.100  13.754 -0.5815 -0.0477 -0.1107
  732TIP3    H123687   4.072   3.136  13.714 -0.3698  1.6493  0.9411
  732TIP3    H223688   4.223   3.149  13.714 -0.1516 -0.6133 -0.0438
  733TIP3   OH223689   3.802   1.078  12.105  0.3841 -0.2535  0.7374
  733TIP3    H123690   3.728   1.137  12.093  1.6444  1.0789 -0.5994
  733TIP3    H223691   3.818   1.079  12.200 -0.0723  0.9951  0.8142
  734TIP3   OH223692   5.673   3.675   3.737 -0.2977 -0.4822 -0.5060
  734TIP3    H123693   5.750   3.681   3.680  0.0435 -0.1789 -0.0207
  734TIP3    H223694   5.633   3.592   3.714  1.2048 -1.5229  0.5131
  735TIP3   OH223695   5.437   6.115   0.103  0.2478  0.6051  0.0286
  735TIP3    H123696   5.472   6.164   0.177  2.2867  0.8409 -1.0437
  735TIP3    H223697   5.444   6.175   0.029  1.9213 -0.9354 -1.1164
  736TIP3   OH223698   0.947   2.413   2.892  0.5074 -0.1708 -0.3360
  736TIP3    H123699   0.998   2.454   2.962 -1.1449 -0.9650  1.4032
  736TIP3    H223700   0.970   2.461   2.813  1.1378  1.8973  1.0763
  737TIP3   OH223701   4.650   3.220  15.255 -0.1796 -0.2268  0.1552
  737TIP3    H123702   4.604   3.162  15.317  1.6920 -1.7740  0.1484
  737TIP3    H223703   4.739   3.186  15.253  0.3164  1.1459 -1.7988
  738TIP3   OH223704   0.401   5.143   3.934 -0.2579 -0.3182 -0.2590
  738TIP3    H123705   0.365   5.075   3.992 -0.0148  0.2570  0.5809
  738TIP3    H223706   0.488   5.161   3.970 -0.2629  0.3255 -0.5673
  739TIP3   OH223707   0.911   0.521   4.002  0.2800  0.0777 -0.4712
  739TIP3    H123708   0.934   0.432   4.029  1.1427  0.7710  1.0737
  739TIP3    H223709   0.983   0.549   3.945  0.3640  0.0661 -0.3693
  740TIP3   OH223710   2.056   1.223  11.100  0.4278  0.0787  0.0018
  740TIP3    H123711   1.990   1.195  11.164  0.0750  0.0016 -0.3958
  740TIP3    H223712   2.133   1.245  11.153 -0.2090  1.0097  0.5411
  741TIP3   OH223713   6.235   0.996  12.743 -0.2439 -0.1293 -0.5183
  741TIP3    H123714   6.298   0.975  12.812 -0.8812 -1.1360 -0.2311
  741TIP3    H223715   6.155   1.019  12.790 -1.0696 -2.0678 -0.9164
  742TIP3   OH223716   6.169   3.637   4.595 -0.2621 -0.0736 -0.3210
  742TIP3    H123717   6.223   3.705   4.634 -0.6938 -0.9457  1.8574
  742TIP3    H223718   6.147   3.670   4.508  2.4095  0.9981 -0.6087
  743TIP3   OH223719   0.518   2.358   3.645  0.0239 -0.6486 -0.1928
  743TIP3    H123720   0.608   2.387   3.657  0.1075 -1.0766  0.2412
  743TIP3    H223721   0.501   2.301   3.720 -0.3862 -1.1016 -0.6225
  744TIP3   OH223722   2.328   5.219  14.809  0.1518  0.0821 -0.5512
  744TIP3    H123723   2.325   5.137  14.760 -0.5606  0.1914 -0.6907
  744TIP3    H223724   2.421   5.243  14.808  0.3783 -0.7734 -0.4147
  745TIP3   OH223725   3.778   0.242   5.292 -0.1801 -0.4265  0.4269
  745TIP3    H123726   3.823   0.158   5.298 -0.5933 -0.8516 -1.9888
  745TIP3    H223727   3.846   0.307   5.310  0.5282 -1.2190  0.6331
  746TIP3   OH223728   6.520   5.364   5.478  0.3332  0.4268  0.1953
  746TIP3    H123729   6.463   5.296   5.514  0.5404  0.5847  0.8281
  746TIP3    H223730   6.475   5.394   5.400 -0.4061  0.4814  0.6389
  747TIP3   OH223731   1.856   5.040   5.836 -0.0183  0.0451 -0.2293
  747TIP3    H123732   1.826   5.024   5.925 -0.2110  1.1308 -0.0843
  747TIP3    H223733   1.932   5.098   5.846  0.1975 -0.1415 -0.7488
  748TIP3   OH223734   2.187   5.254  16.092 -0.4629  0.1848 -0.5733
  748TIP3    H123735   2.102   5.269  16.051 -1.6579 -0.9462  1.4163
  748TIP3    H223736   2.187   5.161  16.116 -0.1914  0.9522  2.7184
  749TIP3   OH223737   4.900   0.903   5.421 -0.7024  0.1451  0.7175
  749TIP3    H123738   4.943   0.950   5.349  1.4067 -1.2624  1.0067
  749TIP3    H223739   4.852   0.970   5.468  0.0984  1.5630 -0.4296
  750TIP3   OH223740   2.552   2.275   0.761 -0.3332 -0.2718 -0.8370
  750TIP3    H123741   2.509   2.347   0.807  2.2113  0.1807  0.9163
  750TIP3    H223742   2.554   2.204   0.824 -2.8504 -1.9496 -2.5728
  751TIP3   OH223743   4.464   5.489   4.504 -0.4254  0.3935 -0.3566
  751TIP3    H123744   4.537   5.551   4.507 -0.5706  0.5375  0.3824
  751TIP3    H223745   4.412   5.516   4.429 -0.2978  0.9511 -0.2426
  752TIP3   OH223746   0.142   1.713   4.901 -0.1023  0.5138 -0.1234
  752TIP3    H123747   0.107   1.730   4.814 -1.3818  2.9758  0.8215
  752TIP3    H223748   0.127   1.620   4.916 -2.9845  0.7525 -1.2218
  753TIP3   OH223749   4.802   3.490   1.989  0.2796 -0.0450 -0.2945
  753TIP3    H123750   4.784   3.580   2.017 -0.8613 -0.3643  0.0274
  753TIP3    H223751   4.878   3.463   2.043  0.8288  0.8231 -0.6281
  754TIP3   OH223752   0.740   1.916  12.600  0.2518  0.7865  0.2736
  754TIP3    H123753   0.741   1.919  12.504  0.3379  0.3044  0.2547
  754TIP3    H223754   0.651   1.889  12.622  0.5128 -0.0949  0.2889
  755TIP3   OH223755   5.027   4.387   2.423  0.1135  0.1412 -0.1094
  755TIP3    H123756   4.965   4.416   2.356  1.3725 -0.0662 -1.4002
  755TIP3    H223757   5.016   4.448   2.495 -1.3125  0.3305 -0.4815
  756TIP3   OH223758   0.824   6.101  12.818  0.0434 -0.3349  0.1554
  756TIP3    H123759   0.836   6.129  12.908  1.1724  0.3978 -0.2043
  756TIP3    H223760   0.797   6.180  12.771 -0.8874 -0.7917 -0.0817
  757TIP3   OH223761   2.718   3.717  11.476  0.4868 -0.2138 -0.0508
  757TIP3    H123762   2.803   3.722  11.432  1.0283 -1.6093  0.7936
  757TIP3    H223763   2.665   3.662  11.417 -0.2398  1.6547 -1.1836
  758TIP3   OH223764   5.949   0.059   4.926  0.5372 -0.1400  0.2321
  758TIP3    H123765   5.913  -0.030   4.918  1.9097 -0.7317  0.4574
  758TIP3    H223766   5.902   0.097   5.001  0.6851 -1.0503  0.7950
  759TIP3   OH223767   6.082   4.463   1.485 -0.3100 -0.3090 -0.0280
  759TIP3    H123768   6.103   4.520   1.559  1.3942  1.1204 -1.5716
  759TIP3    H223769   6.069   4.377   1.525 -0.5451  0.6599  2.0588
  760TIP3   OH223770   4.598   1.350  11.787  0.5959 -0.6100  0.8021
  760TIP3    H123771   4.516   1.387  11.823  2.7857  1.8878  3.4909
  760TIP3    H223772   4.606   1.389  11.700 -0.8907 -0.6100  0.6510
  761TIP3   OH223773   1.481   1.743  10.419 -0.0270  0.3728 -0.3816
  761TIP3    H123774   1.526   1.826  10.438  0.4480  0.0452 -0.0789
  761TIP3    H223775   1.535   1.676  10.461 -0.7071 -0.0413 -0.1686
  762TIP3   OH223776   1.299   1.049   3.265 -0.3535 -0.2030 -0.2113
  762TIP3    H123777   1.210   1.022   3.288 -0.1071 -0.3369  0.6151
  762TIP3    H223778   1.341   1.067   3.350  0.8210 -1.4564 -0.5165
  763TIP3   OH223779   2.169   0.613  14.518 -0.2009  0.2699  0.2602
  763TIP3    H123780   2.116   0.533  14.510  1.1136 -0.6506  0.4408
  763TIP3    H223781   2.117   0.681  14.475 -1.2819 -0.7140 -0.0305
  764TIP3   OH223782   4.582   0.867   0.492  0.0615  0.7193 -0.1391
  764TIP3    H123783   4.491   0.838   0.490  0.4855 -0.7121  0.3010
  764TIP3    H223784   4.585   0.942   0.433 -1.5035  1.0912  0.2339
  765TIP3   OH223785   3.772   2.325  14.534  0.1755  0.0959  0.4920
  765TIP3    H123786   3.700   2.268  14.505 -0.2361  0.5726  0.5819
  765TIP3    H223787   3.850   2.269  14.528 -0.1404 -0.3028  0.0092
  766TIP3   OH223788   2.012   0.817   3.385 -0.3713 -0.0599  0.1182
  766TIP3    H123789   2.026   0.894   3.329 -1.3800  0.4189  0.5152
  766TIP3    H223790   1.954   0.848   3.455 -0.7484 -1.1698  0.3109
  767TIP3   OH223791   0.434   0.033   0.779 -0.0872 -0.4330  0.2235
  767TIP3    H123792   0.457  -0.060   0.777 -0.8501 -0.6487  1.1109
  767TIP3    H223793   0.366   0.042   0.712  0.8426 -0.2668 -0.7126
  768TIP3   OH223794   2.836   1.653   1.838  0.6704  0.8868 -0.5340
  768TIP3    H123795   2.921   1.644   1.793 -0.1034  1.6238 -2.1657
  768TIP3    H223796   2.806   1.562   1.849  0.9367  0.6909 -1.3773
  769TIP3   OH223797   0.542   3.035   4.344 -0.2072 -0.3930  0.1603
  769TIP3    H123798   0.617   3.094   4.345 -0.8067  0.3645  0.9809
  769TIP3    H223799   0.502   3.046   4.258 -0.8618  1.0964  0.6445
  770TIP3   OH223800   2.120   5.151   2.573 -0.1754  0.0994 -0.0126
  770TIP3    H123801   2.194   5.176   2.627  1.2652 -1.1090 -1.3847
  770TIP3    H223802   2.046   5.147   2.634  1.1489 -0.0217  1.6185
  771TIP3   OH223803   5.650   1.603   2.793 -0.4697 -0.1204  0.4032
  771TIP3    H123804   5.614   1.647   2.716  0.5489 -0.2312 -0.1501
  771TIP3    H223805   5.692   1.524   2.757 -2.0669 -1.4332  1.3406
  772TIP3   OH223806   0.952   6.016  12.371  0.1727 -0.2011  0.1049
  772TIP3    H123807   0.937   6.034  12.278  1.5009  0.6967  0.0463
  772TIP3    H223808   0.873   5.969  12.399  1.5668 -4.4498 -2.5013
  773TIP3   OH223809   4.933   0.598   2.918 -0.1363 -0.0577 -0.6370
  773TIP3    H123810   4.893   0.674   2.960 -0.0295 -1.0473  1.3114
  773TIP3    H223811   4.862   0.559   2.866 -1.2809 -0.8374  1.4584
  774TIP3   OH223812   0.415   4.107   2.962  0.5763 -0.3116 -0.1668
  774TIP3    H123813   0.449   4.117   3.051 -0.9650 -1.2220  0.5474
  774TIP3    H223814   0.445   4.021   2.934  2.4656  0.6619 -1.1756
  775TIP3   OH223815   3.579   1.201   1.894 -0.4321  0.7462 -0.7267
  775TIP3    H123816   3.574   1.187   1.799 -0.0412  2.2527 -0.9806
  775TIP3    H223817   3.487   1.204   1.922 -0.5569 -1.8243 -0.6988
  776TIP3   OH223818   6.182   5.029   0.833  0.0205 -0.1754 -0.1420
  776TIP3    H123819   6.163   4.952   0.887 -0.2297  0.8847  1.3078
  776TIP3    H223820   6.152   5.103   0.886  2.0862  1.0719 -0.6776
  777TIP3   OH223821   4.858   1.563  16.776  0.6960  0.1053 -0.5125
  777TIP3    H123822   4.802   1.614  16.834  1.3391  1.0998 -0.7342
  777TIP3    H223823   4.801   1.534  16.706  0.3518  0.7013 -0.4829
  778TIP3   OH223824   4.262   4.484   0.255  0.3944  0.3816 -0.0012
  778TIP3    H123825   4.319   4.444   0.190 -0.4250  0.4535 -0.7761
  778TIP3    H223826   4.191   4.421   0.267  0.1873  0.6722  0.3189
  779TIP3   OH223827   6.575   5.275   2.369 -0.0136 -0.1324 -0.3053
  779TIP3    H123828   6.665   5.276   2.400  0.0739 -0.7028 -0.5337
  779TIP3    H223829   6.525   5.237   2.442 -0.0819  0.2494 -0.1515
  780TIP3   OH223830   0.138   5.968  13.851 -0.1394  0.3595  0.1395
  780TIP3    H123831   0.175   5.946  13.937  2.0731 -0.5752 -0.9999
  780TIP3    H223832   0.174   5.902  13.792  0.3460  2.4386 -1.9732
  781TIP3   OH223833   3.661   3.966  11.468  0.3726  0.7155  0.1523
  781TIP3    H123834   3.724   4.038  11.458  2.2712 -0.9444 -0.2769
  781TIP3    H223835   3.660   3.924  11.381 -1.5863  0.9147  0.0720
  782TIP3   OH223836   2.267   3.812  16.429  0.2893 -0.3778 -0.7679
  782TIP3    H123837   2.224   3.897  16.419  1.4028  0.1000 -1.7028
  782TIP3    H223838   2.214   3.752  16.377 -0.7357 -0.3434  0.2340
  783TIP3   OH223839   5.618   2.997   2.453 -0.0248 -0.4221  0.0648
  783TIP3    H123840   5.695   2.941   2.468 -0.0288 -0.3347  0.4145
  783TIP3    H223841   5.611   3.003   2.358  2.9790  3.0683 -0.0722
  784TIP3   OH223842   3.715   0.953   5.333 -0.0994  0.2198  0.1707
  784TIP3    H123843   3.631   0.948   5.379  0.3368  0.9932  1.0697
  784TIP3    H223844   3.722   1.045   5.307 -0.1541 -0.1310 -1.1037
  785TIP3   OH223845   2.618   6.000  14.959  0.2186 -0.4483 -0.0563
  785TIP3    H123846   2.672   5.921  14.959 -0.9906 -1.2892  0.7480
  785TIP3    H223847   2.558   5.988  14.885 -0.4399 -0.6036  0.5061
  786TIP3   OH223848   3.115   1.030   4.894 -0.7620 -0.1975  0.2744
  786TIP3    H123849   3.210   1.033   4.884 -0.7582 -0.8320  0.1194
  786TIP3    H223850   3.096   1.097   4.960 -0.2648  0.3017 -0.0796
  787TIP3   OH223851   5.871   6.285  13.160  0.4006 -0.2653 -0.0675
  787TIP3    H123852   5.831   6.285  13.247  0.7922 -1.0105  0.1235
  787TIP3    H223853   5.952   6.335  13.170  0.5413 -0.5147  0.0443
  788TIP3   OH223854   6.159   5.812  14.396  0.0566 -0.2743  0.1151
  788TIP3    H123855   6.213   5.835  14.320 -0.4012 -0.5247 -0.2887
  788TIP3    H223856   6.077   5.780  14.359  0.2860 -1.5811  0.6797
  789TIP3   OH223857   2.125   6.175  14.037  0.3990  0.5281 -0.4096
  789TIP3    H123858   2.074   6.100  14.004 -0.2968  1.0769 -0.5962
  789TIP3    H223859   2.148   6.150  14.126 -4.5468  2.3511  1.5254
  790TIP3   OH223860   3.273   4.720  13.594  0.0325  0.0510 -0.3308
  790TIP3    H123861   3.184   4.742  13.624  0.0538 -1.4850  0.9427
  790TIP3    H223862   3.259   4.678  13.509 -0.4903 -0.3114 -0.0770
  791TIP3   OH223863   0.258   0.042  12.406  0.0982  0.0730 -0.2639
  791TIP3    H123864   0.336   0.007  12.449 -0.0003  1.5649  1.1717
  791TIP3    H223865   0.270   0.137  12.409 -0.2329  0.2549 -2.9617
  792TIP3   OH223866   2.038   5.148  13.086  0.1176  0.4131  0.2946
  792TIP3    H123867   2.132   5.139  13.103  0.0727  0.5363  0.6285
  792TIP3    H223868   1.998   5.133  13.172 -0.1412  0.7554  0.2311
  793TIP3   OH223869   5.446   5.793   4.117  0.2480 -0.3127 -0.5646
  793TIP3    H123870   5.373   5.739   4.087 -1.9439  2.2735 -0.0602
  793TIP3    H223871   5.427   5.880   4.083  2.1791  0.8042  1.1086
  794TIP3   OH223872   6.227   1.770   4.951  0.1247  0.3432  0.6277
  794TIP3    H123873   6.166   1.741   5.018 -0.4759  0.5740  0.1906
  794TIP3    H223874   6.295   1.703   4.950 -0.4866 -0.2865  0.6354
  795TIP3   OH223875   2.230   6.279  16.352 -0.0242 -0.1555  0.3159
  795TIP3    H123876   2.295   6.233  16.299 -1.0947  0.0530 -1.1958
  795TIP3    H223877   2.147   6.237  16.331 -0.6986  1.0207  0.5669
  796TIP3   OH223878   3.324   2.897   1.911  0.0931  0.4642  0.3002
  796TIP3    H123879   3.327   2.946   1.994  2.0361  1.6459 -0.4249
  796TIP3    H223880   3.251   2.937   1.863  0.3067  1.2204  0.5849
  797TIP3   OH223881   3.768   0.571   6.323  0.0965 -0.1253  0.4616
  797TIP3    H123882   3.862   0.560   6.341  0.3402  0.6932 -0.2673
  797TIP3    H223883   3.726   0.501   6.373  1.2865 -1.9679 -1.0094
  798TIP3   OH223884   2.235   6.295   5.151 -0.3753 -0.0133 -0.4247
  798TIP3    H123885   2.272   6.217   5.109 -1.2818 -0.5074 -0.3058
  798TIP3    H223886   2.231   6.273   5.244  0.4620  0.6184 -0.2350
  799TIP3   OH223887   0.145   3.075   1.935  0.1763  0.4364 -0.1185
  799TIP3    H123888   0.065   3.109   1.897  1.3742  0.7550 -2.4390
  799TIP3    H223889   0.213   3.137   1.908  1.6504 -1.3458 -0.6211
  800TIP3   OH223890   6.178   5.610   2.120 -0.3217 -0.6432 -0.2800
  800TIP3    H123891   6.093   5.653   2.107  1.4997  3.1664 -0.3878
  800TIP3    H223892   6.195   5.566   2.037 -1.6325 -0.3779 -0.7087
  801TIP3   OH223893   2.714   2.485   3.897 -0.8691 -0.7141  0.6872
  801TIP3    H123894   2.719   2.522   3.986 -0.6914  2.3470 -0.5433
  801TIP3    H223895   2.794   2.516   3.854 -0.8971 -2.2768 -0.5188
  802TIP3   OH223896   1.364   4.430  16.357 -0.0220  0.1172  0.0473
  802TIP3    H123897   1.339   4.349  16.314  0.0254  0.6461 -1.0040
  802TIP3    H223898   1.294   4.447  16.421 -0.7656  0.0045 -0.7341
  803TIP3   OH223899   0.809   1.319  15.559  0.1724  0.7349  0.0476
  803TIP3    H123900   0.730   1.265  15.560  0.3545  0.4602  1.3605
  803TIP3    H223901   0.879   1.260  15.587  0.7702  1.0748 -0.7279
  804TIP3   OH223902   1.005   2.459   3.177 -0.2238 -0.0800 -0.0282
  804TIP3    H123903   1.036   2.444   3.267  2.7079  1.7939 -0.6904
  804TIP3    H223904   0.929   2.516   3.188 -1.0491 -1.3938  1.3623
  805TIP3   OH223905   3.866   2.400   2.059 -0.7598  0.7769 -0.5711
  805TIP3    H123906   3.797   2.467   2.057 -1.1510  0.3811 -0.3614
  805TIP3    H223907   3.947   2.448   2.039 -0.9790  1.3811  0.0064
  806TIP3   OH223908   4.234   0.478  16.429 -0.1249  0.0796  0.6370
  806TIP3    H123909   4.176   0.521  16.367  0.2588 -0.0504  0.1840
  806TIP3    H223910   4.304   0.441  16.375  1.4352  1.9367  1.3336
  807TIP3   OH223911   5.151   3.847   0.300 -0.3475 -0.2938  0.4944
  807TIP3    H123912   5.117   3.785   0.365 -0.0145 -1.2142 -0.1977
  807TIP3    H223913   5.152   3.797   0.218 -1.6502  1.1461 -0.4221
  808TIP3   OH223914   6.659   2.945   1.278 -0.4022  0.3341 -0.2360
  808TIP3    H123915   6.746   2.941   1.320  0.6373  2.3346 -2.1274
  808TIP3    H223916   6.656   2.868   1.221 -0.2036 -0.1807  0.4407
  809TIP3   OH223917   2.572   3.308  10.167  0.5221 -0.2733 -0.2727
  809TIP3    H123918   2.631   3.370  10.124  0.4634 -0.4544 -0.6130
  809TIP3    H223919   2.501   3.362  10.201 -0.0195 -0.2715 -1.4019
  810TIP3   OH223920   5.306   6.350   3.181  0.1598  0.1412  0.3934
  810TIP3    H123921   5.218   6.313   3.179  0.7799 -1.2915 -1.0749
  810TIP3    H223922   5.321   6.380   3.091  1.3480 -0.0552  0.5296
  811TIP3   OH223923   0.857   0.031  14.172 -0.0620 -0.5894  0.0027
  811TIP3    H123924   0.917  -0.010  14.234  1.0579 -0.6455 -1.0894
  811TIP3    H223925   0.835   0.115  14.212  0.0637 -0.9392  0.8122
  812TIP3   OH223926   0.137   6.063   0.787 -0.6498 -0.0036 -0.4673
  812TIP3    H123927   0.118   6.018   0.869 -1.5205 -1.1024 -1.2546
  812TIP3    H223928   0.100   6.151   0.798  0.1690  0.1981  0.6984
  813TIP3   OH223929   0.781   0.346  16.683 -0.0269 -0.1036  0.2397
  813TIP3    H123930   0.755   0.412  16.747 -1.1110  0.3325 -0.6239
  813TIP3    H223931   0.698   0.315  16.646  0.5542 -0.8650 -0.4353
  814TIP3   OH223932   1.431   5.752  13.677 -0.2839 -0.2373  0.0361
  814TIP3    H123933   1.345   5.711  13.666 -1.6801  1.7465  2.8583
  814TIP3    H223934   1.493   5.680  13.675 -2.1117 -1.8338 -0.7973
  815TIP3   OH223935   4.139   1.745  16.667 -0.0078 -0.7175 -0.7259
  815TIP3    H123936   4.092   1.755  16.583  0.4541 -0.1804 -0.9232
  815TIP3    H223937   4.220   1.795  16.655  0.0631 -0.6447  0.0424
  816TIP3   OH223938   2.083   6.262   2.713  0.3146 -0.2494  0.3392
  816TIP3    H123939   2.165   6.212   2.719 -0.2215 -1.5573 -2.3876
  816TIP3    H223940   2.016   6.202   2.744 -0.1032 -0.6538 -1.2897
  817TIP3   OH223941   6.208   6.131  16.620  0.1977 -0.4010  1.2212
  817TIP3    H123942   6.150   6.191  16.666  1.1504 -0.4559  2.5004
  817TIP3    H223943   6.149   6.080  16.564 -0.5622  2.3373 -0.6442
  818TIP3   OH223944   5.663   5.527   4.057 -0.5776 -0.0528  0.2002
  818TIP3    H123945   5.622   5.535   3.971  0.1789 -2.8575 -0.4846
  818TIP3    H223946   5.709   5.609   4.070 -3.4456  1.7435 -0.5756
  819TIP3   OH223947   0.822   6.415   1.353  0.0120  0.2340  0.0673
  819TIP3    H123948   0.736   6.428   1.312  0.3431  0.0334 -0.6915
  819TIP3    H223949   0.868   6.498   1.338  0.3004 -0.0051 -0.3679
  820TIP3   OH223950   3.339   1.784  13.370 -0.1586 -0.0041 -0.1473
  820TIP3    H123951   3.274   1.814  13.433  0.1432  0.7108 -0.1715
  820TIP3    H223952   3.303   1.809  13.285  0.8286  1.7444 -0.0812
  821TIP3   OH223953   2.220   2.015  12.117  0.2011  0.2057  0.7596
  821TIP3    H123954   2.267   1.937  12.090 -1.7999 -0.8565  0.2441
  821TIP3    H223955   2.288   2.083  12.124  2.3896 -2.2069  4.0294
  822TIP3   OH223956   5.225   1.337  10.702 -0.3676  0.0484  0.5264
  822TIP3    H123957   5.271   1.279  10.642 -1.1208 -0.5944  0.5632
  822TIP3    H223958   5.293   1.365  10.764 -0.1395 -1.3829  0.9592
  823TIP3   OH223959   1.053   1.599  12.553 -0.3873 -0.8614  0.6791
  823TIP3    H123960   0.960   1.592  12.533  0.2718 -1.2964 -2.4543
  823TIP3    H223961   1.078   1.510  12.578 -0.4390 -1.1473 -0.2640
  824TIP3   OH223962   5.957   3.425  13.699  0.1019 -0.0730 -0.4576
  824TIP3    H123963   5.990   3.455  13.615 -0.4312 -2.8300 -1.6967
  824TIP3    H223964   6.035   3.416  13.754  0.6602 -0.2362 -1.2855
  825TIP3   OH223965   3.433   2.955  12.501  0.0637  0.4078 -0.3345
  825TIP3    H123966   3.384   2.875  12.487  0.6617  0.0168 -0.2259
  825TIP3    H223967   3.373   3.013  12.548 -0.1756 -0.1747  0.0822
  826TIP3   OH223968   0.699   2.059  12.061  0.1525 -0.3534  0.6666
  826TIP3    H123969   0.736   1.975  12.032  0.9945 -0.1882  1.2661
  826TIP3    H223970   0.647   2.089  11.986 -0.3130 -1.4971  0.5087
  827TIP3   OH223971   2.587   5.811  15.856 -0.2550 -0.3203  0.5714
  827TIP3    H123972   2.577   5.718  15.879 -0.3519 -0.1918  1.0407
  827TIP3    H223973   2.677   5.832  15.879 -0.3773 -0.1698  0.9160
  828TIP3   OH223974   3.777   2.571   0.901  0.0925  0.4883  0.2575
  828TIP3    H123975   3.870   2.593   0.914  0.1395  0.2502  0.3374
  828TIP3    H223976   3.779   2.485   0.857 -0.0439  1.8530 -2.5312
  829TIP3   OH223977   3.221   0.989  11.082  0.0934  0.8114 -0.2343
  829TIP3    H123978   3.188   1.041  11.156 -0.4634  2.3589 -1.5435
  829TIP3    H223979   3.230   1.052  11.011  0.2276 -0.7477 -1.6206
  830TIP3   OH223980   1.759   0.367   0.758  0.2205 -0.1167 -0.0595
  830TIP3    H123981   1.825   0.384   0.825  0.9468 -1.0323 -0.5384
  830TIP3    H223982   1.683   0.334   0.807 -0.0227  1.2918  0.5292
  831TIP3   OH223983   0.853   4.465   5.321  0.0674 -0.3231 -0.0833
  831TIP3    H123984   0.923   4.457   5.257  0.0924  0.6462 -0.1749
  831TIP3    H223985   0.898   4.486   5.403 -0.2210  1.7429 -0.4412
  832TIP3   OH223986   5.831   4.604   1.431  0.0933  0.5580 -0.4907
  832TIP3    H123987   5.834   4.524   1.483  0.5255  1.2784  0.6031
  832TIP3    H223988   5.817   4.573   1.341 -0.2064 -0.7147 -0.0222
  833TIP3   OH223989   2.525   4.257  12.438  0.3514  0.1411  0.0601
  833TIP3    H123990   2.466   4.330  12.418 -0.9729 -0.9247  0.0228
  833TIP3    H223991   2.497   4.226  12.523  0.5191 -0.7262 -0.1986
  834TIP3   OH223992   4.099   0.696  16.741  0.2737 -0.3106 -0.6359
  834TIP3    H123993   4.046   0.618  16.728 -0.6473  0.4059 -1.2687
  834TIP3    H223994   4.173   0.684  16.681  0.2040 -0.7537 -0.6353
  835TIP3   OH223995   2.958   1.529  15.228  0.0794 -0.9544  0.6077
  835TIP3    H123996   2.924   1.564  15.311 -0.4146 -0.7748  0.3319
  835TIP3    H223997   3.049   1.557  15.226 -0.8093  2.1567 -0.5795
  836TIP3   OH223998   5.283   0.115   0.226  0.1921  0.5080 -0.6393
  836TIP3    H123999   5.356   0.170   0.200  0.7039  0.6726  1.0970
  836TIP3    H224000   5.246   0.083   0.144  3.5175 -1.2844 -1.5068
  837TIP3   OH224001   4.920   1.388  13.262  0.4937 -0.4328 -0.1013
  837TIP3    H124002   4.888   1.477  13.275  0.4460 -0.6190  1.0970
  837TIP3    H224003   4.997   1.398  13.206  1.0536  0.4587  0.8060
  838TIP3   OH224004   1.821   4.712   5.659 -0.0872 -0.0317  0.5955
  838TIP3    H124005   1.777   4.747   5.737 -0.5192 -1.6576  1.0978
  838TIP3    H224006   1.848   4.790   5.610 -0.1765  1.0112  2.1644
  839TIP3   OH224007   4.908   3.262   3.203 -0.1456  0.2353  0.5504
  839TIP3    H124008   4.893   3.265   3.109  2.6790 -3.2571 -0.1264
  839TIP3    H224009   4.821   3.247   3.241 -0.9652 -0.8355 -1.6647
  840TIP3   OH224010   3.784   3.392  11.795  0.3673  0.1113  0.2549
  840TIP3    H124011   3.727   3.456  11.838  1.1928  0.8967  0.1791
  840TIP3    H224012   3.726   3.344  11.736 -0.6418 -0.4805  1.6665
  841TIP3   OH224013   0.520   1.197  15.212  0.3240 -0.2788  0.7594
  841TIP3    H124014   0.483   1.160  15.132 -1.3492  1.0474  0.8910
  841TIP3    H224015   0.493   1.289  15.211 -0.9537 -0.5559  3.5020
  842TIP3   OH224016   0.157   1.504   3.371  0.3226 -0.2980  0.0013
  842TIP3    H124017   0.113   1.569   3.427  0.4490  0.1976 -0.4709
  842TIP3    H224018   0.250   1.520   3.386  0.3489 -1.2736  0.9146
  843TIP3   OH224019   4.061   6.788  13.103 -0.4503  0.3418  0.3139
  843TIP3    H124020   4.109   6.867  13.123  0.4774  0.2751 -1.5391
  843TIP3    H224021   4.083   6.769  13.011 -0.2022 -2.3495  0.8921
  844TIP3   OH224022   1.519   4.982   5.138 -0.5806 -0.3687 -0.2293
  844TIP3    H124023   1.566   4.970   5.055 -1.3345 -2.9554 -0.3167
  844TIP3    H224024   1.427   4.982   5.113 -0.7817  0.2007  0.4862
  845TIP3   OH224025   1.218   0.736   1.588  0.3605  0.2261  0.3548
  845TIP3    H124026   1.125   0.733   1.612  0.6451  1.7101  1.7247
  845TIP3    H224027   1.257   0.661   1.634  0.0092  0.1858  0.5927
  846TIP3   OH224028   3.510   4.204  16.059 -0.2440  0.1876  0.3766
  846TIP3    H124029   3.540   4.113  16.066 -1.5214 -0.3188 -0.4141
  846TIP3    H224030   3.416   4.199  16.076 -0.5626  1.1547 -1.0113
  847TIP3   OH224031   0.245   1.502  16.885  0.2003 -0.1305 -0.0399
  847TIP3    H124032   0.210   1.468  16.803  1.0980 -0.2927 -0.3674
  847TIP3    H224033   0.336   1.471  16.887  0.4334  0.5722  0.6150
  848TIP3   OH224034   5.583   1.376   3.362  0.4265 -0.5544  0.0909
  848TIP3    H124035   5.501   1.359   3.316  0.3388 -1.0291  0.4263
  848TIP3    H224036   5.561   1.443   3.427 -0.3833 -2.7735  2.1803
  849TIP3   OH224037   3.427   2.162   2.527 -0.1987  0.5861  0.0518
  849TIP3    H124038   3.346   2.127   2.490 -0.2577  1.4641 -0.6690
  849TIP3    H224039   3.409   2.256   2.539  1.6505  1.3540 -2.7698
  850TIP3   OH224040   0.303   1.094   0.635 -0.5770  0.4315  0.1189
  850TIP3    H124041   0.248   1.098   0.714 -0.4992  1.6867  0.1272
  850TIP3    H224042   0.246   1.056   0.568 -0.8491 -0.0491  0.6236
  851TIP3   OH224043   2.808   6.761  16.342 -0.6143  0.1393 -0.2111
  851TIP3    H124044   2.764   6.681  16.315 -1.1089  0.6475 -0.9289
  851TIP3    H224045   2.900   6.736  16.350 -0.4094  0.0132 -2.5946
  852TIP3   OH224046   2.899   2.203  14.470 -0.5530  0.6135 -0.1123
  852TIP3    H124047   2.823   2.257  14.447 -0.1082  0.6215 -1.6148
  852TIP3    H224048   2.966   2.227  14.406  1.2899  1.7942  2.1775
  853TIP3   OH224049   0.902   6.418   4.030  1.0339 -0.5496  0.0641
  853TIP3    H124050   0.927   6.460   4.112 -3.0071  0.2756  0.9789
  853TIP3    H224051   0.878   6.329   4.055  1.7911 -0.9421 -0.5790
  854TIP3   OH224052   3.839   2.944  13.772  0.5654 -0.2224 -0.4979
  854TIP3    H124053   3.892   2.874  13.809  1.5688  0.2455 -1.0259
  854TIP3    H224054   3.827   2.919  13.680  1.0695  0.3727 -0.7301
  855TIP3   OH224055   6.003   0.261   2.611 -0.1153  0.0107  0.1708
  855TIP3    H124056   6.025   0.317   2.536  1.9057 -1.3930 -0.3239
  855TIP3    H224057   5.973   0.179   2.572  1.2014 -0.8284  0.8743
  856TIP3   OH224058   3.588   2.848  15.842 -0.0898 -0.2440  0.4020
  856TIP3    H124059   3.556   2.865  15.931  1.4013  0.2370  0.8629
  856TIP3    H224060   3.621   2.758  15.846  0.6658  0.0393  0.5416
  857TIP3   OH224061   1.015   0.581   4.555 -0.1113 -0.4218  0.3040
  857TIP3    H124062   1.086   0.635   4.589 -0.4779  0.1190  0.2143
  857TIP3    H224063   1.011   0.603   4.462 -0.0223 -0.8756  0.1908
  858TIP3   OH224064   2.746   1.406   1.788  0.9089 -0.2434  0.0634
  858TIP3    H124065   2.687   1.441   1.721 -1.6035 -0.0746  2.2625
  858TIP3    H224066   2.704   1.326   1.818  1.3647  0.2994  2.2439
  859TIP3   OH224067   4.651   0.492   4.857 -0.1978 -0.2497 -0.2637
  859TIP3    H124068   4.564   0.520   4.887 -0.0906  0.2469 -0.4072
  859TIP3    H224069   4.684   0.435   4.926 -1.2473 -1.6259 -0.8620
  860TIP3   OH224070   0.313   4.706  12.193 -0.5823  0.3325 -0.3583
  860TIP3    H124071   0.331   4.620  12.155 -0.4581 -0.3320  1.1514
  860TIP3    H224072   0.382   4.718  12.259 -1.0582  1.2489 -0.0216
  861TIP3   OH224073   4.346   1.194  10.475 -0.5884 -0.0270 -0.1456
  861TIP3    H124074   4.365   1.149  10.393 -0.9645 -1.6814  0.6499
  861TIP3    H224075   4.424   1.246  10.493 -0.9646  1.2638 -2.1278
  862TIP3   OH224076   6.492   4.474   2.750 -0.2121  0.2607 -0.2185
  862TIP3    H124077   6.508   4.568   2.760  0.1563  0.0200  1.7091
  862TIP3    H224078   6.561   4.443   2.692 -1.6056  1.5309 -2.6657
  863TIP3   OH224079   3.363   6.785  15.365  0.1999 -0.3440  0.0685
  863TIP3    H124080   3.356   6.848  15.293  0.7266  0.9836  1.1718
  863TIP3    H224081   3.347   6.700  15.323 -1.0314  0.5442 -1.3537
  864TIP3   OH224082   2.606   6.265   5.563  0.5697  0.3256  0.3682
  864TIP3    H124083   2.634   6.176   5.585  2.3900  0.8106  0.0440
  864TIP3    H224084   2.515   6.269   5.594  0.1144 -1.9647 -0.5313
  865TIP3   OH224085   6.401   2.910   6.178  0.3637 -0.4134  0.0707
  865TIP3    H124086   6.398   2.832   6.233  0.1353 -1.4180 -1.3583
  865TIP3    H224087   6.483   2.952   6.202 -0.3384 -0.1450  2.1049
  866TIP3   OH224088   3.668   0.297   2.998 -0.2334  0.2629  0.2796
  866TIP3    H124089   3.749   0.332   2.962 -0.8611 -0.3137 -1.8007
  866TIP3    H224090   3.666   0.206   2.970 -1.6192  0.2832  0.2383
  867TIP3   OH224091   4.637   3.663   1.747 -0.8686 -0.1478 -0.6007
  867TIP3    H124092   4.592   3.738   1.786 -0.2617  0.5958 -1.3076
  867TIP3    H224093   4.708   3.643   1.808 -0.4254  0.4890 -0.9024
  868TIP3   OH224094   3.004   1.884  11.723 -0.1645  0.0259  1.0083
  868TIP3    H124095   2.935   1.939  11.686  1.3925 -0.0991 -2.2160
  868TIP3    H224096   3.078   1.943  11.735  0.8419 -0.8992 -0.4986
  869TIP3   OH224097   6.655   2.084  14.283  0.2260  0.0454  0.8563
  869TIP3    H124098   6.674   2.136  14.362 -0.5432  0.8838  0.4973
  869TIP3    H224099   6.560   2.087  14.275  0.2710 -0.4107  0.1412
  870TIP3   OH224100   6.001   2.247  12.942 -0.3591  0.2695  0.1722
  870TIP3    H124101   6.028   2.196  13.019  0.5955 -0.6612 -0.7515
  870TIP3    H224102   6.056   2.326  12.946 -0.0095  0.0260  0.2166
  871TIP3   OH224103   3.569   3.256   3.562 -0.2788 -0.6459  0.2075
  871TIP3    H124104   3.514   3.324   3.601 -0.0556 -0.4592  0.1960
  871TIP3    H224105   3.609   3.299   3.486  0.2073 -0.6560  0.4532
  872TIP3   OH224106   5.344   3.978  15.723  0.0504 -0.9864  0.2895
  872TIP3    H124107   5.429   4.021  15.727 -0.3608 -0.2539  1.4380
  872TIP3    H224108   5.352   3.902  15.780  0.4085 -1.7741 -0.8090
  873TIP3   OH224109   5.803   5.490  12.101 -0.0320  0.3336  0.3401
  873TIP3    H124110   5.724   5.495  12.154  0.3037  1.1310  0.7759
  873TIP3    H224111   5.783   5.541  12.023 -0.9056 -1.7234 -0.8157
  874TIP3   OH224112   1.236   3.238  13.137  0.2580 -0.0962  0.6223
  874TIP3    H124113   1.239   3.147  13.168  2.5637 -0.9111 -1.7947
  874TIP3    H224114   1.221   3.231  13.042  1.2211  2.0213  0.2828
  875TIP3   OH224115   0.139   3.561   2.450  0.0432  0.3230  0.1874
  875TIP3    H124116   0.113   3.534   2.538 -0.2290 -1.4914 -0.4300
  875TIP3    H224117   0.150   3.656   2.456  0.6472  0.1394  2.3297
  876TIP3   OH224118   0.625   2.845   4.640  0.4730  0.0456  0.1670
  876TIP3    H124119   0.575   2.764   4.630 -0.2501  0.5141 -0.0625
  876TIP3    H224120   0.681   2.848   4.562  0.1765 -0.0042 -0.0483
  877TIP3   OH224121   1.234   4.000   1.651 -0.0865  0.2983  0.4229
  877TIP3    H124122   1.297   3.929   1.668 -1.1398 -0.3422  1.8003
  877TIP3    H224123   1.288   4.075   1.627  1.0572 -0.9358 -0.9619
  878TIP3   OH224124   0.286   4.822   5.743  0.5946 -0.6385 -0.3268
  878TIP3    H124125   0.268   4.745   5.688 -1.3546 -0.4860  0.0926
  878TIP3    H224126   0.303   4.785   5.830 -0.6317 -0.5815 -0.0594
  879TIP3   OH224127   2.277   6.478   1.843  0.2427 -0.5986  0.0035
  879TIP3    H124128   2.299   6.568   1.868 -0.9632  0.1358 -1.4825
  879TIP3    H224129   2.361   6.433   1.838  0.8637  0.4626  0.7015
  880TIP3   OH224130   0.609   5.413  12.089  0.0539  0.4359 -0.0180
  880TIP3    H124131   0.661   5.424  12.010 -0.5412  2.4040 -0.1721
  880TIP3    H224132   0.522   5.446  12.065 -0.0110  1.4889  1.5639
  881TIP3   OH224133   2.690   1.577  12.072  0.3906 -0.1173  0.5492
  881TIP3    H124134   2.653   1.594  12.159  0.6428  0.2485  0.5852
  881TIP3    H224135   2.782   1.558  12.089  0.4324 -0.0759  0.3639
  882TIP3   OH224136   4.612   0.123   2.098 -0.7349 -0.0392 -0.0210
  882TIP3    H124137   4.705   0.108   2.085  0.1469  3.7262  1.2382
  882TIP3    H224138   4.588   0.067   2.172  0.6944 -0.4836  0.1089
  883TIP3   OH224139   3.606   3.122   2.230 -0.1857  0.1211 -0.7614
  883TIP3    H124140   3.603   3.217   2.224 -2.1348  0.2172  1.1263
  883TIP3    H224141   3.699   3.101   2.238  0.1120  2.1064  1.6588
  884TIP3   OH224142   1.350   6.717   5.501  0.1106  0.2805 -0.8118
  884TIP3    H124143   1.331   6.666   5.422  0.3275 -0.9763 -0.0550
  884TIP3    H224144   1.425   6.772   5.477  0.3079 -0.2478 -1.4116
  885TIP3   OH224145   2.334   5.083   0.368 -0.0221 -0.3370 -0.5282
  885TIP3    H124146   2.422   5.044   0.371 -0.5845 -1.5239  1.7888
  885TIP3    H224147   2.311   5.096   0.460 -1.6346  1.4599 -1.1675
  886TIP3   OH224148   4.994   1.195  11.156  0.1368 -0.5838 -0.0168
  886TIP3    H124149   5.037   1.240  11.229  0.2092  0.6976 -0.8273
  886TIP3    H224150   5.021   1.245  11.078 -3.3566  0.7116 -0.4981
  887TIP3   OH224151   3.303   2.724  12.470  0.3702 -0.2994  0.0522
  887TIP3    H124152   3.273   2.723  12.561  0.3517  1.7687  0.1019
  887TIP3    H224153   3.270   2.643  12.433 -0.7571 -0.5526  1.5447
  888TIP3   OH224154   1.176   6.782  16.616  0.0102  0.1526 -0.0564
  888TIP3    H124155   1.113   6.834  16.667 -0.2305 -0.6338  0.4473
  888TIP3    H224156   1.123   6.745  16.545  0.1592  0.5043 -0.3486
  889TIP3   OH224157   5.587   6.268   3.500 -0.0878 -0.1791 -0.0965
  889TIP3    H124158   5.679   6.249   3.519  0.4743  1.3848 -1.1576
  889TIP3    H224159   5.559   6.326   3.571 -0.8207 -2.1884  1.2772
  890TIP3   OH224160   6.614   2.763   3.348  0.3804 -0.3104  0.3200
  890TIP3    H124161   6.683   2.790   3.408  1.3695 -0.6750 -0.6242
  890TIP3    H224162   6.657   2.760   3.262 -0.7051 -0.9442 -0.2147
  891TIP3   OH224163   4.416   4.804  16.108 -0.0526 -0.0539 -0.6939
  891TIP3    H124164   4.430   4.887  16.063  2.3280  1.1908  2.1852
  891TIP3    H224165   4.328   4.812  16.146  0.6117  1.6491  0.5345
  892TIP3   OH224166   6.098   3.779   4.357 -0.4728 -0.5821 -0.0233
  892TIP3    H124167   6.123   3.734   4.276 -2.3477  0.9416 -1.4844
  892TIP3    H224168   6.118   3.871   4.340 -1.9369 -0.0963  0.8235
  893TIP3   OH224169   3.738   2.463   3.281 -0.2802  1.0450  0.1695
  893TIP3    H124170   3.643   2.469   3.290 -0.5001 -2.9389  1.7425
  893TIP3    H224171   3.772   2.484   3.368 -0.0378 -1.3516  0.7008
  894TIP3   OH224172   6.033   3.097   1.500 -0.2030 -0.9410 -0.4284
  894TIP3    H124173   6.005   3.094   1.591  1.3557  1.2045  0.1852
  894TIP3    H224174   5.989   3.174   1.464  1.1807 -0.2687 -0.7353
  895TIP3   OH224175   4.764   4.071  14.266 -0.0015  0.6152  0.1912
  895TIP3    H124176   4.728   3.986  14.290 -1.1383  0.4668 -1.8565
  895TIP3    H224177   4.695   4.111  14.213  2.7564  0.3605 -3.8003
  896TIP3   OH224178   0.857   5.976   2.948 -0.2619 -0.5326  0.1749
  896TIP3    H124179   0.902   5.892   2.951  1.6710  0.5199  2.1990
  896TIP3    H224180   0.919   6.035   2.905 -1.6683 -0.1316 -1.3925
  897TIP3   OH224181   2.275   5.687   4.413 -0.1511  0.0007  0.0342
  897TIP3    H124182   2.295   5.760   4.353 -0.7625 -0.0982 -0.2909
  897TIP3    H224183   2.240   5.730   4.491 -0.0590  0.0832  0.0318
  898TIP3   OH224184   1.066   1.450   5.610 -0.0808  0.0780  0.3010
  898TIP3    H124185   1.154   1.487   5.624  0.5973 -1.9665  1.5919
  898TIP3    H224186   1.057   1.384   5.678 -2.9544  0.7836  0.6502
  899TIP3   OH224187   1.908   4.824  10.882  0.2170  0.3476 -0.4035
  899TIP3    H124188   1.817   4.852  10.873  0.4747  1.0930 -0.8257
  899TIP3    H224189   1.959   4.901  10.855  0.9794  0.2729  0.7777
  900TIP3   OH224190   5.856   4.939   2.449 -0.2706  0.0834 -0.0474
  900TIP3    H124191   5.803   4.938   2.529 -0.2306  1.7088  0.0215
  900TIP3    H224192   5.799   4.981   2.384  0.5465  0.9128 -0.2404
  901TIP3   OH224193   1.581   0.761  15.368  0.2269 -0.4701 -0.1086
  901TIP3    H124194   1.494   0.778  15.333 -0.0234  2.3670  1.7892
  901TIP3    H224195   1.583   0.667  15.384 -1.9864 -0.7621 -1.3953
  902TIP3   OH224196   2.499   2.478  14.551 -0.6526 -0.3707 -0.4694
  902TIP3    H124197   2.424   2.479  14.490 -0.7360  0.3424 -0.3632
  902TIP3    H224198   2.481   2.550  14.612 -0.8478 -1.4322  0.7451
  903TIP3   OH224199   0.212   5.230   3.759  0.0521  0.4644  0.3199
  903TIP3    H124200   0.270   5.204   3.831  0.8554  1.9454  0.2084
  903TIP3    H224201   0.144   5.163   3.759  1.2505 -0.7826  1.0447
  904TIP3   OH224202   1.235   3.833   0.851  0.0935  1.0181 -0.2061
  904TIP3    H124203   1.255   3.825   0.944 -1.0319  5.9420  0.6136
  904TIP3    H224204   1.319   3.847   0.809  0.5205 -0.4558  0.1261
  905TIP3   OH224205   6.305   6.331  15.674  0.6283 -0.3772  0.6589
  905TIP3    H124206   6.365   6.264  15.706 -0.1060 -2.2520 -1.6998
  905TIP3    H224207   6.218   6.295  15.690  0.1933  0.6379  0.6082
  906TIP3   OH224208   6.572   4.705   2.848 -0.1926  0.0263  0.6866
  906TIP3    H124209   6.543   4.704   2.939 -0.6475  0.8888  0.5601
  906TIP3    H224210   6.668   4.708   2.853 -0.1980 -0.5462  1.1304
  907TIP3   OH224211   5.329   2.051   5.016  0.1664  0.2754  0.3114
  907TIP3    H124212   5.297   1.961   5.020 -1.5854  0.8611 -0.2165
  907TIP3    H224213   5.400   2.054   5.080  1.0457 -1.7882 -0.5351
  908TIP3   OH224214   1.420   0.277  15.837 -0.2007  0.4408 -0.2387
  908TIP3    H124215   1.454   0.338  15.772  1.3277 -0.5282 -0.3635
  908TIP3    H224216   1.361   0.220  15.788  1.0377 -0.3627 -0.7960
  909TIP3   OH224217   4.373   2.724   5.064 -0.1855 -0.1287 -0.0039
  909TIP3    H124218   4.290   2.697   5.105  0.1261 -0.1209  0.6314
  909TIP3    H224219   4.434   2.733   5.136  0.4288 -0.3125 -0.4906
  910TIP3   OH224220   2.520   3.548  15.900 -0.0568 -0.2354  0.2186
  910TIP3    H124221   2.442   3.510  15.939 -1.3410 -1.4890 -3.3450
  910TIP3    H224222   2.584   3.552  15.971 -2.1521 -2.6847  2.3127
  911TIP3   OH224223   0.095   2.779   6.006  0.1375 -0.1159 -0.0379
  911TIP3    H124224   0.137   2.799   6.090  0.2517 -0.7412  0.0536
  911TIP3    H224225   0.007   2.751   6.031  0.0834 -0.0420 -0.1471
  912TIP3   OH224226   4.290   0.306   6.146 -0.1600 -0.2688 -0.2300
  912TIP3    H124227   4.239   0.292   6.226  2.8881  0.9155  2.0380
  912TIP3    H224228   4.248   0.382   6.105 -1.4248 -0.5471  0.4951
  913TIP3   OH224229   5.358   3.938   5.570  0.3455  0.2014  0.0080
  913TIP3    H124230   5.341   3.865   5.510 -0.9814 -0.7122  1.4522
  913TIP3    H224231   5.432   3.908   5.624  2.2191  1.4330 -1.7831
  914TIP3   OH224232   3.360   0.613  15.885 -0.0984 -0.5692 -0.3793
  914TIP3    H124233   3.441   0.566  15.864  0.8787  0.5932  0.7462
  914TIP3    H224234   3.300   0.544  15.913  0.7314 -1.3616 -0.5108
  915TIP3   OH224235   3.730   0.611  14.194  0.1083  0.4845 -0.1298
  915TIP3    H124236   3.651   0.644  14.152  0.7916  2.6790  0.2376
  915TIP3    H224237   3.785   0.581  14.122  0.0571  1.4725 -0.5793
  916TIP3   OH224238   3.160   0.255   1.105 -0.1242 -0.1622  0.1695
  916TIP3    H124239   3.113   0.214   1.178  0.5979 -2.4622 -0.6083
  916TIP3    H224240   3.096   0.256   1.034  0.1093 -0.6862 -0.0490
  917TIP3   OH224241   4.899   5.112   6.004  0.5736  0.2269  0.1292
  917TIP3    H124242   4.991   5.107   5.979  0.8010  1.7048  0.6333
  917TIP3    H224243   4.852   5.118   5.920  0.7951 -2.1678 -0.1931
  918TIP3   OH224244   3.153   4.754   2.029 -0.5419 -0.7010  0.2987
  918TIP3    H124245   3.215   4.779   1.961 -0.2025  0.7293  1.1230
  918TIP3    H224246   3.069   4.743   1.983 -0.9106  2.8249  0.0089
  919TIP3   OH224247   6.801   1.368  11.232 -0.1262 -0.1587 -0.2612
  919TIP3    H124248   6.724   1.388  11.285 -0.5553 -1.6020 -0.3215
  919TIP3    H224249   6.848   1.301  11.282  0.3584 -0.2867 -0.8740
  920TIP3   OH224250   3.690   3.628  12.239 -0.7288  0.3547  0.1100
  920TIP3    H124251   3.651   3.649  12.325  0.3598  0.5365  0.5604
  920TIP3    H224252   3.661   3.538  12.222  0.3850 -0.2704  1.4285
  921TIP3   OH224253   4.651   2.880   1.013 -0.0600 -0.3311 -0.4152
  921TIP3    H124254   4.740   2.905   1.035 -0.6314  1.6148 -0.1775
  921TIP3    H224255   4.621   2.829   1.087 -0.4446  2.3575  1.3691
  922TIP3   OH224256   1.144   4.200   0.953  0.6369 -0.0561  0.2396
  922TIP3    H124257   1.221   4.198   0.896  0.0051 -0.1208 -0.6387
  922TIP3    H224258   1.177   4.226   1.038  1.5616  0.3573 -0.2400
  923TIP3   OH224259   3.267   3.808  16.763  0.0636  0.6732  0.2065
  923TIP3    H124260   3.317   3.730  16.787 -3.4393 -1.6634  0.2666
  923TIP3    H224261   3.210   3.825  16.838 -1.4790  1.3462 -1.0876
  924TIP3   OH224262   1.893   0.530  11.468 -0.2362 -0.0128 -0.3513
  924TIP3    H124263   1.920   0.584  11.394  0.0432 -2.7745 -2.3331
  924TIP3    H224264   1.806   0.498  11.444 -0.1027 -1.0196  0.4632
  925TIP3   OH224265   4.049   4.104   5.095 -1.0054 -0.1930  0.2423
  925TIP3    H124266   4.033   4.027   5.148 -1.1252  1.8030  3.2304
  925TIP3    H224267   4.144   4.108   5.086 -0.9611 -0.3546  0.6267
  926TIP3   OH224268   1.538   2.848   3.943 -0.2145  0.5556  0.0088
  926TIP3    H124269   1.464   2.794   3.969 -1.0445  1.4193 -0.4940
  926TIP3    H224270   1.612   2.814   3.992 -0.9370 -0.3660  0.4679
  927TIP3   OH224271   3.429   3.009  14.808 -0.4688  0.0953 -0.8406
  927TIP3    H124272   3.437   2.920  14.774  1.1736  0.6768 -2.0450
  927TIP3    H224273   3.421   3.065  14.730 -1.8035  0.9757 -0.0901
  928TIP3   OH224274   6.502   0.283  16.301  0.4699 -0.2169  0.6528
  928TIP3    H124275   6.590   0.264  16.333  0.5971  0.8123  0.9072
  928TIP3    H224276   6.457   0.323  16.375  0.3890  1.0370 -0.0576
  929TIP3   OH224277   0.451   6.471  12.758 -0.4357 -0.0198  0.4219
  929TIP3    H124278   0.453   6.376  12.765  0.5255  0.0071  0.5382
  929TIP3    H224279   0.507   6.502  12.829  0.0414  0.6011 -0.2139
  930TIP3   OH224280   6.477   4.339   1.824 -0.1163  0.5023  0.0054
  930TIP3    H124281   6.396   4.302   1.858  0.5393 -2.2909 -1.2543
  930TIP3    H224282   6.531   4.353   1.901 -0.7231 -0.4541  0.6158
  931TIP3   OH224283   4.470   3.202  16.946  0.4101  0.6841 -0.5763
  931TIP3    H124284   4.530   3.143  16.992 -1.7254 -0.7037  0.4670
  931TIP3    H224285   4.475   3.284  16.995  1.7282  0.7289 -0.7454
  932TIP3   OH224286   1.054   4.420   3.031 -0.8811  0.1118  0.2304
  932TIP3    H124287   1.124   4.424   2.966 -0.7756 -0.6316  0.2925
  932TIP3    H224288   1.098   4.389   3.111 -0.9177  1.4446  0.7834
  933TIP3   OH224289   2.548   2.372  10.728  1.1061  0.4382  0.7903
  933TIP3    H124290   2.490   2.372  10.805  2.3575  0.3874  1.7513
  933TIP3    H224291   2.565   2.465  10.712 -0.1866  0.5140 -0.2355
  934TIP3   OH224292   5.879   4.556  14.655  1.1105  0.0358 -0.0636
  934TIP3    H124293   5.812   4.556  14.724 -0.2160  1.0192 -1.3328
  934TIP3    H224294   5.961   4.572  14.702  0.1456  1.2789  1.2389
  935TIP3   OH224295   4.112   2.197  13.171 -0.1969 -0.0322 -0.0368
  935TIP3    H124296   4.037   2.238  13.129 -1.9291 -2.7419  0.3057
  935TIP3    H224297   4.149   2.266  13.226 -0.8234  2.1064 -2.2241
  936TIP3   OH224298   2.013   1.763   4.540 -0.1192 -0.1454  0.0898
  936TIP3    H124299   2.045   1.726   4.457  1.9251  0.0591  0.7722
  936TIP3    H224300   1.989   1.686   4.592  0.0236 -0.3368 -0.1225
  937TIP3   OH224301   2.333   6.049   5.038  0.1595 -0.9574  0.1011
  937TIP3    H124302   2.263   6.015   5.095 -1.4928  0.5695 -0.9428
  937TIP3    H224303   2.358   5.974   4.983 -1.4110 -1.2662 -0.2203
  938TIP3   OH224304   0.488   1.506  13.532  0.5555  0.2195 -0.0775
  938TIP3    H124305   0.462   1.598  13.523 -0.5346 -0.1040 -0.2806
  938TIP3    H224306   0.432   1.459  13.470  0.7228 -0.6610  0.4322
  939TIP3   OH224307   4.689   3.703  16.454  0.5001 -0.1288  0.1536
  939TIP3    H124308   4.599   3.731  16.438 -0.2180 -2.5835 -0.3832
  939TIP3    H224309   4.697   3.702  16.550 -0.0489  0.1088  0.2023
  940TIP3   OH224310   0.340   4.266  16.283 -0.2001  0.2704 -0.4748
  940TIP3    H124311   0.281   4.335  16.255  0.6505  0.8401 -0.8928
  940TIP3    H224312   0.299   4.230  16.362 -0.0235  2.1047  0.4923
  941TIP3   OH224313   3.070   3.131   4.179 -0.1978 -0.2148  0.5403
  941TIP3    H124314   3.085   3.210   4.128  0.1825 -0.0546  0.8974
  941TIP3    H224315   2.976   3.114   4.170 -0.2148  0.0734  0.1708
  942TIP3   OH224316   3.090   4.279  15.535  0.0365  0.3373  0.1967
  942TIP3    H124317   3.120   4.284  15.625 -2.8462 -0.7587  1.2571
  942TIP3    H224318   3.117   4.193  15.504  0.1882  0.3405  0.3246
  943TIP3   OH224319   4.062   1.936  13.222 -0.7086  0.1535 -0.0029
  943TIP3    H124320   4.086   2.025  13.195 -1.6953  0.5805  0.5351
  943TIP3    H224321   3.969   1.941  13.244 -1.0227 -1.2317 -0.9124
  944TIP3   OH224322   5.398   0.209  16.010 -0.2161  0.1484  0.1189
  944TIP3    H124323   5.374   0.297  16.038 -0.8615  0.4197 -1.2293
  944TIP3    H224324   5.315   0.167  15.990  0.1102 -0.6613  0.4464
  945TIP3   OH224325   5.895   3.276   6.280 -0.1477  0.4566  0.1942
  945TIP3    H124326   5.839   3.322   6.343  0.1124  0.4696  0.4192
  945TIP3    H224327   5.955   3.225   6.334  0.7998  1.3208 -0.0195
  946TIP3   OH224328   1.133   4.176  16.234 -0.6499  0.0011  0.0317
  946TIP3    H124329   1.133   4.268  16.207 -0.6004 -0.6910 -2.4952
  946TIP3    H224330   1.226   4.152  16.236 -0.6362  0.1357  1.1929
  947TIP3   OH224331   6.497   4.239  12.723  0.5780 -0.4918  0.1033
  947TIP3    H124332   6.574   4.269  12.675 -0.0238  1.4687  0.3029
  947TIP3    H224333   6.506   4.144  12.727  3.5621 -0.1905  1.1181
  948TIP3   OH224334   5.304   6.596   5.344 -0.0349  0.0589 -1.0513
  948TIP3    H124335   5.217   6.567   5.316 -0.7754  2.3502 -1.2807
  948TIP3    H224336   5.319   6.550   5.426 -1.5370 -0.2656 -0.9394
  949TIP3   OH224337   5.363   0.957   4.656 -0.4036  0.5679  0.3093
  949TIP3    H124338   5.288   0.919   4.609 -0.6403  0.9902  0.3459
  949TIP3    H224339   5.416   0.997   4.587  0.1180 -0.2912  0.2108
  950TIP3   OH224340   4.070   1.173   3.087 -0.2725  0.2941 -0.2725
  950TIP3    H124341   4.088   1.139   3.175  1.2288  0.2906 -0.5587
  950TIP3    H224342   4.153   1.213   3.060 -0.5094 -0.3211 -1.9522
  951TIP3   OH224343   3.611   0.483  17.178  0.2862  0.0210 -0.3192
  951TIP3    H124344   3.634   0.468  17.270 -1.6281  0.7822  0.3212
  951TIP3    H224345   3.609   0.395  17.140 -0.5064 -0.4709  0.7998
  952TIP3   OH224346   6.613   1.079   5.010 -0.4844  0.1899  0.3625
  952TIP3    H124347   6.660   1.010   5.058  2.2625  2.0768  0.5248
  952TIP3    H224348   6.604   1.043   4.922  0.7015 -0.4961  0.5002
  953TIP3   OH224349   0.402   5.139   6.387 -0.2095  0.0166  0.4061
  953TIP3    H124350   0.389   5.135   6.482 -1.2451 -2.5972  0.1887
  953TIP3    H224351   0.316   5.161   6.352 -0.2276 -0.6988 -0.0147
  954TIP3   OH224352   5.636   4.212  12.978 -0.0562  0.2574  0.6356
  954TIP3    H124353   5.716   4.262  12.996  0.1795 -0.1060  0.5919
  954TIP3    H224354   5.566   4.268  13.011  0.0238  1.6721 -1.4804
  955TIP3   OH224355   0.145   4.284   6.468 -0.1025 -0.0231  0.1232
  955TIP3    H124356   0.054   4.271   6.497 -0.3104  1.2543  0.0946
  955TIP3    H224357   0.194   4.213   6.510 -0.7931  0.4334  1.7559
  956TIP3   OH224358   0.718   5.548  14.176  0.2520  0.0295 -0.2187
  956TIP3    H124359   0.754   5.587  14.097  0.4839  1.0244  0.3720
  956TIP3    H224360   0.782   5.482  14.202  0.0806 -0.4341 -0.9599
  957TIP3   OH224361   4.084   6.774   2.711 -0.3493  0.1388  0.0731
  957TIP3    H124362   4.030   6.766   2.632 -0.1477 -1.5281  0.0892
  957TIP3    H224363   4.023   6.796   2.781 -0.6000  1.1083 -0.4461
  958TIP3   OH224364   0.044   1.700   4.275 -0.0738 -0.2219  0.5211
  958TIP3    H124365  -0.046   1.706   4.307  0.8710  1.6917  2.9120
  958TIP3    H224366   0.057   1.778   4.222  0.7335  0.3975  1.6253
  959TIP3   OH224367   0.092   2.514   0.593  0.1454 -0.3220 -0.0965
  959TIP3    H124368   0.023   2.534   0.530  0.2941 -2.2018 -0.8856
  959TIP3    H224369   0.159   2.580   0.575 -1.7383  1.9954  1.2047
  960TIP3   OH224370   6.231   0.844   1.718 -0.0880  0.2965  0.2755
  960TIP3    H124371   6.173   0.836   1.642 -0.1935  1.9347  0.1550
  960TIP3    H224372   6.287   0.767   1.714 -0.0610  0.3885 -1.4927
  961TIP3   OH224373   5.545   4.331   4.752 -0.2873 -0.3150  0.1492
  961TIP3    H124374   5.575   4.414   4.716  0.6608 -0.8756 -0.3706
  961TIP3    H224375   5.467   4.309   4.700 -1.0344  0.6473  0.8397
  962TIP3   OH224376   6.675   1.060  11.721 -0.6061 -0.1601 -0.0470
  962TIP3    H124377   6.768   1.048  11.743 -0.2880  0.3627 -1.0736
  962TIP3    H224378   6.640   1.110  11.795  0.3305  1.1406 -0.4543
  963TIP3   OH224379   5.328   2.561   4.033  0.3350 -0.0729  0.3610
  963TIP3    H124380   5.399   2.601   4.084 -0.6023  0.5155  1.2122
  963TIP3    H224381   5.288   2.634   3.985  0.0909 -0.3549  0.1294
  964TIP3   OH224382   2.656   2.192  15.895  0.1073  0.3923 -0.1668
  964TIP3    H124383   2.710   2.259  15.937 -0.7206  2.3633 -2.1545
  964TIP3    H224384   2.566   2.223  15.907 -0.5262 -1.9778  1.5866
  965TIP3   OH224385   1.097   2.563  16.742  0.1154 -0.5557 -0.4463
  965TIP3    H124386   1.022   2.520  16.700 -0.0273 -0.5164 -0.2293
  965TIP3    H224387   1.173   2.531  16.692 -0.1515  0.4263 -1.5111
  966TIP3   OH224388   6.571   3.796   1.894 -0.1946 -0.2409 -0.3050
  966TIP3    H124389   6.657   3.756   1.906 -0.7556 -1.4438 -0.2715
  966TIP3    H224390   6.578   3.845   1.812  0.0950 -1.4735 -1.0182
  967TIP3   OH224391   3.693   4.948  12.279  0.2583  0.2485  0.2399
  967TIP3    H124392   3.689   5.031  12.327 -0.7134  0.8580 -0.8632
  967TIP3    H224393   3.785   4.939  12.254  0.3655  1.0162  0.3418
  968TIP3   OH224394   4.454   0.253   5.796 -0.0753 -0.7088 -0.0828
  968TIP3    H124395   4.454   0.247   5.892  0.0467 -0.3115 -0.0559
  968TIP3    H224396   4.448   0.163   5.766  2.3304 -1.0184  0.2736
  969TIP3   OH224397   2.703   0.696  13.226  0.0721  0.0565 -0.4344
  969TIP3    H124398   2.704   0.787  13.256  0.3846 -0.0229 -0.2050
  969TIP3    H224399   2.626   0.690  13.170 -1.4650 -0.2118  1.6620
  970TIP3   OH224400   2.340   2.453   3.043 -0.4701 -0.3494 -0.2467
  970TIP3    H124401   2.333   2.426   3.134 -1.1340 -2.0333 -0.7710
  970TIP3    H224402   2.405   2.394   3.005 -0.6847 -0.0901 -1.0274
  971TIP3   OH224403   6.721   6.752  14.162  0.9842  0.0639 -0.4136
  971TIP3    H124404   6.696   6.702  14.239 -0.0525  2.0659  0.5831
  971TIP3    H224405   6.816   6.758  14.167  0.8870  0.5343  0.9226
  972TIP3   OH224406   5.506   1.271   0.120  0.4555  0.1334 -0.2185
  972TIP3    H124407   5.512   1.182   0.155 -1.0922 -0.8807 -2.3992
  972TIP3    H224408   5.525   1.261   0.027  2.4208  2.4414 -0.1191
  973TIP3   OH224409   2.880   3.030  13.862 -0.3006  0.0282  0.0255
  973TIP3    H124410   2.958   3.003  13.910 -0.3788 -1.8319 -0.8538
  973TIP3    H224411   2.808   2.985  13.906 -1.1608  3.0371  1.8933
  974TIP3   OH224412   0.474   2.733   6.430  0.0101 -0.5562 -0.0406
  974TIP3    H124413   0.400   2.774   6.476 -0.0895  0.7302 -1.3123
  974TIP3    H224414   0.551   2.779   6.463 -0.1426  1.0904 -1.8377
  975TIP3   OH224415   1.841   5.281  17.186  0.0126  0.4327  0.0395
  975TIP3    H124416   1.820   5.201  17.137 -1.3296  0.4853  0.5142
  975TIP3    H224417   1.912   5.256  17.245 -0.2341 -0.3419  0.0079
  976TIP3   OH224418   2.074   5.495  13.457 -0.4366 -0.2623  0.1725
  976TIP3    H124419   2.130   5.443  13.514  0.2733 -1.7392 -1.8161
  976TIP3    H224420   1.986   5.484  13.493  0.3326  1.2096  2.6828
  977TIP3   OH224421   1.018   0.976  13.139  0.6543  0.6256  0.2263
  977TIP3    H124422   0.950   1.038  13.166  2.2236  2.0185  1.0841
  977TIP3    H224423   0.988   0.941  13.055 -2.3446 -0.6899  1.7684
  978TIP3   OH224424   2.541   3.737   5.154  0.0249 -0.0642  0.4094
  978TIP3    H124425   2.566   3.779   5.071 -3.4836 -2.1913 -1.8572
  978TIP3    H224426   2.454   3.772   5.173 -0.2692 -1.5534  1.8396
  979TIP3   OH224427   3.376   6.708  14.032  0.3366  0.0775 -0.3325
  979TIP3    H124428   3.374   6.622  13.991  2.4437 -0.1083 -0.0903
  979TIP3    H224429   3.449   6.753  13.990  0.1455  1.2381  0.5508
  980TIP3   OH224430   1.224   2.512   4.450 -0.2630 -0.4661  0.2150
  980TIP3    H124431   1.168   2.518   4.527 -0.4691 -0.8368  0.0967
  980TIP3    H224432   1.182   2.446   4.394  0.6144 -1.2099  0.4125
  981TIP3   OH224433   2.010   0.698  15.949  0.7052  0.1701 -0.1330
  981TIP3    H124434   1.926   0.654  15.963  1.2446 -0.8630 -0.0297
  981TIP3    H224435   2.032   0.735  16.035 -0.6073  2.2082 -0.6578
  982TIP3   OH224436   3.347   5.520  12.637 -0.1269 -0.3869 -0.2961
  982TIP3    H124437   3.401   5.543  12.713  0.7050 -0.3226 -0.8873
  982TIP3    H224438   3.378   5.578  12.567  0.3850 -1.6768 -1.1686
  983TIP3   OH224439   1.675   3.835  14.951 -0.4619  0.5703  0.6423
  983TIP3    H124440   1.606   3.817  14.888 -0.5963 -1.3819  1.3186
  983TIP3    H224441   1.716   3.916  14.920 -2.9601  1.6888  0.1797
  984TIP3   OH224442   5.642   2.163  13.753 -0.6012 -0.0059  0.1337
  984TIP3    H124443   5.656   2.085  13.806  0.3709  0.3717  0.4434
  984TIP3    H224444   5.729   2.189  13.725 -1.0158  0.4032 -0.7884
  985TIP3   OH224445   6.651   0.408   4.505 -0.7517  0.1994  0.4023
  985TIP3    H124446   6.640   0.385   4.413  0.0881 -2.7215  1.0027
  985TIP3    H224447   6.564   0.394   4.544 -0.6631 -0.3143  0.4174
  986TIP3   OH224448   4.275   0.132   4.081 -0.4444  0.2340  0.7382
  986TIP3    H124449   4.272   0.163   3.990 -0.7803 -1.5088  0.1257
  986TIP3    H224450   4.278   0.037   4.073 -3.5900 -0.0840  2.6264
  987TIP3   OH224451   2.265   6.667   4.768 -0.5219 -0.2160 -0.2219
  987TIP3    H124452   2.243   6.710   4.685 -2.6610  0.1667  0.4934
  987TIP3    H224453   2.263   6.573   4.748 -1.5760 -0.1432 -0.5029
  988TIP3   OH224454   1.099   4.553  12.579 -0.1843 -0.3556 -0.1429
  988TIP3    H124455   1.152   4.482  12.543  0.4740  0.5188 -0.9329
  988TIP3    H224456   1.136   4.568  12.667  0.1520 -0.5052 -0.2567
  989TIP3   OH224457   0.171   0.330  13.391  0.7060  0.5119  0.2297
  989TIP3    H124458   0.258   0.356  13.421  0.5466  1.2168  0.0975
  989TIP3    H224459   0.157   0.383  13.312 -0.2104  1.0748  0.7665
  990TIP3   OH224460   2.253   2.306   4.606  0.1228  0.0563  0.6763
  990TIP3    H124461   2.338   2.336   4.637  0.6074 -2.0734  1.5636
  990TIP3    H224462   2.208   2.276   4.686 -1.0058  0.1210  0.0720
  991TIP3   OH224463   5.658   4.444  16.036  0.1171  0.5250  0.2838
  991TIP3    H124464   5.577   4.396  16.017  0.4251 -0.8079  2.2248
  991TIP3    H224465   5.640   4.490  16.118  0.9087  1.2378  0.0687
  992TIP3   OH224466   5.084   1.355   3.800 -0.2587  0.8976  0.1902
  992TIP3    H124467   4.991   1.354   3.821 -0.1899  0.8293  0.4902
  992TIP3    H224468   5.093   1.423   3.733 -0.4831  1.0838  0.3490
  993TIP3   OH224469   2.790   6.453  12.900  0.6714  0.3777  0.2681
  993TIP3    H124470   2.763   6.542  12.924  0.8559  0.5653 -0.2111
  993TIP3    H224471   2.885   6.458  12.894  0.6813  0.1482  0.2325
  994TIP3   OH224472   0.286   3.851   1.952 -0.4328 -0.0180 -0.3341
  994TIP3    H124473   0.296   3.936   1.995 -0.0373  0.5283 -1.4815
  994TIP3    H224474   0.208   3.861   1.898 -1.0928 -0.7953  0.4605
  995TIP3   OH224475   4.004   0.453  15.049  0.0030  0.4516 -0.1031
  995TIP3    H124476   3.919   0.458  15.093  0.8986 -1.6845  1.9232
  995TIP3    H224477   4.043   0.539  15.063 -1.8211  1.4677 -1.0830
  996TIP3   OH224478   4.266   0.493  11.348 -0.2466 -0.0645  0.5466
  996TIP3    H124479   4.322   0.420  11.373  0.4205  0.0954 -0.4543
  996TIP3    H224480   4.326   0.566  11.334 -0.3883 -0.5845 -3.1698
  997TIP3   OH224481   3.804   0.228  11.081 -0.7880  0.2467  0.3837
  997TIP3    H124482   3.815   0.246  11.174  2.4427  1.4397 -0.1668
  997TIP3    H224483   3.877   0.169  11.059 -1.8267 -0.4622 -1.2897
  998TIP3   OH224484   1.800   1.199   2.523 -0.1217  0.8220 -0.0514
  998TIP3    H124485   1.776   1.254   2.598 -0.3112 -0.6606  1.0145
  998TIP3    H224486   1.895   1.191   2.529 -0.1276  0.7762 -0.0189
  999TIP3   OH224487   4.556   5.673  14.924  0.4080 -0.0375  0.5720
  999TIP3    H124488   4.549   5.689  15.018  1.4997 -0.9518  0.8219
  999TIP3    H224489   4.612   5.744  14.892  1.6520 -0.8420  0.9451
 1000TIP3   OH224490   5.222   4.901   0.655 -0.1616 -0.5690  0.4068
 1000TIP3    H124491   5.149   4.948   0.694  1.1995  1.1746  0.9545
 1000TIP3    H224492   5.182   4.840   0.593 -2.0759  0.0851  0.9767
 1001TIP3   OH224493   2.715   0.308  17.255  0.1302  0.2028 -0.5417
 1001TIP3    H124494   2.801   0.272  17.277  0.2398  0.3097 -0.7951
 1001TIP3    H224495   2.670   0.237  17.209  0.7758  0.7669 -2.0814
 1002TIP3   OH224496   2.990   5.238  12.029 -0.0580 -0.2101 -0.1148
 1002TIP3    H124497   3.014   5.146  12.017  0.6267 -0.2480  1.4034
 1002TIP3    H224498   2.992   5.251  12.124  0.3410  1.4944 -0.3446
 1003TIP3   OH224499   2.196   6.583  11.714 -0.6253 -0.1146  0.4850
 1003TIP3    H124500   2.218   6.491  11.728  0.1465 -0.3235 -1.8616
 1003TIP3    H224501   2.109   6.581  11.674 -0.9914  0.2220  1.2649
 1004TIP3   OH224502   2.747   6.332   1.977 -0.0611 -0.4003  0.0162
 1004TIP3    H124503   2.784   6.302   1.894 -1.7440  0.2478 -1.0108
 1004TIP3    H224504   2.722   6.251   2.022  0.4157 -0.7465 -0.3324
 1005TIP3   OH224505   3.471   5.740  14.295  0.1582 -0.2158  0.6265
 1005TIP3    H124506   3.435   5.656  14.264  1.3331 -0.1782 -0.9073
 1005TIP3    H224507   3.470   5.732  14.391 -0.1438 -1.8057  0.5103
 1006TIP3   OH224508   1.737   2.180   5.031 -0.3511 -0.2733  0.5678
 1006TIP3    H124509   1.822   2.200   4.991 -1.3467  2.0704 -0.4693
 1006TIP3    H224510   1.725   2.247   5.097 -1.7913 -0.0576  0.0999
 1007TIP3   OH224511   3.722   5.868   2.649  0.1166 -0.2654 -0.1270
 1007TIP3    H124512   3.647   5.829   2.692 -0.8639 -1.0603 -2.4493
 1007TIP3    H224513   3.764   5.795   2.603 -0.3956  0.9329 -2.6147
 1008TIP3   OH224514   4.055   2.572   0.967 -0.2323  0.1628  0.0000
 1008TIP3    H124515   4.106   2.623   1.031 -0.6687 -0.4202  0.8204
 1008TIP3    H224516   4.089   2.483   0.975  0.4350  0.2789 -1.3427
 1009TIP3   OH224517   2.784   3.537  14.223  0.7409  0.2419  0.1089
 1009TIP3    H124518   2.805   3.521  14.315  2.2149  1.3290 -0.0187
 1009TIP3    H224519   2.705   3.592  14.226  0.1141 -0.6679  0.6806
 1010TIP3   OH224520   3.235   1.468   6.518 -0.4135 -0.2138  0.2284
 1010TIP3    H124521   3.262   1.399   6.458 -2.2028 -1.5456  0.9011
 1010TIP3    H224522   3.161   1.511   6.474 -1.6556 -1.1216  1.3883
 1011TIP3   OH224523   2.682   4.574  16.193 -0.0393 -0.3359  0.0265
 1011TIP3    H124524   2.630   4.652  16.171 -0.2426 -0.7279 -0.9174
 1011TIP3    H224525   2.764   4.586  16.145  0.5816  0.0655  1.1621
 1012TIP3   OH224526   6.605   0.324   2.315 -0.5827 -0.3374  0.1868
 1012TIP3    H124527   6.533   0.261   2.325 -0.4184 -0.4257  0.8793
 1012TIP3    H224528   6.668   0.299   2.383 -1.3274  1.6770  1.6723
 1013TIP3   OH224529   3.808   5.826  16.216  0.2483  0.0398  0.3409
 1013TIP3    H124530   3.880   5.861  16.269  0.2156 -0.9591  1.0480
 1013TIP3    H224531   3.805   5.884  16.139  2.2701 -0.3222 -0.0401
 1014TIP3   OH224532   4.993   3.026   4.207  0.6466 -0.1032 -0.7360
 1014TIP3    H124533   4.984   2.955   4.270  1.5694 -0.9508 -1.5608
 1014TIP3    H224534   5.068   3.077   4.239  1.1770 -0.5907 -1.2222
 1015TIP3   OH224535   4.223   4.405  15.275  0.0943 -0.1944 -0.0982
 1015TIP3    H124536   4.276   4.461  15.332 -0.7561  1.1073 -0.5487
 1015TIP3    H224537   4.197   4.332  15.331  0.3165  0.4227  0.8355
 1016TIP3   OH224538   0.001   4.420   3.709 -0.6009 -0.0219 -0.1138
 1016TIP3    H124539  -0.029   4.486   3.772 -1.0496 -0.1179 -0.2186
 1016TIP3    H224540   0.066   4.465   3.656 -0.9865  0.3705 -0.2564
 1017TIP3   OH224541   0.352   3.303  13.334 -0.3102  0.1719 -0.3345
 1017TIP3    H124542   0.304   3.335  13.258  1.2587  0.2213 -1.3216
 1017TIP3    H224543   0.442   3.292  13.303  0.5408  1.0233  1.7312
 1018TIP3   OH224544   6.289   2.367  12.404  0.3534 -0.1381 -0.1889
 1018TIP3    H124545   6.287   2.393  12.496  1.5052 -1.8254  0.3151
 1018TIP3    H224546   6.273   2.449  12.357  0.6712  0.9160  1.4718
 1019TIP3   OH224547   0.961   5.381  15.968 -0.1001 -0.4587  0.2789
 1019TIP3    H124548   0.883   5.426  15.935  0.2774  2.2284  2.8311
 1019TIP3    H224549   0.932   5.340  16.049  0.5058 -1.7870 -0.1589
 1020TIP3   OH224550   0.585   2.402  15.744 -0.8837  0.3798 -0.5314
 1020TIP3    H124551   0.519   2.372  15.806 -0.4186 -0.8315 -0.6079
 1020TIP3    H224552   0.611   2.489  15.776 -0.5672 -0.2745  1.0443
 1021TIP3   OH224553   5.256   2.094  13.726 -0.0675  0.6692  0.5874
 1021TIP3    H124554   5.179   2.103  13.669 -0.3406 -1.5199  0.5583
 1021TIP3    H224555   5.330   2.113  13.668 -0.2030 -3.3765 -1.1463
 1022TIP3   OH224556   1.039   5.424  11.935  0.2628  0.0855 -0.3969
 1022TIP3    H124557   1.092   5.503  11.947 -1.3703  1.1041  0.2943
 1022TIP3    H224558   1.098   5.352  11.960  2.2912  0.9220 -2.5452
 1023TIP3   OH224559   2.694   2.684  12.219 -0.5553  0.8525  0.3697
 1023TIP3    H124560   2.649   2.648  12.142  0.1013 -0.9918  0.8235
 1023TIP3    H224561   2.765   2.735  12.182  0.2386 -0.6692 -0.2709
 1024TIP3   OH224562   2.046   1.758  15.460 -0.4465  1.0188 -0.6740
 1024TIP3    H124563   1.971   1.795  15.412 -0.3733  2.9480  0.6394
 1024TIP3    H224564   2.006   1.703  15.528 -0.7938  3.3656  1.1026
 1025TIP3   OH224565   2.554   3.291  17.118  0.5959  0.0818 -0.2828
 1025TIP3    H124566   2.533   3.219  17.058  0.5501 -2.4424  2.6395
 1025TIP3    H224567   2.487   3.357  17.099 -1.8768 -2.3259 -0.2902
 1026TIP3   OH224568   2.764   4.531   6.390  0.5021 -0.0032 -0.4053
 1026TIP3    H124569   2.776   4.623   6.414  0.7952 -0.3253  0.7054
 1026TIP3    H224570   2.694   4.500   6.447  0.8605 -0.6461 -0.3051
 1027TIP3   OH224571   6.045   5.987  15.111  0.1117 -0.0555 -0.2535
 1027TIP3    H124572   6.004   5.992  15.024  1.1280  0.5607 -0.7059
 1027TIP3    H224573   6.002   6.055  15.162  1.2792  1.2879 -1.0341
 1028TIP3   OH224574   6.624   0.382  17.045  0.3683  0.5362  0.0944
 1028TIP3    H124575   6.530   0.376  17.060  0.4657  0.5463  0.7262
 1028TIP3    H224576   6.638   0.334  16.963 -0.1788  0.5124  0.0124
 1029TIP3   OH224577   3.829   0.593   1.260 -0.4638 -0.3303 -0.5265
 1029TIP3    H124578   3.853   0.523   1.320  1.9450 -0.3132 -1.3959
 1029TIP3    H224579   3.741   0.570   1.230 -1.4715 -0.6313  2.5075
 1030TIP3   OH224580   5.651   1.649   0.088 -0.3609 -0.1063 -0.2621
 1030TIP3    H124581   5.601   1.606   0.018 -0.2446  0.7994 -0.9105
 1030TIP3    H224582   5.604   1.730   0.105 -0.3962 -0.3301  0.7344
 1031TIP3   OH224583   2.519   4.984   2.662 -0.5985  0.3253 -0.1357
 1031TIP3    H124584   2.594   4.925   2.666 -0.8462  0.0307  0.3060
 1031TIP3    H224585   2.489   4.980   2.571  0.6570  1.3709 -0.5931
 1032TIP3   OH224586   1.852   6.676   5.295 -0.0189 -0.1957 -0.7760
 1032TIP3    H124587   1.940   6.642   5.312  0.1428  0.2340 -0.7468
 1032TIP3    H224588   1.793   6.609   5.330  0.2991  0.2175  0.6075
 1033TIP3   OH224589   5.520   4.226   2.227 -0.2946  0.0803 -0.1545
 1033TIP3    H124590   5.443   4.235   2.284 -1.9679  2.0405 -2.5703
 1033TIP3    H224591   5.488   4.177   2.151  0.7532  1.0411 -1.2517
 1034TIP3   OH224592   6.400   1.938  14.946 -0.2694 -0.0554  0.1676
 1034TIP3    H124593   6.478   1.967  14.898 -0.9453  1.0089 -0.3001
 1034TIP3    H224594   6.335   2.006  14.931 -0.8305 -0.2146  1.7675
 1035TIP3   OH224595   3.511   6.445  12.788 -0.3789 -0.2304 -0.4531
 1035TIP3    H124596   3.464   6.412  12.865  3.5662  0.6611  2.4752
 1035TIP3    H224597   3.480   6.535  12.778 -1.3960 -0.5602 -0.3573
 1036TIP3   OH224598   1.585   4.405  12.083 -0.1233  0.2352  1.2465
 1036TIP3    H124599   1.492   4.383  12.077 -0.3440  1.3230  0.3161
 1036TIP3    H224600   1.620   4.347  12.150 -0.9600 -1.8771 -0.1012
 1037TIP3   OH224601   5.196   3.140   0.939  0.3215  0.5636 -0.9673
 1037TIP3    H124602   5.273   3.139   0.883  0.8717  1.3724 -0.2415
 1037TIP3    H224603   5.151   3.222   0.916 -0.0976  0.3034 -1.0867
 1038TIP3   OH224604   1.329   6.227  12.561 -0.3105  0.1713  0.4332
 1038TIP3    H124605   1.317   6.247  12.654 -2.5633 -0.8493  0.4107
 1038TIP3    H224606   1.277   6.293  12.515 -0.4721 -0.2778 -0.0335
 1039TIP3   OH224607   0.756   1.242   0.484  0.2981 -0.7780  0.1963
 1039TIP3    H124608   0.751   1.324   0.435  0.3049  0.5413  2.3543
 1039TIP3    H224609   0.664   1.216   0.495  0.3419 -1.9577 -1.8805
 1040TIP3   OH224610   1.727   6.708   5.748 -0.1788  0.3013 -0.1139
 1040TIP3    H124611   1.777   6.764   5.688  0.9808 -0.1558  0.4134
 1040TIP3    H224612   1.674   6.770   5.799 -1.0834  0.6969 -1.5145
 1041TIP3   OH224613   2.559   5.673   4.507  0.3628 -0.0569  0.6558
 1041TIP3    H124614   2.498   5.614   4.551 -0.3588 -0.4762 -0.8881
 1041TIP3    H224615   2.512   5.756   4.502  0.4357 -0.0160  0.6553
 1042TIP3   OH224616   5.790   0.805   6.173 -0.0777  0.0343  0.1468
 1042TIP3    H124617   5.711   0.753   6.191  0.2311  0.1724  1.9386
 1042TIP3    H224618   5.800   0.860   6.250  2.0380 -0.2868  0.1102
 1043TIP3   OH224619   4.757   6.297  17.004 -0.0179 -0.3380 -0.8683
 1043TIP3    H124620   4.845   6.328  17.028 -0.5257  0.6397 -0.2274
 1043TIP3    H224621   4.718   6.371  16.957 -1.1604 -0.0809  0.4421
 1044TIP3   OH224622   5.965   2.445  16.199 -0.1255 -0.6460  0.3938
 1044TIP3    H124623   6.053   2.427  16.232  0.5106  2.7739  0.7414
 1044TIP3    H224624   5.973   2.440  16.103  0.1912 -1.3009  0.4537
 1045TIP3   OH224625   4.082   5.839   1.625  0.0104  0.3826  0.6866
 1045TIP3    H124626   4.038   5.763   1.662  0.3478 -0.5982 -0.8508
 1045TIP3    H224627   4.171   5.835   1.661  0.4568 -0.7932 -0.4817
 1046TIP3   OH224628   1.436   5.424   6.696  0.3663 -0.3164 -0.8004
 1046TIP3    H124629   1.354   5.375   6.699 -0.3850  0.8930 -1.0967
 1046TIP3    H224630   1.501   5.362   6.664 -0.1962 -1.6157  0.5311
 1047TIP3   OH224631   4.489   5.854  14.172 -0.5643 -0.5284 -0.5097
 1047TIP3    H124632   4.547   5.789  14.212  0.1031  1.0090  1.0811
 1047TIP3    H224633   4.503   5.844  14.078  0.2652 -1.9921 -0.2475
 1048TIP3   OH224634   3.035   5.479  13.943 -0.3649  0.2117  0.0267
 1048TIP3    H124635   3.015   5.563  13.984 -1.2828  1.3759 -2.7017
 1048TIP3    H224636   3.130   5.480  13.932 -0.3782  0.9375 -0.0681
 1049TIP3   OH224637   6.627   3.373   2.745 -0.1071  0.4934 -0.6870
 1049TIP3    H124638   6.719   3.399   2.738  0.1370 -0.6066 -1.6872
 1049TIP3    H224639   6.578   3.450   2.715  0.5033  0.8350 -0.8173
 1050TIP3   OH224640   4.034   1.787  12.509 -0.5420  0.6092 -0.4285
 1050TIP3    H124641   3.948   1.828  12.500 -0.1334  1.6683  0.3115
 1050TIP3    H224642   4.025   1.730  12.585 -0.6546  0.5416 -0.4921
 1051TIP3   OH224643   0.879   5.062  12.552 -0.2464 -0.2607 -0.0464
 1051TIP3    H124644   0.802   5.027  12.507  1.2799 -3.7290 -0.1512
 1051TIP3    H224645   0.855   5.059  12.645 -0.8439  0.2651 -0.1814
 1052TIP3   OH224646   0.955   2.072  14.907 -0.2277 -0.0046 -0.3306
 1052TIP3    H124647   0.888   2.140  14.916 -0.7697 -0.5391 -0.2543
 1052TIP3    H224648   0.928   2.005  14.970 -0.3344 -0.8017 -1.2134
 1053TIP3   OH224649   4.493   2.472   3.043 -0.3304  0.4670 -0.1219
 1053TIP3    H124650   4.536   2.514   2.969 -0.0402  0.0683 -0.1835
 1053TIP3    H224651   4.519   2.380   3.037 -0.0635  0.4862  0.6485
 1054TIP3   OH224652   5.576   5.525  10.805  0.0712  0.0779  0.2587
 1054TIP3    H124653   5.545   5.446  10.850  0.7734 -0.3061  0.0901
 1054TIP3    H224654   5.659   5.545  10.849  0.0691  0.5085  0.0578
 1055TIP3   OH224655   2.905   0.380   3.931 -0.1067 -0.5536 -0.1070
 1055TIP3    H124656   2.900   0.474   3.949 -0.0939 -0.5954  0.1153
 1055TIP3    H224657   2.998   0.359   3.938 -0.0637 -0.5113 -0.5242
 1056TIP3   OH224658   1.347   0.401   6.449 -0.6897 -0.7323 -0.3114
 1056TIP3    H124659   1.279   0.358   6.397 -2.0499 -0.1503  0.9463
 1056TIP3    H224660   1.303   0.425   6.531  0.6425  1.0077 -0.0736
 1057TIP3   OH224661   3.875   3.898   3.344 -0.5665  0.1951  0.1628
 1057TIP3    H124662   3.898   3.889   3.252  0.3589 -1.7574  0.5497
 1057TIP3    H224663   3.884   3.810   3.380 -1.0533  0.8928  2.0996
 1058TIP3   OH224664   6.034   6.385  12.904  0.3295  0.6118 -0.0455
 1058TIP3    H124665   5.976   6.434  12.846 -0.1818  1.1521  0.9126
 1058TIP3    H224666   6.015   6.419  12.992  0.0140 -1.2632  0.6285
 1059TIP3   OH224667   5.254   5.544   1.639  0.4461 -0.3940 -0.3026
 1059TIP3    H124668   5.324   5.484   1.613 -0.0344 -1.1684  0.1888
 1059TIP3    H224669   5.278   5.572   1.728 -0.7711 -2.0408  0.5745
 1060TIP3   OH224670   0.402   5.820  17.174  0.2985  0.1190 -0.3108
 1060TIP3    H124671   0.423   5.913  17.162  0.2790 -0.0399 -1.6706
 1060TIP3    H224672   0.368   5.792  17.089 -0.2069 -1.0021  0.2511
 1061TIP3   OH224673   0.851   3.425   5.618 -0.6209 -0.0906  0.1041
 1061TIP3    H124674   0.756   3.433   5.605 -0.9990 -2.9351  0.6836
 1061TIP3    H224675   0.883   3.386   5.537  0.3627  2.4394 -0.7729
 1062TIP3   OH224676   0.964   2.419  15.935 -0.3292 -0.1215 -0.1046
 1062TIP3    H124677   0.920   2.347  15.981  0.9719 -1.1064 -0.3650
 1062TIP3    H224678   0.998   2.379  15.855  0.4426  0.7800 -0.2416
 1063TIP3   OH224679   4.063   6.496   1.863  0.4035 -0.0734  0.0362
 1063TIP3    H124680   4.116   6.569   1.832 -0.3865  0.3172 -0.4204
 1063TIP3    H224681   4.086   6.487   1.955 -0.2238  1.4067  0.3588
 1064TIP3   OH224682   5.832   2.177   6.470 -0.8702  0.4811  0.1199
 1064TIP3    H124683   5.809   2.270   6.471 -2.1502  0.2038 -0.8472
 1064TIP3    H224684   5.772   2.137   6.534 -1.2478  0.1407 -0.4401
 1065TIP3   OH224685   4.338   2.568   3.754  0.3453  0.7786 -0.5891
 1065TIP3    H124686   4.415   2.533   3.799  0.2919  0.3786 -0.8055
 1065TIP3    H224687   4.303   2.494   3.705 -0.8722  0.6666  0.4391
 1066TIP3   OH224688   4.638   5.558   2.626  0.5225 -0.2234 -0.0056
 1066TIP3    H124689   4.606   5.468   2.632  1.4444 -0.5577  0.0065
 1066TIP3    H224690   4.710   5.553   2.563  1.2151  0.3161  0.7297
 1067TIP3   OH224691   0.656   0.899   6.202  0.1934  0.0342  0.2303
 1067TIP3    H124692   0.692   0.831   6.259  3.0694  1.9831  0.8543
 1067TIP3    H224693   0.661   0.979   6.255  0.7533  1.4654 -1.9373
 1068TIP3   OH224694   0.998   1.487  16.921 -0.5887 -0.0964  0.0446
 1068TIP3    H124695   0.984   1.410  16.975 -2.9599 -0.8618 -1.5505
 1068TIP3    H224696   0.960   1.559  16.972 -1.8131 -0.6231 -0.1187
 1069TIP3   OH224697   6.613   6.149  16.434  0.3722 -0.3743 -0.0279
 1069TIP3    H124698   6.521   6.170  16.422  0.1109 -1.6138 -0.1567
 1069TIP3    H224699   6.657   6.194  16.362 -0.2213 -0.5196 -0.4821
 1070TIP3   OH224700   1.914   4.120  10.745 -0.0585  0.4303  0.6833
 1070TIP3    H124701   1.984   4.175  10.711  1.3149 -0.9613  1.1755
 1070TIP3    H224702   1.849   4.117  10.675  2.3254 -1.7170 -1.5749
 1071TIP3   OH224703   1.834   6.215   0.266 -0.2774 -0.1977 -0.1379
 1071TIP3    H124704   1.809   6.139   0.215 -1.4135 -0.0889  0.2608
 1071TIP3    H224705   1.756   6.270   0.270  0.8443  1.5664 -1.4212
 1072TIP3   OH224706   1.505   5.272   4.821  0.1303 -0.1395 -0.1179
 1072TIP3    H124707   1.570   5.299   4.757  0.8479 -1.6349 -0.0245
 1072TIP3    H224708   1.453   5.205   4.777  1.7017 -2.4311  1.3799
 1073TIP3   OH224709   2.624   2.657  13.364  0.7137 -0.0399  0.3016
 1073TIP3    H124710   2.572   2.730  13.397  0.9376  0.8738 -1.3124
 1073TIP3    H224711   2.609   2.587  13.427 -2.0005  0.3769  0.1753
 1074TIP3   OH224712   0.056   4.089  14.829  0.4188 -0.4467 -0.5482
 1074TIP3    H124713   0.118   4.018  14.809  0.7016 -0.1413 -0.7487
 1074TIP3    H224714   0.107   4.169  14.819  0.1986 -0.2288  0.0513
 1075TIP3   OH224715   4.532   6.559   1.077  0.2464 -0.1093 -0.0473
 1075TIP3    H124716   4.559   6.598   0.994 -0.9068 -0.8920 -0.8230
 1075TIP3    H224717   4.480   6.483   1.051  1.8109 -1.7217  1.4238
 1076TIP3   OH224718   0.270   3.767  14.736 -0.3297 -0.4687  0.6671
 1076TIP3    H124719   0.184   3.724  14.733 -1.1325  1.1609 -0.8184
 1076TIP3    H224720   0.317   3.732  14.660 -0.3603  0.0112  0.4264
 1077TIP3   OH224721   0.045   5.120  16.513  0.2520  0.5213  0.5204
 1077TIP3    H124722   0.030   5.075  16.596  1.2628  0.6478  0.7784
 1077TIP3    H224723   0.077   5.052  16.454 -0.8292  0.3521  0.1068
 1078TIP3   OH224724   4.283   2.462   0.462 -0.2021  0.0232 -0.3279
 1078TIP3    H124725   4.194   2.484   0.437 -0.5298 -0.2395  0.5964
 1078TIP3    H224726   4.304   2.523   0.533  0.0132 -0.5616  0.1073
 1079TIP3   OH224727   1.593   4.259   3.912  0.0616 -0.1797  0.6361
 1079TIP3    H124728   1.556   4.342   3.882  0.6385  0.8653  2.7750
 1079TIP3    H224729   1.550   4.242   3.996  1.1112 -1.2420  0.9710
 1080TIP3   OH224730   6.096   5.934   2.371  0.3253 -0.4453  0.1874
 1080TIP3    H124731   6.083   5.947   2.277 -1.0685  0.2409  0.4457
 1080TIP3    H224732   6.139   6.014   2.400  1.1106 -0.8262  0.0639
 1081TIP3   OH224733   0.925   5.598   0.488  0.4394  0.5027  0.4920
 1081TIP3    H124734   0.970   5.679   0.460 -0.0427  0.6999  0.2929
 1081TIP3    H224735   0.846   5.629   0.531 -0.8120  0.0855 -1.4379
 1082TIP3   OH224736   0.328   0.988  11.508  0.4147  0.1905  0.3239
 1082TIP3    H124737   0.351   0.912  11.455  0.8415  0.4024  0.2055
 1082TIP3    H224738   0.257   0.957  11.565 -2.6120  0.9372 -2.8900
 1083TIP3   OH224739   6.128   2.376   1.266  0.6679 -0.7558 -0.5899
 1083TIP3    H124740   6.063   2.405   1.330  2.2137 -0.7843  1.0431
 1083TIP3    H224741   6.151   2.454   1.216 -0.2661 -0.6503 -0.8526
 1084TIP3   OH224742   6.521   3.610  16.727 -0.5115  0.0485 -0.2311
 1084TIP3    H124743   6.487   3.526  16.694  0.2751  0.0721 -1.0790
 1084TIP3    H224744   6.461   3.632  16.799 -0.1114 -1.7767  0.7191
 1085TIP3   OH224745   1.788   4.112   1.746 -0.4034 -0.3207 -0.0794
 1085TIP3    H124746   1.834   4.166   1.683  1.7698  0.8390  2.4122
 1085TIP3    H224747   1.701   4.099   1.708 -0.0900  2.6936 -1.9643
 1086TIP3   OH224748   2.210   2.348  15.532  0.5123  0.4073 -0.6651
 1086TIP3    H124749   2.186   2.287  15.463 -0.3649  1.2683 -1.1447
 1086TIP3    H224750   2.140   2.341  15.597  0.3316  1.0030 -0.7914
 1087TIP3   OH224751   2.900   0.113   4.812 -0.4415 -0.0128  0.2424
 1087TIP3    H124752   2.820   0.167   4.814 -1.3560 -1.2698 -1.3291
 1087TIP3    H224753   2.899   0.065   4.895 -1.9786 -0.9446 -0.3052
 1088TIP3   OH224754   6.487   5.546   0.549  0.6914  0.2371  0.1592
 1088TIP3    H124755   6.472   5.558   0.643 -0.6089 -0.0715 -0.0022
 1088TIP3    H224756   6.542   5.620   0.524  0.8322  0.4635  1.1109
 1089TIP3   OH224757   4.382   2.904   4.255  0.0664  0.2517 -0.0894
 1089TIP3    H124758   4.298   2.899   4.301  1.7189  0.1475  3.0597
 1089TIP3    H224759   4.406   2.996   4.259  1.4483 -0.1578  1.6172
 1090TIP3   OH224760   1.174   1.812  12.686  0.2308  0.0602  0.3480
 1090TIP3    H124761   1.118   1.745  12.647  0.1403  0.7782 -0.7787
 1090TIP3    H224762   1.115   1.884  12.708  0.6977  0.8168 -0.8403
 1091TIP3   OH224763   0.150   6.698  16.028  0.0676  0.0101 -0.1576
 1091TIP3    H124764   0.214   6.708  15.958 -1.2270  1.6017 -1.1452
 1091TIP3    H224765   0.074   6.657  15.985  0.1331 -1.1672  0.8315
 1092TIP3   OH224766   5.479   5.225  13.879  0.5617 -0.6760 -0.7780
 1092TIP3    H124767   5.451   5.280  13.953 -1.6373 -1.7591 -0.7725
 1092TIP3    H224768   5.500   5.141  13.919 -1.3319 -1.4881 -1.4618
 1093TIP3   OH224769   1.397   0.516  17.198 -0.0927  0.5124 -0.0271
 1093TIP3    H124770   1.470   0.515  17.136 -0.9216 -0.2138 -1.0092
 1093TIP3    H224771   1.438   0.506  17.284  0.8843 -0.8881 -0.6479
 1094TIP3   OH224772   6.525   1.505  13.257  0.4834  0.2067 -0.1520
 1094TIP3    H124773   6.471   1.433  13.289 -0.3788  0.2168 -1.5214
 1094TIP3    H224774   6.611   1.466  13.243  0.7338  0.0932  1.6688
 1095TIP3   OH224775   2.324   0.967  12.052 -0.3946 -0.2931 -0.4240
 1095TIP3    H124776   2.308   0.935  12.141  3.2755  0.6517  0.6307
 1095TIP3    H224777   2.301   0.894  11.995 -3.3392 -0.7122  1.2206
 1096TIP3   OH224778   2.890   1.101   3.580 -0.0380 -0.1356 -0.1372
 1096TIP3    H124779   2.813   1.099   3.523  1.9531  1.5341 -3.0405
 1096TIP3    H224780   2.955   1.047   3.535  1.5216  1.0756  0.6062
 1097TIP3   OH224781   5.149   1.543  16.712  0.2201  0.3668  0.1025
 1097TIP3    H124782   5.144   1.611  16.644  0.1732 -0.3519 -0.6210
 1097TIP3    H224783   5.058   1.531  16.740  0.0267 -0.4727 -0.8551
 1098TIP3   OH224784   4.258   1.385   2.419 -0.3314  0.0525 -0.1582
 1098TIP3    H124785   4.170   1.419   2.402 -1.3918 -2.0605  0.9892
 1098TIP3    H224786   4.279   1.416   2.507 -0.0516  0.3022 -0.3128
 1099TIP3   OH224787   5.038   6.580   4.213 -0.1789 -0.0472 -0.7610
 1099TIP3    H124788   5.026   6.557   4.121  1.2531 -0.0655 -0.9577
 1099TIP3    H224789   5.123   6.625   4.216  0.1121 -0.6461  0.6519
 1100TIP3   OH224790   0.969   5.477   5.380 -0.0158 -0.2688 -0.2001
 1100TIP3    H124791   0.928   5.533   5.314  0.3328 -0.5720 -0.6816
 1100TIP3    H224792   0.908   5.476   5.453 -0.3872  0.1060 -0.5071
 1101TIP3   OH224793   0.351   4.930  13.414 -0.2131 -0.1637 -0.4751
 1101TIP3    H124794   0.373   4.875  13.489 -1.2636 -0.2221 -0.1931
 1101TIP3    H224795   0.389   5.015  13.434  1.0000 -0.6410 -0.6879
 1102TIP3   OH224796   6.458   2.401   5.394 -0.3214 -0.3632  0.7812
 1102TIP3    H124797   6.540   2.429   5.435 -0.1051 -2.4023  1.8410
 1102TIP3    H224798   6.472   2.415   5.300  0.5175  1.0645  1.1061
 1103TIP3   OH224799   0.922   5.978   6.929  0.2743 -0.2024 -0.2214
 1103TIP3    H124800   0.926   5.893   6.886  1.0717 -0.4437  0.3180
 1103TIP3    H224801   1.013   5.998   6.952  0.0114  0.4812  0.2531
 1104TIP3   OH224802   1.508   2.246   4.910 -0.9308  0.2569 -0.3704
 1104TIP3    H124803   1.594   2.214   4.938 -0.1062  1.6340 -1.2569
 1104TIP3    H224804   1.458   2.166   4.890 -0.4916 -0.6321  1.8671
 1105TIP3   OH224805   3.931   0.410  15.367  0.0591  0.0538 -0.3284
 1105TIP3    H124806   3.865   0.341  15.373 -0.0344  0.2245  0.8301
 1105TIP3    H224807   3.884   0.489  15.394  0.7761  0.1411  0.6978
 1106TIP3   OH224808   1.516   2.730  11.746  0.1968  0.5215 -0.1160
 1106TIP3    H124809   1.445   2.793  11.731 -1.6912 -1.2269  1.2255
 1106TIP3    H224810   1.578   2.746  11.675 -2.0787  1.3526 -1.9534
 1107TIP3   OH224811   3.823   4.963  16.939 -0.3024  0.3271 -0.4357
 1107TIP3    H124812   3.885   4.891  16.945 -2.7546 -1.9484 -1.3810
 1107TIP3    H224813   3.807   4.990  17.030  1.1368  0.1600 -0.1302
 1108TIP3   OH224814   3.761   0.833   1.367 -0.5325 -0.3575  0.6645
 1108TIP3    H124815   3.807   0.764   1.320 -0.9353  0.8957 -1.6450
 1108TIP3    H224816   3.668   0.812   1.357 -0.6144 -0.1819  1.0434
 1109TIP3   OH224817   0.277   5.180  13.807 -0.4568  0.2713 -0.1105
 1109TIP3    H124818   0.370   5.176  13.785 -0.1744 -0.7575  1.1981
 1109TIP3    H224819   0.272   5.149  13.897 -2.4592 -3.1093 -1.2893
 1110TIP3   OH224820   2.457   1.166  11.540 -0.3608 -0.5470 -0.1484
 1110TIP3    H124821   2.446   1.080  11.580  1.0654  0.3196  2.2577
 1110TIP3    H224822   2.547   1.190  11.562  0.1773  0.3828 -3.1858
 1111TIP3   OH224823   2.050   2.789  15.428  0.5904  0.7221  0.3652
 1111TIP3    H124824   2.036   2.872  15.473 -2.2806  0.6373 -0.2656
 1111TIP3    H224825   2.025   2.722  15.491 -1.8012  0.5426 -0.7259
 1112TIP3   OH224826   0.232   5.950  15.139 -0.0416 -0.4049 -0.0788
 1112TIP3    H124827   0.216   5.966  15.232  1.6440 -0.0726  0.1622
 1112TIP3    H224828   0.268   6.033  15.106 -1.1676 -0.3277 -1.1718
 1113TIP3   OH224829   4.044   3.858   2.790 -0.6190  0.1351  0.1666
 1113TIP3    H124830   4.033   3.888   2.880 -0.1074  1.0701 -0.0777
 1113TIP3    H224831   4.115   3.912   2.755  0.2484 -1.2807 -0.3139
 1114TIP3   OH224832   3.754   2.485  13.822  0.6721  0.4215  0.5131
 1114TIP3    H124833   3.801   2.434  13.757 -0.1967 -2.8271  2.3462
 1114TIP3    H224834   3.683   2.527  13.772  0.9043 -0.8162 -0.8935
 1115TIP3   OH224835   0.822   1.530  16.132 -0.3391 -0.2220 -0.1011
 1115TIP3    H124836   0.781   1.576  16.205  1.5508  3.1917 -1.0210
 1115TIP3    H224837   0.849   1.446  16.167 -2.2962  0.1077  2.2465
 1116TIP3   OH224838   6.161   3.448  16.177 -0.3587  0.4247 -0.1395
 1116TIP3    H124839   6.223   3.467  16.107  3.4499  0.8940  3.2143
 1116TIP3    H224840   6.140   3.355  16.166  0.8829  0.2828 -1.3996
 1117TIP3   OH224841   3.489   0.758   1.116  0.0993 -0.0025  0.3163
 1117TIP3    H124842   3.408   0.784   1.161 -0.1671  2.0215 -1.2415
 1117TIP3    H224843   3.477   0.790   1.027  2.6966  0.4679  0.1132
 1118TIP3   OH224844   0.809   5.771  15.324 -0.2731 -0.4252 -0.0314
 1118TIP3    H124845   0.823   5.801  15.234 -0.2222 -0.7753 -0.1400
 1118TIP3    H224846   0.726   5.812  15.350  0.4191  0.8360  0.2675
 1119TIP3   OH224847   3.650   0.720  13.847  0.4702  0.0185  0.1723
 1119TIP3    H124848   3.619   0.634  13.874 -0.0196  0.5348  1.2701
 1119TIP3    H224849   3.575   0.759  13.800  0.5703 -0.0211 -0.0188
 1120TIP3   OH224850   2.956   4.822  16.408 -0.2750 -0.1883  0.4010
 1120TIP3    H124851   2.880   4.831  16.466  0.7280 -0.5997  1.8347
 1120TIP3    H224852   3.018   4.888  16.441  0.6378 -1.0156  0.3418
 1121TIP3   OH224853   0.926   4.237   2.685  0.4879  0.5986 -0.2869
 1121TIP3    H124854   0.998   4.300   2.682  0.7292  0.3301 -0.2070
 1121TIP3    H224855   0.869   4.268   2.754 -0.3990  1.8025 -1.5367
 1122TIP3   OH224856   2.952   4.405   1.224 -0.0702 -0.0584 -0.5119
 1122TIP3    H124857   2.926   4.424   1.314 -2.5271 -0.8450 -1.0256
 1122TIP3    H224858   2.993   4.486   1.194  0.7308  0.2332  1.2782
 1123TIP3   OH224859   3.302   1.126   3.615  0.5899  0.6113  0.0610
 1123TIP3    H124860   3.389   1.099   3.644  0.1897 -1.3630 -0.5384
 1123TIP3    H224861   3.317   1.206   3.564  1.8872  1.0190  1.0704
 1124TIP3   OH224862   6.095   3.446  13.460  0.2821 -0.3537  0.1620
 1124TIP3    H124863   6.039   3.455  13.383 -0.7941 -1.4043  0.8087
 1124TIP3    H224864   6.160   3.515  13.450 -0.1560 -0.1513 -1.4230
 1125TIP3   OH224865   2.178   1.999  16.121 -0.2428 -0.2199  0.4820
 1125TIP3    H124866   2.201   1.907  16.136  0.7651 -0.1894 -0.8214
 1125TIP3    H224867   2.175   2.037  16.209 -1.6241 -1.7172  1.1009
 1126TIP3   OH224868   1.346   3.908  16.419  0.4230 -0.2150 -0.0306
 1126TIP3    H124869   1.320   3.852  16.346 -0.0855 -0.6537  0.4762
 1126TIP3    H224870   1.336   3.851  16.496 -1.8038  1.0975  0.6930
 1127TIP3   OH224871   1.332   1.576  17.211 -0.4096 -0.2418  0.1839
 1127TIP3    H124872   1.323   1.498  17.266 -0.3388  0.2725  0.9377
 1127TIP3    H224873   1.288   1.645  17.261  2.5328  1.0064  1.1932
 1128TIP3   OH224874   3.153   0.740  11.710  0.0389  0.2279 -0.1560
 1128TIP3    H124875   3.162   0.645  11.707 -0.4881  0.2262 -2.6721
 1128TIP3    H224876   3.242   0.773  11.724  0.3594 -0.5812 -0.3106
 1129TIP3   OH224877   5.921   3.281  14.997 -0.4076 -0.2228  0.3838
 1129TIP3    H124878   5.887   3.305  14.911  1.1690  0.2133 -0.1387
 1129TIP3    H224879   5.997   3.337  15.010  0.4908 -1.5899  1.2475
 1130TIP3   OH224880   0.556   1.822  13.501  0.1940 -0.1442 -0.2383
 1130TIP3    H124881   0.473   1.810  13.454 -0.9195 -0.8427  1.8161
 1130TIP3    H224882   0.543   1.904  13.550  1.5659  0.8986 -1.6029
 1131TIP3   OH224883   5.497   4.967  14.464 -0.3896 -0.5303  0.4008
 1131TIP3    H124884   5.548   5.032  14.414 -0.0546 -0.3251  0.9949
 1131TIP3    H224885   5.559   4.935  14.530 -1.1879  0.1014  1.4698
 1132TIP3   OH224886   3.536   5.693   5.777 -0.3011  0.0654  0.6390
 1132TIP3    H124887   3.608   5.699   5.714 -0.7576 -2.6214 -0.2060
 1132TIP3    H224888   3.457   5.711   5.726 -0.8449 -3.8439 -0.0495
 1133TIP3   OH224889   4.030   5.150  15.173  0.0006  0.2010 -0.2420
 1133TIP3    H124890   4.042   5.173  15.081  0.5050  1.6186  0.1791
 1133TIP3    H224891   4.095   5.082  15.190  0.7768  0.8490 -0.5979
 1134TIP3   OH224892   3.422   5.725  12.433  0.0173  0.1898 -0.2888
 1134TIP3    H124893   3.412   5.781  12.356  0.9378 -1.7115 -1.8241
 1134TIP3    H224894   3.517   5.723  12.448 -0.1905  0.9145  1.1830
 1135TIP3   OH224895   1.340   5.891  10.998  0.3851  0.0570 -0.1278
 1135TIP3    H124896   1.262   5.838  10.979 -0.5920  1.9458 -1.5075
 1135TIP3    H224897   1.305   5.979  11.016  2.1447  0.7682 -0.1267
 1136TIP3   OH224898   5.609   4.879  12.180 -0.2814 -0.0550  0.0243
 1136TIP3    H124899   5.654   4.852  12.260 -0.7059 -0.0742  0.2594
 1136TIP3    H224900   5.549   4.807  12.160 -0.5900  0.2039  0.0115
 1137TIP3   OH224901   0.826   3.326  17.264  0.4445  0.1268  0.4061
 1137TIP3    H124902   0.739   3.301  17.234  1.1080 -1.1414 -0.5252
 1137TIP3    H224903   0.820   3.330  17.359 -0.2018 -1.6225  0.4458
 1138TIP3   OH224904   3.063   3.933  14.748  0.7366  0.3113 -0.5059
 1138TIP3    H124905   3.110   3.994  14.805  0.0674 -0.1169  0.5354
 1138TIP3    H224906   3.051   3.854  14.802  0.8470 -0.4244 -1.5387
 1139TIP3   OH224907   5.186   2.507  11.352  0.4435  0.1179 -0.6320
 1139TIP3    H124908   5.153   2.419  11.370 -0.7808  0.1621 -2.4086
 1139TIP3    H224909   5.134   2.564  11.408 -0.6904 -0.0659 -1.4704
 1140TIP3   OH224910   4.163   0.679   5.753  0.1647 -0.8294 -0.5391
 1140TIP3    H124911   4.177   0.584   5.746  0.5290 -0.9536  1.5275
 1140TIP3    H224912   4.245   0.712   5.789 -0.3450  0.1414 -0.2651
 1141TIP3   OH224913   1.861   6.577   1.745  0.0405  0.5656  0.7317
 1141TIP3    H124914   1.795   6.531   1.694 -1.0025  0.8959  1.7685
 1141TIP3    H224915   1.886   6.652   1.689 -0.8665  0.7570  0.5733
 1142TIP3   OH224916   1.952   5.619  17.212  0.1737  0.0766  0.3628
 1142TIP3    H124917   1.970   5.587  17.300  0.1992 -2.7048 -0.6100
 1142TIP3    H224918   2.026   5.588  17.160 -0.9857 -0.2971 -1.0909
 1143TIP3   OH224919   1.229   5.661  13.015 -0.2686  0.0047  0.1561
 1143TIP3    H124920   1.272   5.738  12.979  1.7570 -0.6990  1.0241
 1143TIP3    H224921   1.208   5.607  12.939 -1.2895  1.1839 -0.4156
 1144TIP3   OH224922   0.820   2.836   4.433  0.1782  0.0113 -0.2072
 1144TIP3    H124923   0.819   2.746   4.401  1.9946 -1.8823  4.5567
 1144TIP3    H224924   0.911   2.851   4.460 -0.4784  2.6208  0.7210
 1145TIP3   OH224925   4.215   4.090  12.857  0.3030 -0.1906  0.2950
 1145TIP3    H124926   4.127   4.124  12.874  0.4762 -0.3132  1.5364
 1145TIP3    H224927   4.216   4.069  12.764 -1.1138 -0.5410  0.3481
 1146TIP3   OH224928   4.270   4.598  11.054  0.0590  0.1930  0.4600
 1146TIP3    H124929   4.265   4.673  10.994 -3.5284  0.5027  1.0301
 1146TIP3    H224930   4.219   4.530  11.011  2.2627 -1.5506  0.5341
 1147TIP3   OH224931   2.648   5.090  12.044  0.1923  0.1397  0.1539
 1147TIP3    H124932   2.610   5.133  12.121 -0.1546  0.7948 -0.3777
 1147TIP3    H224933   2.595   5.121  11.971  0.9029 -0.0096 -0.4264
 1148TIP3   OH224934   4.037   1.603   3.098 -0.0473  0.2227  0.5993
 1148TIP3    H124935   4.001   1.637   3.180  0.0877 -0.4084  0.9232
 1148TIP3    H224936   3.976   1.534   3.072 -0.1608  0.5107  0.0988
 1149TIP3   OH224937   0.891   6.484  17.106  0.4903  0.1909 -0.3595
 1149TIP3    H124938   0.924   6.419  17.168 -0.9127  1.3215  1.6264
 1149TIP3    H224939   0.869   6.433  17.028  0.2183 -1.6162  0.8461
 1150TIP3   OH224940   2.831   4.527  14.519 -0.1131  0.8398  0.1387
 1150TIP3    H124941   2.750   4.480  14.540 -0.6472  1.0195 -1.4585
 1150TIP3    H224942   2.899   4.479  14.566 -0.6636 -1.5427 -1.3959
 1151TIP3   OH224943   5.214   1.724   1.660  0.0471  0.1802  0.6043
 1151TIP3    H124944   5.208   1.649   1.720  0.6625 -0.8857 -0.6551
 1151TIP3    H224945   5.168   1.696   1.581  0.0107  1.2606  0.2269
 1152TIP3   OH224946   3.475   3.624  11.741 -0.0517 -0.7492  0.0718
 1152TIP3    H124947   3.467   3.714  11.709  0.5826 -0.3285  1.0744
 1152TIP3    H224948   3.511   3.576  11.666 -2.0198 -0.5445 -1.0408
 1153TIP3   OH224949   0.801   1.122  11.096  0.0111 -0.2779  0.0541
 1153TIP3    H124950   0.804   1.104  11.003 -0.1063  0.0856 -0.0220
 1153TIP3    H224951   0.744   1.198  11.104 -1.6395 -1.5662  0.6321
 1154TIP3   OH224952   4.234   3.313   2.560  0.1469 -1.0526  0.1452
 1154TIP3    H124953   4.231   3.294   2.654 -1.5742  1.2260  0.6147
 1154TIP3    H224954   4.148   3.288   2.528  0.5406 -1.3051 -0.7131
 1155TIP3   OH224955   6.684   2.242  15.636 -0.1515  0.4226 -0.1004
 1155TIP3    H124956   6.700   2.271  15.546  1.6348  1.0319  0.4014
 1155TIP3    H224957   6.593   2.268  15.653 -0.2593  0.9943 -1.4555
 1156TIP3   OH224958   0.462   0.791  14.595  0.2637 -0.2522 -0.0381
 1156TIP3    H124959   0.516   0.864  14.625 -0.1017  0.0522 -0.1074
 1156TIP3    H224960   0.508   0.713  14.625 -0.1592  0.0487  1.4269
 1157TIP3   OH224961   0.333   3.536   4.983  0.6740  1.1855 -0.0289
 1157TIP3    H124962   0.363   3.610   5.035 -0.0673  0.7410  1.0394
 1157TIP3    H224963   0.237   3.542   4.985  0.6355  1.2387 -1.4412
 1158TIP3   OH224964   5.390   2.347   0.651 -0.1613 -0.4825 -0.4939
 1158TIP3    H124965   5.348   2.430   0.673  0.0438  0.0010 -1.8489
 1158TIP3    H224966   5.438   2.322   0.730 -0.8711  0.2904  0.1853
 1159TIP3   OH224967   5.091   3.659   3.742  0.0852  0.2882 -0.2083
 1159TIP3    H124968   5.155   3.649   3.671  0.7441  1.1220  0.2531
 1159TIP3    H224969   5.007   3.640   3.701  0.4356  0.9123 -1.2539
 1160TIP3   OH224970   3.584   0.187   2.682  0.0602 -0.5015  0.6683
 1160TIP3    H124971   3.674   0.166   2.704 -0.3207 -1.1150  1.6962
 1160TIP3    H224972   3.532   0.144   2.750 -0.9306  1.1395  0.9753
 1161TIP3   OH224973   2.604   2.413  11.089  0.4323 -0.3539  0.3646
 1161TIP3    H124974   2.546   2.349  11.048 -0.5165  1.0237 -0.4718
 1161TIP3    H224975   2.679   2.418  11.031 -0.8568  1.5059 -1.1709
 1162TIP3   OH224976   6.140   0.003   1.202 -0.4063  0.1964  0.3160
 1162TIP3    H124977   6.163  -0.070   1.144 -1.3412 -1.4761  2.0066
 1162TIP3    H224978   6.218   0.015   1.257 -0.8661 -0.6741  1.1752
 1163TIP3   OH224979   6.339   4.723   2.280  0.1044  0.2450 -0.6322
 1163TIP3    H124980   6.251   4.742   2.311  0.7090 -0.4829  1.6330
 1163TIP3    H224981   6.391   4.799   2.306  0.2772  0.4315 -1.4865
 1164TIP3   OH224982   2.280   4.462  16.476 -0.0324 -0.1023  0.8938
 1164TIP3    H124983   2.364   4.431  16.441 -0.4619  2.0106 -2.1856
 1164TIP3    H224984   2.217   4.442  16.407 -1.6118  0.7331  2.0676
 1165TIP3   OH224985   1.023   3.022  11.394  0.6588  0.1781  0.6967
 1165TIP3    H124986   0.945   3.050  11.442  0.5008 -1.5381  1.4712
 1165TIP3    H224987   0.990   2.995  11.308  0.2693 -1.2592  1.2784
 1166TIP3   OH224988   0.724   3.503   5.964  0.3472 -0.1198  0.2155
 1166TIP3    H124989   0.777   3.537   5.891  2.2003  0.1341  1.6362
 1166TIP3    H224990   0.714   3.578   6.023 -1.0048 -0.3657  0.3024
 1167TIP3   OH224991   2.203   3.861   2.053 -0.4793  0.0316  0.1270
 1167TIP3    H124992   2.170   3.928   2.113 -2.4618 -0.1767 -0.6829
 1167TIP3    H224993   2.137   3.791   2.056 -0.4061 -0.1596 -1.9682
 1168TIP3   OH224994   1.467   6.654   0.994  0.5485 -0.0181  0.1051
 1168TIP3    H124995   1.418   6.612   1.065 -2.1392  0.8541 -1.1793
 1168TIP3    H224996   1.439   6.608   0.915  0.2288  1.8518 -0.8920
 1169TIP3   OH224997   0.737   4.383   3.284 -0.1552  0.0499 -0.2788
 1169TIP3    H124998   0.723   4.460   3.338  1.1754  0.1057 -0.0031
 1169TIP3    H224999   0.828   4.390   3.255 -1.0681  0.3895 -3.1293
 1170TIP3   OH225000   5.779   2.514  12.193  0.1718  0.3079 -0.0074
 1170TIP3    H125001   5.798   2.421  12.181  1.4819  0.4178  1.0548
 1170TIP3    H225002   5.690   2.516  12.228  0.9121 -0.6959  2.0177
 1171TIP3   OH225003   5.268   2.171   0.898 -0.5933 -0.3535 -0.1499
 1171TIP3    H125004   5.267   2.077   0.919 -1.1895 -0.2436  0.3484
 1171TIP3    H225005   5.236   2.213   0.978  1.0040  0.3830  0.1282
 1172TIP3   OH225006   4.813   2.682   1.237 -0.4454  0.3028  0.0895
 1172TIP3    H125007   4.748   2.657   1.172 -1.1505  0.9119  0.5552
 1172TIP3    H225008   4.763   2.702   1.316  0.5508 -2.5734  1.5173
 1173TIP3   OH225009   4.435   3.139  13.264 -0.2849 -0.3165 -0.1590
 1173TIP3    H125010   4.409   3.047  13.260 -0.4056 -0.2217 -2.4496
 1173TIP3    H225011   4.518   3.142  13.217  0.5820  0.4734  1.4075
 1174TIP3   OH225012   4.515   3.974  11.970  0.4991 -0.0810 -0.0190
 1174TIP3    H125013   4.469   4.052  12.000 -3.3169 -1.5379 -1.7414
 1174TIP3    H225014   4.509   3.912  12.042 -2.6297 -1.1487 -1.0945
 1175TIP3   OH225015   4.898   5.708  15.857 -0.0663 -0.4172 -0.1339
 1175TIP3    H125016   4.968   5.661  15.901  0.5901 -0.2591 -0.9955
 1175TIP3    H225017   4.820   5.655  15.871  0.2309 -0.6099  0.8023
 1176TIP3   OH225018   2.524   4.325  11.585 -0.3108 -0.2132  0.6004
 1176TIP3    H125019   2.539   4.340  11.678 -2.3284 -0.6492  1.0317
 1176TIP3    H225020   2.510   4.230  11.578 -0.8530 -0.0914 -0.0231
 1177TIP3   OH225021   0.844   2.568  14.813  0.3327  0.1682 -0.6006
 1177TIP3    H125022   0.781   2.581  14.742 -2.2439 -1.2593  1.3459
 1177TIP3    H225023   0.875   2.478  14.802  1.4284  0.5945 -1.0610
 1178TIP3   OH225024   4.789   6.367  12.085 -0.2546 -0.3605 -0.0062
 1178TIP3    H125025   4.797   6.381  12.179 -0.6086 -1.3472  0.1681
 1178TIP3    H225026   4.715   6.422  12.059  0.3022  0.4808  0.1606
 1179TIP3   OH225027   6.564   1.172   0.469 -0.3065 -0.2619 -0.4987
 1179TIP3    H125028   6.569   1.078   0.458  1.0149 -0.4300  1.2640
 1179TIP3    H225029   6.635   1.207   0.415 -0.0737 -0.3740 -0.2691
 1180TIP3   OH225030   3.056   0.370   2.519 -0.2603  0.1384  1.3938
 1180TIP3    H125031   3.111   0.413   2.584  2.2637 -0.1168 -0.5116
 1180TIP3    H225032   3.110   0.365   2.440 -3.4736  1.1339 -0.9995
 1181TIP3   OH225033   2.951   3.684  11.289  0.0812 -0.2856  0.4360
 1181TIP3    H125034   2.939   3.722  11.202 -0.9380 -0.1102  0.6482
 1181TIP3    H225035   2.938   3.590  11.276 -1.5168 -0.1105  0.6418
 1182TIP3   OH225036   2.920   1.439   4.005  0.0282 -0.4424  0.3533
 1182TIP3    H125037   2.897   1.364   3.950 -2.9190  0.4857  0.2293
 1182TIP3    H225038   2.866   1.429   4.083  0.7912  0.7104  1.0371
 1183TIP3   OH225039   0.523   0.705   6.070 -0.2349 -0.2586  0.0044
 1183TIP3    H125040   0.596   0.645   6.058 -1.0881 -2.1552  3.6197
 1183TIP3    H225041   0.563   0.787   6.098  0.7350 -0.0495 -1.9432
 1184TIP3   OH225042   5.818   5.323   1.479 -0.0743 -0.0150 -0.1282
 1184TIP3    H125043   5.763   5.306   1.402 -3.6395  0.2028  2.2887
 1184TIP3    H225044   5.839   5.237   1.514 -2.2861 -0.0309  1.2334
 1185TIP3   OH225045   1.238   5.468   4.157  0.1161 -0.4246 -0.1696
 1185TIP3    H125046   1.238   5.378   4.191 -1.0403 -0.8806 -1.3473
 1185TIP3    H225047   1.257   5.522   4.233 -0.6156 -1.5593  0.8316
 1186TIP3   OH225048   0.222   3.244  16.246  0.4343  0.4798 -0.1455
 1186TIP3    H125049   0.279   3.196  16.306  0.6662  0.1382 -0.6296
 1186TIP3    H225050   0.204   3.326  16.290 -1.3413 -0.7289  1.4733
 1187TIP3   OH225051   5.437   4.923  17.162 -0.1273  0.5334 -0.1077
 1187TIP3    H125052   5.492   4.964  17.229 -0.9073  1.8541 -0.2694
 1187TIP3    H225053   5.459   4.830  17.167 -0.1842  0.6152  2.0020
 1188TIP3   OH225054   3.545   3.694  17.167  0.8623 -0.1089  0.1720
 1188TIP3    H125055   3.569   3.782  17.139  0.8689 -0.4259 -0.8410
 1188TIP3    H225056   3.460   3.705  17.209  0.8646  0.3849  0.0532
 1189TIP3   OH225057   5.413   3.464  16.225 -0.3180  0.3659 -0.4470
 1189TIP3    H125058   5.401   3.447  16.132  0.3613 -2.0262 -0.1171
 1189TIP3    H225059   5.344   3.415  16.268 -0.0189  0.6529  0.3756
 1190TIP3   OH225060   3.698   0.632  13.478  0.9111 -1.0133  0.3260
 1190TIP3    H125061   3.727   0.602  13.564  1.2370 -2.7926 -0.3956
 1190TIP3    H225062   3.767   0.606  13.418  0.4626 -0.2107 -0.5617
 1191TIP3   OH225063   3.451   2.437   0.389 -0.1037 -0.2804  0.4292
 1191TIP3    H125064   3.483   2.520   0.425 -0.7623 -1.1856  3.2641
 1191TIP3    H225065   3.424   2.459   0.300  1.2783  2.1770  0.5512
 1192TIP3   OH225066   0.199   2.887   5.688 -0.5870  0.3304  0.2000
 1192TIP3    H125067   0.169   2.884   5.597 -0.7634 -0.5918  0.2872
 1192TIP3    H225068   0.295   2.892   5.682 -0.4374 -2.3741 -0.0115
 1193TIP3   OH225069   1.597   4.116   1.559  0.3803 -0.1115 -0.4144
 1193TIP3    H125070   1.643   4.155   1.485  2.2357 -1.5499 -0.0475
 1193TIP3    H225071   1.621   4.024   1.557 -1.5539 -0.6760  0.5151
 1194TIP3   OH225072   2.238   0.720  16.181  0.7148 -0.0343 -0.4038
 1194TIP3    H125073   2.238   0.653  16.112  0.0684  0.9765 -1.4048
 1194TIP3    H225074   2.330   0.733  16.201  0.8466 -1.2379 -0.1897
 1195TIP3   OH225075   4.534   3.452   2.074 -0.5011 -0.0167 -0.4643
 1195TIP3    H125076   4.628   3.458   2.053 -0.4413 -0.3177 -0.2779
 1195TIP3    H225077   4.530   3.396   2.151 -0.7755  0.6186 -0.0168
 1196TIP3   OH225078   2.082   3.541   0.373  0.0269 -0.6346  0.1874
 1196TIP3    H125079   2.166   3.545   0.328 -1.1247 -0.0585 -1.9779
 1196TIP3    H225080   2.055   3.449   0.366  0.6470 -0.9080  1.2485
 1197TIP3   OH225081   4.793   6.795   4.253 -0.4392 -0.2932 -0.2126
 1197TIP3    H125082   4.806   6.766   4.343 -2.3990 -1.6288 -0.3136
 1197TIP3    H225083   4.822   6.722   4.199 -1.3312 -0.3707 -0.5991
 1198TIP3   OH225084   0.695   2.107  15.702 -0.1319 -0.2335 -0.0770
 1198TIP3    H125085   0.671   2.182  15.757  1.5107  0.0274  0.3085
 1198TIP3    H225086   0.788   2.121  15.681 -0.0956 -1.5994 -0.8997
 1199TIP3   OH225087   0.774   0.376  14.589  0.3130 -0.2339  0.0909
 1199TIP3    H125088   0.828   0.408  14.662  0.3744  1.5645 -0.7171
 1199TIP3    H225089   0.751   0.455  14.541 -0.9863 -1.2633 -0.9880
 1200TIP3   OH225090   3.480   3.593  12.770 -0.1029 -0.6004  0.7835
 1200TIP3    H125091   3.384   3.598  12.779 -0.0723  0.2048  0.6878
 1200TIP3    H225092   3.495   3.526  12.704 -0.6630  0.5107 -0.4985
 1201TIP3   OH225093   3.979   1.426   2.432 -0.0321 -0.2241  0.0352
 1201TIP3    H125094   3.964   1.517   2.460 -1.2942  0.2834 -2.1525
 1201TIP3    H225095   3.977   1.376   2.513 -5.4242  0.9417  0.7906
 1202TIP3   OH225096   6.358   2.869  13.726  0.4820 -0.3893 -0.2449
 1202TIP3    H125097   6.406   2.795  13.763  2.4365  1.1368  0.3650
 1202TIP3    H225098   6.334   2.923  13.802  0.5423  0.4463 -0.8100
 1203TIP3   OH225099   5.386   0.498   0.070 -0.3240 -0.9396 -0.1061
 1203TIP3    H125100   5.458   0.468   0.126  0.8531  0.7847 -0.6391
 1203TIP3    H225101   5.400   0.452  -0.013  0.9337  0.3370 -0.6243
 1204TIP3   OH225102   2.321   3.609  12.390  0.5669  0.4293 -0.3256
 1204TIP3    H125103   2.330   3.572  12.478 -1.2239  2.3177  0.7142
 1204TIP3    H225104   2.284   3.538  12.338  1.3895 -0.6297  0.4998
 1205TIP3   OH225105   5.162   0.708   3.509  0.6187 -0.1422  0.2274
 1205TIP3    H125106   5.094   0.764   3.472  1.3277  0.5059 -0.0991
 1205TIP3    H225107   5.119   0.623   3.520 -0.7012  0.6616  1.4939
 1206TIP3   OH225108   5.522   2.235  14.897 -0.3156  0.1956 -0.2252
 1206TIP3    H125109   5.553   2.277  14.817 -1.5307  1.1262 -0.2208
 1206TIP3    H225110   5.601   2.214  14.946  0.4545 -0.6673 -1.8100
 1207TIP3   OH225111   1.698   0.010  14.785  0.0112 -0.2919  0.5856
 1207TIP3    H125112   1.643   0.011  14.707 -0.5407 -0.8743  0.9592
 1207TIP3    H225113   1.775  -0.041  14.760  0.4161  0.5721  0.0447
 1208TIP3   OH225114   1.357   5.036  15.100  0.1078  0.0232 -0.2456
 1208TIP3    H125115   1.410   4.974  15.150  0.1600  1.0341  0.9702
 1208TIP3    H225116   1.290   4.981  15.058  0.2998 -0.8948  0.6144
 1209TIP3   OH225117   4.308   0.709  14.842  0.2705 -0.5292  0.1024
 1209TIP3    H125118   4.217   0.681  14.837  0.3513 -0.7636 -0.0689
 1209TIP3    H225119   4.347   0.652  14.908 -0.4439  1.5971  2.4140
 1210TIP3   OH225120   4.607   1.292  10.517 -0.6305  0.0282  0.7331
 1210TIP3    H125121   4.687   1.297  10.568  0.6503  0.7780 -1.3199
 1210TIP3    H225122   4.636   1.273  10.428 -2.5759  2.5650 -0.4884
 1211TIP3   OH225123   2.850   1.368   3.650 -0.4163 -0.8413  0.7495
 1211TIP3    H125124   2.789   1.335   3.584 -0.2795 -0.6109  0.5053
 1211TIP3    H225125   2.906   1.293   3.670  1.4266 -0.1449 -1.5576
 1212TIP3   OH225126   1.417   2.584   0.482  0.0100  0.4810 -0.2659
 1212TIP3    H125127   1.331   2.568   0.521  1.0047  0.2939  1.9595
 1212TIP3    H225128   1.419   2.529   0.404 -0.8731 -1.6054  1.1484
 1213TIP3   OH225129   0.165   5.700  13.228 -0.2297 -0.2677 -0.1847
 1213TIP3    H125130   0.175   5.794  13.237 -0.0902 -0.3435  0.4316
 1213TIP3    H225131   0.207   5.663  13.306 -0.7264 -0.8156 -0.1712
 1214TIP3   OH225132   3.202   6.754  16.336  0.2446 -0.1213  0.2952
 1214TIP3    H125133   3.150   6.748  16.417  1.5267 -0.4159  1.1190
 1214TIP3    H225134   3.277   6.697  16.352  0.4854 -0.2034 -1.1303
 1215TIP3   OH225135   6.010   5.597  15.966 -0.2058  0.6901 -0.1027
 1215TIP3    H125136   6.097   5.591  15.927  0.5678  2.5703  1.2178
 1215TIP3    H225137   6.016   5.546  16.046 -0.3845  0.5976 -0.1498
 1216TIP3   OH225138   1.195   3.636  14.835 -0.0197 -0.4631  0.0729
 1216TIP3    H125139   1.287   3.614  14.822 -0.2374 -2.1311  1.1975
 1216TIP3    H225140   1.191   3.731  14.824  1.6000 -0.5227 -1.2551
 1217TIP3   OH225141   5.248   6.379   2.446 -0.0843  0.0464  0.5021
 1217TIP3    H125142   5.174   6.335   2.489  0.6490 -0.4164  1.2896
 1217TIP3    H225143   5.257   6.333   2.362 -0.1564 -0.4489  0.7624
 1218TIP3   OH225144   6.498   1.041   1.643 -0.3149  0.0681  0.3026
 1218TIP3    H125145   6.450   1.042   1.726 -0.7166  1.4806  0.0800
 1218TIP3    H225146   6.557   1.116   1.648 -1.5184  1.1857 -1.3293
 1219TIP3   OH225147   3.136   4.726  13.994 -0.0981 -0.0945  0.2719
 1219TIP3    H125148   3.059   4.769  14.031 -0.5268  0.3795 -1.1570
 1219TIP3    H225149   3.157   4.776  13.916  1.5443 -0.3476  0.5244
 1220TIP3   OH225150   2.287   4.274  15.158  0.5544 -0.0193  0.2965
 1220TIP3    H125151   2.260   4.283  15.067 -2.1115 -3.7105  0.6183
 1220TIP3    H225152   2.329   4.187  15.163  1.2397  0.3831  2.4544
 1221TIP3   OH225153   1.456   0.913   0.012 -0.1709  0.0949  0.7097
 1221TIP3    H125154   1.483   0.851   0.079 -1.4308  0.1271  1.2605
 1221TIP3    H225155   1.435   0.993   0.061  2.3338  1.2950 -0.0634
 1222TIP3   OH225156   2.603   0.197   2.371  0.4186  0.2896 -0.8524
 1222TIP3    H125157   2.539   0.130   2.394  0.5257 -0.2113 -1.9616
 1222TIP3    H225158   2.684   0.148   2.356  0.8575  0.8265 -0.3036
 1223TIP3   OH225159   1.240   5.340   5.378  0.3644 -0.1125 -0.3463
 1223TIP3    H125160   1.249   5.295   5.462  0.5602  2.5797  1.1123
 1223TIP3    H225161   1.175   5.408   5.394 -0.7583 -0.5662 -2.8218
 1224TIP3   OH225162   3.814   6.050   2.867  0.9027 -0.8351  0.1199
 1224TIP3    H125163   3.819   6.025   2.775  1.0014 -0.9799  0.1637
 1224TIP3    H225164   3.753   5.987   2.906  1.2035 -1.0558  0.2438
 1225TIP3   OH225165   3.229   2.324  15.114 -0.4811  0.2573 -0.6820
 1225TIP3    H125166   3.220   2.232  15.141 -1.6171  0.5903  0.0806
 1225TIP3    H225167   3.140   2.358  15.116 -0.3235  0.8601 -2.8434
 1226TIP3   OH225168   0.874   3.968   2.991  0.3997  0.8456  1.1645
 1226TIP3    H125169   0.832   3.989   2.907  2.2270 -0.2042 -0.0463
 1226TIP3    H225170   0.808   3.918   3.038  0.6468 -1.8936 -1.2313
 1227TIP3   OH225171   4.650   2.989  16.612 -0.1101  0.5025 -0.5781
 1227TIP3    H125172   4.675   3.060  16.671 -0.5571  0.6219 -0.5313
 1227TIP3    H225173   4.571   3.020  16.569 -1.3816 -0.7536  0.8189
 1228TIP3   OH225174   1.929   5.503  15.056 -0.8846 -0.0963  0.3050
 1228TIP3    H125175   1.953   5.594  15.072 -1.4770  0.2874 -0.8833
 1228TIP3    H225176   1.983   5.476  14.982 -0.5908 -0.7577  0.7618
 1229TIP3   OH225177   3.603   2.234  15.874 -0.2209  0.4787 -0.1419
 1229TIP3    H125178   3.661   2.198  15.807 -0.0950 -0.0501  0.2512
 1229TIP3    H225179   3.660   2.291  15.927  0.0149 -0.2834  0.4348
 1230TIP3   OH225180   6.199   4.146   3.476 -0.2650  0.4013  0.3062
 1230TIP3    H125181   6.214   4.097   3.396 -0.6572 -1.7054  1.4948
 1230TIP3    H225182   6.106   4.167   3.475  0.1193  2.1778 -0.7595
 1231TIP3   OH225183   4.801   1.903   3.115  0.2390 -0.4016  0.0410
 1231TIP3    H125184   4.764   1.835   3.171 -0.4652  0.2736  0.3989
 1231TIP3    H225185   4.790   1.984   3.164 -0.1967  0.1724 -0.9776
 1232TIP3   OH225186   5.144   3.044  15.843 -0.0831  0.0663  0.0230
 1232TIP3    H125187   5.052   3.037  15.868  0.1692 -1.9865  0.4953
 1232TIP3    H225188   5.142   3.062  15.749 -0.9821 -0.3858 -0.0505
 1233TIP3   OH225189   3.964   0.141  10.740  0.2570  0.4074  0.0874
 1233TIP3    H125190   3.945   0.219  10.689  0.4823 -0.9866 -2.2165
 1233TIP3    H225191   4.060   0.136  10.742  0.2412 -0.1588 -0.3534
 1234TIP3   OH225192   0.316   3.035  13.047  0.3909  0.1848  0.0462
 1234TIP3    H125193   0.371   3.084  12.987 -0.3203 -0.2256 -0.9650
 1234TIP3    H225194   0.233   3.083  13.049 -0.4459 -1.1576 -1.2571
 1235TIP3   OH225195   4.170   0.610  17.056 -0.3621  0.4382  0.2726
 1235TIP3    H125196   4.207   0.556  17.126 -1.7332  1.8642  2.1520
 1235TIP3    H225197   4.243   0.627  16.997  0.7691 -0.9832  1.2253
 1236TIP3   OH225198   1.359   2.492  15.627 -0.6959  0.2015  0.1115
 1236TIP3    H125199   1.292   2.556  15.605 -0.6185 -0.5294 -2.3572
 1236TIP3    H225200   1.440   2.544  15.634 -0.4155  0.2933 -2.9951
 1237TIP3   OH225201   4.208   5.987   4.821  0.4013  0.1872  0.0041
 1237TIP3    H125202   4.177   5.896   4.825  1.2254 -0.0492  1.4583
 1237TIP3    H225203   4.133   6.039   4.850 -0.3206  0.0398 -1.5700
 1238TIP3   OH225204   6.639   3.002  17.285 -0.2670  0.3463  0.1908
 1238TIP3    H125205   6.708   3.050  17.331  0.3182 -0.0695 -0.2671
 1238TIP3    H225206   6.566   3.001  17.348  0.3048  0.3492  0.8622
 1239TIP3   OH225207   5.419   6.055  13.184 -0.7219  0.1555 -0.3541
 1239TIP3    H125208   5.429   6.015  13.097  0.5374 -1.5970  0.5895
 1239TIP3    H225209   5.334   6.023  13.215 -0.8488  0.2228 -0.6267
 1240TIP3   OH225210   2.258   6.482   5.781 -0.3549 -0.3160 -0.2272
 1240TIP3    H125211   2.165   6.460   5.776 -0.2998 -0.5055 -0.4487
 1240TIP3    H225212   2.268   6.524   5.866 -1.2144  2.5435 -1.4928
 1241TIP3   OH225213   2.575   5.427  14.267  0.0505 -0.1185 -0.5863
 1241TIP3    H125214   2.561   5.444  14.360  1.1278  0.4776 -0.5261
 1241TIP3    H225215   2.611   5.508  14.233  0.3907 -0.5928 -1.3631
 1242TIP3   OH225216   4.977   4.485   0.468  0.5764  0.3124  0.0660
 1242TIP3    H125217   4.947   4.478   0.558 -1.9196 -1.4015 -0.8349
 1242TIP3    H225218   4.898   4.507   0.418  2.3678  3.7358 -1.4393
 1243TIP3   OH225219   6.170   0.870   5.991  1.0203  0.5841  0.2430
 1243TIP3    H125220   6.191   0.843   6.080  1.1937 -0.9181 -0.2511
 1243TIP3    H225221   6.075   0.858   5.983  0.7244  2.3994  0.7802
 1244TIP3   OH225222   2.370   2.270  17.028 -0.7286 -0.1692 -0.3607
 1244TIP3    H125223   2.406   2.240  17.112 -1.6530  2.1910  0.9384
 1244TIP3    H225224   2.438   2.251  16.964  0.7292 -0.4380  1.2266
 1245TIP3   OH225225   1.392   0.857  13.614 -0.2593  1.2543 -0.2430
 1245TIP3    H125226   1.297   0.858  13.603 -0.3518 -1.4204 -0.0228
 1245TIP3    H225227   1.408   0.788  13.679  1.9140  0.5486 -1.4655
 1246TIP3   OH225228   4.538   0.570  12.842 -0.8420  0.3814 -0.2704
 1246TIP3    H125229   4.524   0.557  12.749 -1.0855  1.5773 -0.4101
 1246TIP3    H225230   4.629   0.545  12.857 -0.3170  1.7100 -1.1397
 1247TIP3   OH225231   0.538   1.868   3.446  0.2280 -0.0621  0.6925
 1247TIP3    H125232   0.561   1.960   3.441  1.2308 -0.1264  3.3643
 1247TIP3    H225233   0.611   1.822   3.404 -0.4064  0.3484 -0.8922
 1248TIP3   OH225234   2.911   0.639   0.822 -0.1890 -0.2917 -0.4122
 1248TIP3    H125235   3.002   0.644   0.793 -0.3560  1.6769 -0.6451
 1248TIP3    H225236   2.915   0.590   0.904  1.2533  0.7832  0.1819
 1249TIP3   OH225237   4.075   6.029   3.477  0.3944 -0.1822 -0.9798
 1249TIP3    H125238   4.050   6.105   3.528 -2.0174 -0.2304 -2.0437
 1249TIP3    H225239   4.114   6.065   3.397  0.0945 -0.0870 -1.0807
 1250TIP3   OH225240   5.825   6.182   2.218 -0.5966  0.0064  0.3789
 1250TIP3    H125241   5.811   6.253   2.155 -0.1067 -0.2474 -0.0171
 1250TIP3    H225242   5.899   6.133   2.183 -3.1364 -2.8246 -1.2753
 1251TIP3   OH225243   2.036   0.063  12.012 -0.3439  0.1228 -0.2099
 1251TIP3    H125244   2.095   0.097  11.944 -1.3916 -0.3973 -1.3922
 1251TIP3    H225245   2.046   0.124  12.085  1.3835  0.2544 -0.5283
 1252TIP3   OH225246   4.200   4.140  15.940  0.0317 -0.7689 -0.4117
 1252TIP3    H125247   4.192   4.045  15.937  0.8259 -0.8075 -2.0325
 1252TIP3    H225248   4.110   4.171  15.946 -0.1568 -1.6465  1.4880
 1253TIP3   OH225249   2.300   5.048   5.740 -0.2392 -0.0857 -0.0483
 1253TIP3    H125250   2.339   5.011   5.819 -0.2843  0.7797  0.3836
 1253TIP3    H225251   2.250   4.975   5.702  0.3902 -0.7134  0.3135
 1254TIP3   OH225252   4.492   1.164  11.455 -0.3595  0.3154 -0.1783
 1254TIP3    H125253   4.527   1.113  11.528 -1.1485 -1.0689 -0.7566
 1254TIP3    H225254   4.525   1.253  11.470  1.8001 -0.5396  0.3261
 1255TIP3   OH225255   2.322   6.359   4.757 -0.0875 -0.2193 -0.0038
 1255TIP3    H125256   2.338   6.334   4.847 -0.4277 -0.6332 -0.0592
 1255TIP3    H225257   2.405   6.397   4.727 -0.0756  0.2207  0.5809
 1256TIP3   OH225258   3.677   4.839  14.958  0.3916 -0.0245  0.5092
 1256TIP3    H125259   3.624   4.896  14.902 -0.4331 -0.7941  0.5045
 1256TIP3    H225260   3.721   4.780  14.897 -0.9745 -1.2577  0.7085
 1257TIP3   OH225261   3.277   4.304  14.103  0.2648 -0.2060 -0.2394
 1257TIP3    H125262   3.191   4.282  14.137  0.4651 -2.4555 -1.0657
 1257TIP3    H225263   3.265   4.307  14.008  1.3843 -2.1737 -0.4830
 1258TIP3   OH225264   6.672   6.633   4.140 -0.7930 -0.2681 -0.0644
 1258TIP3    H125265   6.747   6.687   4.113 -0.6430  0.6420  2.0483
 1258TIP3    H225266   6.596   6.680   4.107 -0.5182 -0.1818 -0.5766
 1259TIP3   OH225267   3.510   6.812  12.248 -0.2599 -0.1337  0.4904
 1259TIP3    H125268   3.528   6.848  12.334 -0.9511  0.1478  0.5209
 1259TIP3    H225269   3.592   6.823  12.199  0.0993 -0.2045  1.0745
 1260TIP3   OH225270   3.589   0.737   2.109  0.3016  0.2308  0.3891
 1260TIP3    H125271   3.573   0.644   2.090  3.2778  0.4291 -3.5402
 1260TIP3    H225272   3.635   0.736   2.193 -1.6506 -1.6101  1.5087
 1261TIP3   OH225273   1.619   6.732  11.840 -0.1578 -0.0299  0.1417
 1261TIP3    H125274   1.595   6.666  11.775 -1.0489 -0.9771  1.4246
 1261TIP3    H225275   1.715   6.737  11.835 -0.2066 -0.1048 -1.2033
 1262TIP3   OH225276   0.679   1.046  16.041 -0.4967  0.1511  0.3092
 1262TIP3    H125277   0.709   1.095  16.118 -2.0243 -1.2578  1.8316
 1262TIP3    H225278   0.749   0.984  16.022 -0.2531  0.2989  0.7393
 1263TIP3   OH225279   6.700   1.912   1.576 -0.1466  0.0463  0.0845
 1263TIP3    H125280   6.705   1.914   1.672  1.2225 -1.8057  0.0675
 1263TIP3    H225281   6.620   1.862   1.558 -0.9252  1.2247  0.2629
 1264TIP3   OH225282   4.793   0.150   1.787 -0.0806 -0.1471 -0.3406
 1264TIP3    H125283   4.848   0.092   1.839  0.7435 -0.4413 -1.5070
 1264TIP3    H225284   4.848   0.173   1.712 -1.1703  0.4280 -0.9719
 1265TIP3   OH225285   1.566   4.086   6.135  0.5224  0.2751 -0.1287
 1265TIP3    H125286   1.530   4.043   6.058  0.0641  1.2451 -0.4503
 1265TIP3    H225287   1.492   4.131   6.175  1.0016  0.7573  0.2228
 1266TIP3   OH225288   4.552   4.040  15.770 -0.4348 -0.7450 -0.3962
 1266TIP3    H125289   4.620   4.103  15.795 -0.0182 -1.2536 -0.2414
 1266TIP3    H225290   4.470   4.084  15.792 -0.0955 -1.0490  1.5927
 1267TIP3   OH225291   3.395   0.937  17.222  0.0814 -0.5566 -0.3816
 1267TIP3    H125292   3.401   0.958  17.315 -0.8679 -0.5843 -0.3107
 1267TIP3    H225293   3.396   0.842  17.218  1.1157 -0.5447 -0.4743
 1268TIP3   OH225294   4.777   1.388   2.344 -0.0356  0.1836  0.3206
 1268TIP3    H125295   4.747   1.434   2.422 -2.3568 -0.2000 -0.3258
 1268TIP3    H225296   4.733   1.433   2.271  2.8478  1.1841 -0.9016
 1269TIP3   OH225297   6.366   4.084   0.925 -0.2015 -0.8941 -0.4760
 1269TIP3    H125298   6.363   4.010   0.864 -0.9996 -1.3456  0.1044
 1269TIP3    H225299   6.325   4.156   0.877  0.4039 -0.8697 -0.9711
 1270TIP3   OH225300   1.645   6.809   0.129  0.5219  0.7323 -0.0846
 1270TIP3    H125301   1.714   6.750   0.102 -0.6976 -0.3656 -0.8773
 1270TIP3    H225302   1.618   6.777   0.215 -0.8668 -0.5677 -0.9719
 1271TIP3   OH225303   4.120   3.686  15.169 -0.4580  0.0351 -0.4003
 1271TIP3    H125304   4.080   3.675  15.255  0.6310 -1.3819 -0.0402
 1271TIP3    H225305   4.142   3.596  15.142  2.8868  0.7854 -0.3470
 1272TIP3   OH225306   4.729   2.953   0.531  0.3077 -0.2081  0.2219
 1272TIP3    H125307   4.786   2.918   0.599  0.1993 -2.2860 -0.7268
 1272TIP3    H225308   4.783   3.015   0.483  1.0718 -0.4653  0.7455
 1273TIP3   OH225309   5.431   3.407   2.102  0.6607  0.5646 -0.0062
 1273TIP3    H125310   5.454   3.397   2.010  1.8032 -0.9271  0.4261
 1273TIP3    H225311   5.513   3.392   2.149 -0.2394 -0.2960  1.3209
 1274TIP3   OH225312   0.461   0.823   1.286 -0.0714 -0.1148  0.3743
 1274TIP3    H125313   0.497   0.892   1.341 -0.0572 -0.3933  0.7167
 1274TIP3    H225314   0.508   0.831   1.203  1.1042 -0.7603  0.9572
 1275TIP3   OH225315   0.946   3.896  12.046  0.1457  0.0199  0.2010
 1275TIP3    H125316   0.961   3.879  11.953  2.1390  0.2773  0.4722
 1275TIP3    H225317   0.850   3.895  12.055 -0.0200 -2.6029 -1.3580
 1276TIP3   OH225318   3.416   6.533  15.151  0.0107 -0.4200  0.0104
 1276TIP3    H125319   3.404   6.590  15.076 -2.0958 -1.2203 -0.3090
 1276TIP3    H225320   3.503   6.554  15.184 -0.0459  1.7312 -1.1286
 1277TIP3   OH225321   5.856   6.184   4.801 -0.0744  0.1766  0.7538
 1277TIP3    H125322   5.849   6.115   4.735 -0.2253  0.9135 -0.0101
 1277TIP3    H225323   5.841   6.140   4.885 -3.0984 -0.2192  0.0659
 1278TIP3   OH225324   6.279   2.401  11.733  0.1759 -0.6380  0.2343
 1278TIP3    H125325   6.216   2.464  11.769 -1.4903 -0.8853 -2.0766
 1278TIP3    H225326   6.316   2.357  11.809  0.4891  2.2833  1.8556
 1279TIP3   OH225327   0.663   0.307   0.491  0.1947 -0.3163  0.1288
 1279TIP3    H125328   0.697   0.321   0.402  1.3672  0.6719  0.7214
 1279TIP3    H225329   0.580   0.262   0.478  0.6459 -0.7198 -1.4521
 1280TIP3   OH225330   1.707   2.178   0.139 -0.4149 -0.0823  0.3253
 1280TIP3    H125331   1.617   2.163   0.168  0.0399 -0.1749  1.7472
 1280TIP3    H225332   1.758   2.114   0.188  0.4928  0.3688 -0.0289
 1281TIP3   OH225333   0.864   1.813   2.355  0.3097 -0.5303 -0.8342
 1281TIP3    H125334   0.889   1.883   2.295 -0.9055 -0.1847 -0.9647
 1281TIP3    H225335   0.772   1.797   2.334  0.6564 -2.3579 -0.9856
 1282TIP3   OH225336   6.421   2.993  14.638  0.1237 -0.1679  0.0457
 1282TIP3    H125337   6.467   3.011  14.720  2.5764 -0.7662 -1.1549
 1282TIP3    H225338   6.440   3.069  14.583  0.4769 -0.8703 -0.8068
 1283TIP3   OH225339   2.625   3.704  17.123  0.1584 -0.1294 -0.7279
 1283TIP3    H125340   2.593   3.669  17.039  0.2727  1.6404 -1.5341
 1283TIP3    H225341   2.626   3.628  17.182 -2.2622 -0.9101 -1.6377
 1284TIP3   OH225342   2.718   0.221   0.798  0.0555  0.3016  0.1823
 1284TIP3    H125343   2.695   0.314   0.792 -0.8551  0.3093  2.8527
 1284TIP3    H225344   2.635   0.175   0.785  0.2197 -0.0714  0.4351
 1285TIP3   OH225345   5.834   1.663  13.437  0.3220 -0.1311 -0.4052
 1285TIP3    H125346   5.810   1.682  13.346  0.6172  0.0443 -0.4466
 1285TIP3    H225347   5.909   1.603  13.430  0.6159  0.2178 -0.2826
 1286TIP3   OH225348   1.239   6.663  12.539 -0.1775  0.0117 -0.2358
 1286TIP3    H125349   1.303   6.674  12.609 -0.3553 -0.4461 -0.0010
 1286TIP3    H225350   1.230   6.751  12.501 -0.9220  0.5020  1.0523
 1287TIP3   OH225351   6.309   3.952   2.251 -0.2656 -0.4383 -0.3606
 1287TIP3    H125352   6.297   3.928   2.159 -0.7082  0.6283 -0.5828
 1287TIP3    H225353   6.391   4.003   2.252 -0.1267 -0.6641 -0.1202
 1288TIP3   OH225354   6.580   0.164  15.632  0.6981  0.2138  0.4790
 1288TIP3    H125355   6.590   0.240  15.575  0.6850 -0.9493 -1.1423
 1288TIP3    H225356   6.660   0.162  15.684 -0.2694  2.5798  2.1407
 1289TIP3   OH225357   1.993   2.537  11.194  0.1833  0.5313  0.2961
 1289TIP3    H125358   2.071   2.592  11.199  0.2771  0.3954  0.3381
 1289TIP3    H225359   2.025   2.448  11.210 -0.0692  0.5490  0.9134
 1290TIP3   OH225360   0.079   0.497  15.107 -0.7866  0.1128 -0.1199
 1290TIP3    H125361   0.150   0.535  15.054 -0.5729 -1.3650 -0.9368
 1290TIP3    H225362  -0.001   0.522  15.060 -0.6116 -0.9872 -1.0357
 1291TIP3   OH225363   1.309   3.877   4.620  0.1441  0.3742 -0.1523
 1291TIP3    H125364   1.337   3.873   4.711  0.8784  1.6217 -0.3155
 1291TIP3    H225365   1.376   3.827   4.572  2.0268  3.1658 -0.5134
 1292TIP3   OH225366   5.060   5.505  10.239 -0.0918  1.2053 -0.3397
 1292TIP3    H125367   5.124   5.508  10.310 -1.7614  0.1285  1.2762
 1292TIP3    H225368   5.026   5.415  10.241  0.4652  0.9108 -3.0947
 1293TIP3   OH225369   5.140   1.454  13.114  0.4976 -0.5231 -0.0460
 1293TIP3    H125370   5.103   1.520  13.055  0.6104  1.9388  2.5628
 1293TIP3    H225371   5.232   1.478  13.123  0.0524  0.3391  2.6583
 1294TIP3   OH225372   1.687   0.575  17.102  0.5149 -0.0413 -0.0534
 1294TIP3    H125373   1.766   0.562  17.155  1.3512  1.0326 -1.0060
 1294TIP3    H225374   1.693   0.666  17.072 -0.7897 -0.1329 -0.6220
 1295TIP3   OH225375   2.670   3.288   2.593 -0.4752  0.5503  0.0892
 1295TIP3    H125376   2.654   3.373   2.633 -0.9819  0.0127  1.0546
 1295TIP3    H225377   2.762   3.268   2.613 -1.0441 -0.2444  2.0422
 1296TIP3   OH225378   6.654   0.073  11.778 -0.0205 -1.0098  0.2766
 1296TIP3    H125379   6.736   0.030  11.758  0.4615 -0.7930  1.7029
 1296TIP3    H225380   6.600   0.005  11.820  0.2317 -0.6100  1.2711
 1297TIP3   OH225381   0.641   4.159   2.502 -0.4869  0.6866  0.3062
 1297TIP3    H125382   0.681   4.171   2.416  2.3731  1.2882  1.6660
 1297TIP3    H225383   0.642   4.247   2.541 -2.5036  0.5749  0.6404
 1298TIP3   OH225384   3.947   0.387  11.356 -0.5286  0.2695 -1.0673
 1298TIP3    H125385   4.020   0.346  11.402 -0.9374 -1.7556 -2.1465
 1298TIP3    H225386   3.911   0.451  11.418  1.4163  0.4494 -0.1122
 1299TIP3   OH225387   0.501   0.928  16.402  0.1463 -0.1439 -0.3386
 1299TIP3    H125388   0.429   0.915  16.340 -0.2676 -0.3938  0.1875
 1299TIP3    H225389   0.486   0.863  16.470  1.1112 -0.4702 -0.4314
 1300TIP3   OH225390   4.628   5.318   6.005  0.2838  0.1651 -0.1364
 1300TIP3    H125391   4.561   5.253   5.986  0.0465  0.3807 -0.0343
 1300TIP3    H225392   4.633   5.372   5.926  1.0165 -0.4446 -0.5077
 1301TIP3   OH225393   2.062   4.573  10.759  0.3389  0.3586  0.5638
 1301TIP3    H125394   1.968   4.558  10.759  0.5216 -0.7879  0.5140
 1301TIP3    H225395   2.079   4.618  10.843 -0.5275  2.4893 -0.3594
 1302TIP3   OH225396   3.940   1.110   2.351  0.7481  0.5015 -0.0743
 1302TIP3    H125397   4.016   1.150   2.308  0.1868  1.1369 -0.4829
 1302TIP3    H225398   3.977   1.042   2.407  1.7342  1.6071  0.6474
 1303TIP3   OH225399   2.524   5.392   2.280  0.2430  0.2300 -0.4572
 1303TIP3    H125400   2.538   5.307   2.323  1.9250  1.9810  2.6272
 1303TIP3    H225401   2.612   5.431   2.276 -1.0364  3.5611  2.0374
 1304TIP3   OH225402   6.073   0.233  11.980 -0.3255  0.1490 -0.1476
 1304TIP3    H125403   6.076   0.152  12.032 -0.3348  0.5058  0.4058
 1304TIP3    H225404   6.083   0.303  12.044  3.1960  0.5038 -0.9922
 1305TIP3   OH225405   2.780   6.811  11.860  0.0373  0.7656 -0.0204
 1305TIP3    H125406   2.811   6.729  11.898 -0.8336  0.5243  0.1847
 1305TIP3    H225407   2.853   6.872  11.871 -0.2149  0.7148  2.0724
 1306TIP3   OH225408   4.806   2.983   3.830  0.1035 -0.2037 -0.1946
 1306TIP3    H125409   4.751   2.907   3.850 -0.9110  0.5326 -0.1252
 1306TIP3    H225410   4.789   3.044   3.902  0.2692  0.4280 -0.6837
 1307TIP3   OH225411   1.196   4.498   1.042  0.0882 -0.7390  0.6589
 1307TIP3    H125412   1.210   4.491   0.948  0.3431  0.9256  0.5524
 1307TIP3    H225413   1.166   4.588   1.055  0.2779 -0.8769  2.1957
 1308TIP3   OH225414   6.297   3.251  16.425  0.3992 -0.0617  0.2446
 1308TIP3    H125415   6.261   3.172  16.467 -1.1460  0.7233  0.4528
 1308TIP3    H225416   6.220   3.295  16.388  1.1611  1.6389  0.6338
 1309TIP3   OH225417   6.586   2.447  13.354  0.8945  0.0976  0.0348
 1309TIP3    H125418   6.613   2.402  13.274 -0.1472 -1.1820  0.3910
 1309TIP3    H225419   6.512   2.396  13.387  0.1970  1.6121  0.8799
 1310TIP3   OH225420   4.405   2.500   1.221  0.1128  0.2857 -0.0889
 1310TIP3    H125421   4.404   2.415   1.265 -0.0529  0.2139 -0.2316
 1310TIP3    H225422   4.356   2.486   1.140 -2.4598  1.2531  1.2484
 1311TIP3   OH225423   2.240   0.327   2.418 -0.1710 -0.5954  0.1554
 1311TIP3    H125424   2.185   0.254   2.448  0.5632 -0.3577  2.1479
 1311TIP3    H225425   2.301   0.342   2.489  1.6292  0.0417 -1.4752
 1312TIP3   OH225426   2.828   6.766  12.522  0.2596  0.1526  0.0280
 1312TIP3    H125427   2.852   6.818  12.445  0.8024 -0.0318  0.0696
 1312TIP3    H225428   2.756   6.814  12.563 -1.5963 -0.8957 -1.8601
 1313TIP3   OH225429   1.228   6.679   3.728 -0.1882 -0.2858 -0.3694
 1313TIP3    H125430   1.298   6.662   3.791  0.2469  1.0307 -0.4923
 1313TIP3    H225431   1.153   6.630   3.763  0.6272 -1.2674  0.0454
 1314TIP3   OH225432   2.113   4.161  14.879 -0.0527 -0.0090 -0.4800
 1314TIP3    H125433   2.042   4.108  14.915  0.3486  0.2328  0.6812
 1314TIP3    H225434   2.162   4.101  14.823 -0.8071 -0.3342 -0.7942
 1315TIP3   OH225435   2.478   0.062  14.809  0.6201  0.0857 -0.0542
 1315TIP3    H125436   2.556   0.072  14.863  0.1470  0.4191  0.5775
 1315TIP3    H225437   2.468  -0.033  14.799  0.6472  0.0143  0.5494
 1316TIP3   OH225438   1.060   0.014   1.301  0.6827 -0.1405 -0.6629
 1316TIP3    H125439   1.056   0.057   1.386  1.1393 -0.5568 -0.4287
 1316TIP3    H225440   0.975  -0.029   1.291  1.1367 -1.2527  0.1960
 1317TIP3   OH225441   4.375   3.834   1.036  0.2978 -0.3227 -0.0705
 1317TIP3    H125442   4.403   3.924   1.051 -1.0418 -0.1068  1.2993
 1317TIP3    H225443   4.342   3.834   0.946 -1.3394  1.0167  0.5003
 1318TIP3   OH225444   3.194   1.907  13.176 -0.2552 -0.6422  0.3361
 1318TIP3    H125445   3.267   1.881  13.118 -0.5815 -0.3070 -0.2331
 1318TIP3    H225446   3.200   2.002  13.180 -1.4350 -0.5110 -0.7522
 1319TIP3   OH225447   1.905   0.659  12.105  0.2866  0.1597  0.0786
 1319TIP3    H125448   1.838   0.717  12.069 -0.4378  0.5423  2.0210
 1319TIP3    H225449   1.941   0.706  12.180  2.7803 -0.0307 -0.9400
 1320TIP3   OH225450   0.395   0.445  11.723 -1.0573 -0.0282  0.2883
 1320TIP3    H125451   0.424   0.412  11.638 -0.8527  0.6527  0.0909
 1320TIP3    H225452   0.462   0.508  11.748 -0.5306 -1.0327  1.4765
 1321TIP3   OH225453   0.617   4.124   5.679 -0.1644  0.2441 -0.4412
 1321TIP3    H125454   0.652   4.042   5.643 -1.1421  0.2429 -1.4098
 1321TIP3    H225455   0.690   4.186   5.674 -0.0045 -0.0207 -1.5442
 1322TIP3   OH225456   1.594   3.646  14.044 -0.6725 -0.2550 -0.2895
 1322TIP3    H125457   1.597   3.551  14.035  0.6085 -0.2882  0.3861
 1322TIP3    H225458   1.507   3.664  14.079 -0.5578 -1.2701  0.5311
 1323TIP3   OH225459   5.734   6.585   2.537  0.1743  0.2880 -0.2034
 1323TIP3    H125460   5.760   6.495   2.515 -0.1378  0.6313 -2.1298
 1323TIP3    H225461   5.774   6.602   2.621  0.9710 -1.3658 -0.2249
 1324TIP3   OH225462   0.608   5.375  11.580 -0.2416 -0.4656 -0.3187
 1324TIP3    H125463   0.550   5.324  11.635  0.5258 -0.9735  0.0290
 1324TIP3    H225464   0.559   5.455  11.560 -0.5058 -0.2462  1.1520
 1325TIP3   OH225465   4.997   1.806  11.739 -0.6046  0.0140  0.2323
 1325TIP3    H125466   4.916   1.827  11.786  0.0372 -0.5101  1.5643
 1325TIP3    H225467   4.974   1.820  11.647 -2.1588  0.0803  0.6076
 1326TIP3   OH225468   5.814   4.277   2.282 -0.4784  0.2699  0.1651
 1326TIP3    H125469   5.854   4.343   2.339 -1.5998  0.7781  0.3614
 1326TIP3    H225470   5.729   4.313   2.259 -1.9214 -1.9204  1.8251
 1327TIP3   OH225471   1.035   6.534   5.384 -0.2149  0.0301 -0.1545
 1327TIP3    H125472   1.081   6.616   5.399  0.8318 -0.7406  0.9511
 1327TIP3    H225473   0.943   6.559   5.374 -0.0790  1.2212  1.4153
 1328TIP3   OH225474   5.588   5.554   5.724  0.1418 -0.0121 -0.3110
 1328TIP3    H125475   5.615   5.542   5.816  1.1848  2.2600 -0.2769
 1328TIP3    H225476   5.663   5.524   5.673 -0.3450 -1.0478 -0.4273
 1329TIP3   OH225477   1.406   3.137  13.680 -0.0033  0.0592  0.5201
 1329TIP3    H125478   1.405   3.220  13.728  1.9713  0.8993 -0.8674
 1329TIP3    H225479   1.467   3.081  13.729  0.2438  0.1326  0.2973
 1330TIP3   OH225480   5.037   3.180   2.685  0.1546 -0.4057  0.2575
 1330TIP3    H125481   5.104   3.245   2.665  0.3188  0.4497  3.2633
 1330TIP3    H225482   5.085   3.107   2.725 -0.5108 -0.4301  1.0445
 1331TIP3   OH225483   3.357   0.002   0.164 -0.2202 -0.3297 -0.2768
 1331TIP3    H125484   3.293   0.053   0.115 -1.4678 -1.0278  0.5890
 1331TIP3    H225485   3.305  -0.058   0.218  1.1776 -1.5517 -0.2296
 1332TIP3   OH225486   0.764   0.760   1.043 -0.4964 -0.0050  0.1884
 1332TIP3    H125487   0.847   0.725   1.012  0.0551  1.7915 -0.4374
 1332TIP3    H225488   0.788   0.817   1.116 -1.1091  0.9310 -0.3288
 1333TIP3   OH225489   0.723   2.402   5.933 -0.1057 -0.0586  0.1935
 1333TIP3    H125490   0.696   2.370   5.847 -1.0785 -1.8972  1.1467
 1333TIP3    H225491   0.819   2.401   5.930 -0.1383 -0.5921 -0.7119
 1334TIP3   OH225492   5.663   6.717  11.716  0.0406  0.0874  0.0327
 1334TIP3    H125493   5.629   6.704  11.628 -1.0693 -1.3256  0.6599
 1334TIP3    H225494   5.627   6.802  11.743  1.4658  1.1627 -1.3495
 1335TIP3   OH225495   0.538   5.356  13.420 -0.0736  0.9474 -0.1481
 1335TIP3    H125496   0.563   5.280  13.473  1.1384  0.1310 -1.8087
 1335TIP3    H225497   0.582   5.430  13.462  1.8302  0.1395 -0.6175
 1336TIP3   OH225498   6.518   2.686   5.254 -0.1292 -0.1829 -0.3084
 1336TIP3    H125499   6.557   2.763   5.212  0.6143 -0.1956  0.3540
 1336TIP3    H225500   6.424   2.704   5.253 -0.1207 -0.1695 -1.9469
 1337TIP3   OH225501   2.646   3.508   3.086 -0.4837 -0.4969 -0.4254
 1337TIP3    H125502   2.602   3.450   3.023 -0.4419  0.4928 -1.3703
 1337TIP3    H225503   2.582   3.519   3.156 -0.9892 -0.6529 -0.8535
 1338TIP3   OH225504   5.727   4.571  14.864 -0.0478 -0.2566  0.2551
 1338TIP3    H125505   5.638   4.549  14.890  0.1897 -0.3653  1.0065
 1338TIP3    H225506   5.760   4.626  14.936  0.1796  0.5319 -0.4465
 1339TIP3   OH225507   2.653   0.151   1.735  0.1637  0.0352 -0.5671
 1339TIP3    H125508   2.739   0.183   1.761  0.1310  0.7459 -1.2998
 1339TIP3    H225509   2.660   0.137   1.640  0.0736 -1.8317 -0.3167
 1340TIP3   OH225510   3.541   0.322  13.554 -0.2135  0.6657  0.6690
 1340TIP3    H125511   3.494   0.281  13.482 -1.3401 -1.6461  2.6513
 1340TIP3    H225512   3.485   0.395  13.582 -1.0832 -0.0982  0.9334
 1341TIP3   OH225513   3.375   4.959   6.313 -0.1556  0.3349 -0.2824
 1341TIP3    H125514   3.410   5.043   6.344  1.0078  0.1613 -1.0966
 1341TIP3    H225515   3.379   4.903   6.390  1.6684  0.2331 -0.4323
 1342TIP3   OH225516   3.737   2.090   0.422  0.9393 -0.1370 -0.0113
 1342TIP3    H125517   3.787   2.009   0.435  1.6562  0.3841  0.5909
 1342TIP3    H225518   3.715   2.118   0.511  1.5018  0.8160 -0.1658
 1343TIP3   OH225519   2.096   6.226  14.375  0.0299  0.0049  0.6384
 1343TIP3    H125520   2.008   6.191  14.360 -0.2533  0.6807  0.7000
 1343TIP3    H225521   2.149   6.149  14.397 -0.2785 -0.5642 -0.5499
 1344TIP3   OH225522   3.129   3.809  12.918  0.1631  0.5413  0.0922
 1344TIP3    H125523   3.119   3.769  12.831  0.9871 -0.9989  0.6897
 1344TIP3    H225524   3.152   3.900  12.900 -0.3098  0.3968 -1.3014
 1345TIP3   OH225525   6.726   5.517  13.846 -0.4127 -0.4890  0.0578
 1345TIP3    H125526   6.748   5.494  13.937  0.8575  0.2828 -0.0393
 1345TIP3    H225527   6.792   5.471  13.794 -0.5989 -0.2093 -0.4197
 1346TIP3   OH225528   2.655   3.736   0.879  0.4472  0.8337  0.0432
 1346TIP3    H125529   2.740   3.776   0.895  1.2321 -1.3561  1.6130
 1346TIP3    H225530   2.615   3.729   0.966 -0.4354 -0.0892 -0.4255
 1347TIP3   OH225531   4.607   1.124  13.535 -0.4357  0.0263  0.1304
 1347TIP3    H125532   4.530   1.096  13.584  0.1118 -0.7249  0.5852
 1347TIP3    H225533   4.661   1.045  13.529  0.5604  0.6813  0.3210
 1348TIP3   OH225534   5.514   3.144   4.300 -0.3394  0.1015  0.6211
 1348TIP3    H125535   5.554   3.230   4.287 -3.0967  1.5925  1.6821
 1348TIP3    H225536   5.499   3.138   4.394 -4.0738  0.3086  0.0929
 1349TIP3   OH225537   3.429   2.360  14.710 -0.1205 -0.3026 -0.2609
 1349TIP3    H125538   3.445   2.281  14.761  1.0398 -0.4876 -0.8942
 1349TIP3    H225539   3.513   2.405  14.707 -0.8757  1.2202  0.5064
 1350TIP3   OH225540   0.537   1.738   4.723 -0.4816  0.5141 -0.5898
 1350TIP3    H125541   0.474   1.802   4.691 -0.3595  1.3464  0.7891
 1350TIP3    H225542   0.529   1.742   4.818  0.2065 -0.8371 -0.4696
 1351TIP3   OH225543   6.465   6.521   3.357 -0.1542  0.1538  0.0633
 1351TIP3    H125544   6.499   6.492   3.442  0.2614  1.5125  0.3798
 1351TIP3    H225545   6.398   6.457   3.335  2.9050 -2.9106 -0.8024
 1352TIP3   OH225546   4.202   6.147  13.836 -0.2506 -0.3141 -0.0203
 1352TIP3    H125547   4.258   6.106  13.902 -0.4148 -0.8193 -0.1861
 1352TIP3    H225548   4.147   6.208  13.886 -0.8937 -1.2419  0.4233
 1353TIP3   OH225549   2.809   6.816  10.671  0.3931 -0.0673  0.4021
 1353TIP3    H125550   2.788   6.908  10.656  0.4166 -0.2312 -0.6704
 1353TIP3    H225551   2.725   6.771  10.668  0.5053 -0.2381 -0.2759
 1354TIP3   OH225552   3.465   6.470   2.397 -0.3187  0.2458 -0.5160
 1354TIP3    H125553   3.386   6.524   2.401  0.1455  0.9226 -0.2564
 1354TIP3    H225554   3.477   6.439   2.487 -0.7106 -0.4754 -0.7129
 1355TIP3   OH225555   3.890   1.932  17.008  0.5896  0.4026 -0.0673
 1355TIP3    H125556   3.903   1.936  17.103  1.2346  1.3882 -0.1905
 1355TIP3    H225557   3.930   1.849  16.982 -0.6311 -0.4450  0.6711
 1356TIP3   OH225558   2.332   3.805   5.476  0.2071 -0.6168 -0.5227
 1356TIP3    H125559   2.403   3.862   5.444  0.8782 -1.4532 -0.5340
 1356TIP3    H225560   2.324   3.827   5.569 -0.2424  0.2372 -0.7605
 1357TIP3   OH225561   0.519   2.100   4.660  0.3252  0.5130  0.2061
 1357TIP3    H125562   0.454   2.030   4.670 -0.6216  0.6393 -4.2163
 1357TIP3    H225563   0.467   2.178   4.640  1.6546  1.4773  0.5000
 1358TIP3   OH225564   4.650   2.986  15.999  0.6557 -0.1333 -0.7591
 1358TIP3    H125565   4.645   2.928  16.076  1.2904 -0.0612 -0.6609
 1358TIP3    H225566   4.577   2.958  15.943 -1.5657  1.6718  1.1303
 1359TIP3   OH225567   4.068   3.721   5.405 -0.9760 -0.3380 -0.6541
 1359TIP3    H125568   4.091   3.638   5.363  0.9921  0.0516 -0.3921
 1359TIP3    H225569   4.000   3.697   5.468  0.0441 -1.9064 -0.1013
 1360TIP3   OH225570   3.145   5.534  14.497 -0.4706 -0.8559 -0.8057
 1360TIP3    H125571   3.099   5.601  14.547  0.5980  0.2103 -1.2402
 1360TIP3    H225572   3.091   5.520  14.420 -0.9300 -0.8218 -0.4912
 1361TIP3   OH225573   6.707   5.595   2.415  0.5232  0.6613  0.3532
 1361TIP3    H125574   6.722   5.502   2.394 -1.7256  0.3287  0.0914
 1361TIP3    H225575   6.699   5.596   2.510  1.0770  0.6817  0.4033
 1362TIP3   OH225576   1.407   1.664  16.324  0.3069 -0.1856 -0.2090
 1362TIP3    H125577   1.329   1.702  16.284  1.7141  2.7452 -0.2926
 1362TIP3    H225578   1.404   1.693  16.415  1.1811 -0.2229 -0.1595
 1363TIP3   OH225579   4.729   2.044  14.247 -0.3083  0.0846 -0.0501
 1363TIP3    H125580   4.637   2.057  14.225  0.0842  2.2502 -0.5401
 1363TIP3    H225581   4.777   2.080  14.172  0.9479 -0.7540  0.3224
 1364TIP3   OH225582   5.844   6.274  14.163  0.3038 -0.0691  0.2191
 1364TIP3    H125583   5.835   6.359  14.206  1.1723 -0.5484  1.3859
 1364TIP3    H225584   5.903   6.290  14.089 -0.7243  0.6405 -0.4480
 1365TIP3   OH225585   6.040   5.796   4.379 -0.1112  0.5466  0.1546
 1365TIP3    H125586   6.026   5.866   4.315 -1.7260  0.6460  0.6159
 1365TIP3    H225587   5.954   5.760   4.395  0.4903 -0.4459  1.1991
 1366TIP3   OH225588   5.291   6.709  16.593  0.0225 -0.0262 -0.3626
 1366TIP3    H125589   5.272   6.641  16.528 -1.1503 -0.0159 -0.0536
 1366TIP3    H225590   5.314   6.660  16.672  1.1435 -0.0412 -0.6947
 1367TIP3   OH225591   1.672   1.405   3.798  0.0884 -0.1847  0.0118
 1367TIP3    H125592   1.611   1.449   3.738  0.7978  0.3157 -0.3541
 1367TIP3    H225593   1.739   1.472   3.817  0.8901 -0.9379 -0.1283
 1368TIP3   OH225594   3.824   2.859  14.328 -0.7239  0.5243 -0.1357
 1368TIP3    H125595   3.895   2.913  14.362 -0.8280 -0.5249  1.8709
 1368TIP3    H225596   3.824   2.781  14.385 -0.6345 -1.5371 -2.8656
 1369TIP3   OH225597   5.158   0.337  15.601 -0.1169  0.0598  0.8907
 1369TIP3    H125598   5.094   0.269  15.621 -0.2203  0.1204  0.7653
 1369TIP3    H225599   5.174   0.380  15.686 -0.1304 -0.0495  0.9497
 1370TIP3   OH225600   1.460   1.220   6.010  0.2223  0.5744  0.2818
 1370TIP3    H125601   1.433   1.150   6.069 -1.1342  0.2218 -0.7434
 1370TIP3    H225602   1.480   1.294   6.067  1.0624 -0.4389  1.3240
 1371TIP3   OH225603   2.803   3.286   1.673 -0.7809  0.1104  0.9108
 1371TIP3    H125604   2.721   3.332   1.691  0.1031  2.2702 -0.4640
 1371TIP3    H225605   2.863   3.354   1.645  1.5402 -1.4466  1.9719
 1372TIP3   OH225606   6.493   4.837  11.950 -0.1357 -0.0095 -0.8570
 1372TIP3    H125607   6.519   4.751  11.982 -1.9831 -0.1106  0.5035
 1372TIP3    H225608   6.488   4.891  12.028  0.2901  1.1451 -1.6167
 1373TIP3   OH225609   1.091   6.516   1.474 -0.3083 -0.2205  0.1133
 1373TIP3    H125610   1.160   6.568   1.432 -1.2952  0.3022 -0.9015
 1373TIP3    H225611   1.060   6.458   1.404 -0.9076 -0.4325  0.5547
 1374TIP3   OH225612   1.992   3.618   1.009 -0.6943  0.5413  0.1902
 1374TIP3    H125613   2.001   3.696   0.953 -1.0330  0.2106 -0.3318
 1374TIP3    H225614   1.975   3.546   0.947 -1.2111  0.1922  0.7323
 1375TIP3   OH225615   4.539   1.423  11.528  0.1729  0.1794  0.6859
 1375TIP3    H125616   4.503   1.511  11.544 -0.3753  0.0365  0.2603
 1375TIP3    H225617   4.603   1.435  11.458  2.5942  0.8128  2.9315
 1376TIP3   OH225618   3.130   2.050   1.802 -0.3208  0.5462 -0.2069
 1376TIP3    H125619   3.070   2.048   1.728 -1.0449 -1.9421  0.3912
 1376TIP3    H225620   3.112   2.133   1.846 -1.2090  1.1723 -1.7235
 1377TIP3   OH225621   0.558   2.901  17.190 -0.1150 -0.0129 -0.1862
 1377TIP3    H125622   0.532   2.987  17.158 -0.0107 -0.1448 -0.6218
 1377TIP3    H225623   0.520   2.896  17.278  1.0975  1.0417  0.4025
 1378TIP3   OH225624   4.775   1.482  13.601  0.2742 -0.5683 -0.2420
 1378TIP3    H125625   4.748   1.414  13.662  2.6796 -1.0148  0.4105
 1378TIP3    H225626   4.727   1.465  13.521 -0.0572 -2.3065  0.3183
 1379TIP3   OH225627   2.013   2.025  15.524  0.9737 -0.2514 -0.2252
 1379TIP3    H125628   2.014   1.933  15.501 -0.2321 -0.3826  0.2248
 1379TIP3    H225629   2.097   2.059  15.492  0.4720 -0.9998 -2.4201
 1380TIP3   OH225630   0.494   4.725  12.434  0.1034 -0.0585  1.0611
 1380TIP3    H125631   0.560   4.736  12.366 -1.0050 -0.4901 -0.1048
 1380TIP3    H225632   0.478   4.814  12.466 -1.3968  0.5405 -1.2217
 1381TIP3   OH225633   1.214   6.774  17.032  0.0467 -0.3090 -0.5785
 1381TIP3    H125634   1.222   6.697  17.088 -1.1197  0.1181  0.2021
 1381TIP3    H225635   1.280   6.835  17.065 -1.0095  0.1599  0.7212
 1382TIP3   OH225636   1.628   0.470  15.353  0.2001  0.0460  0.1515
 1382TIP3    H125637   1.639   0.488  15.260  1.6173  0.6636  0.4321
 1382TIP3    H225638   1.662   0.381  15.364  1.2478  0.4687  0.3153
 1383TIP3   OH225639   4.685   1.050  16.110  0.0028 -0.5106 -0.3762
 1383TIP3    H125640   4.697   1.069  16.017 -2.2438 -0.2626 -0.6395
 1383TIP3    H225641   4.613   0.987  16.112 -0.3821 -0.0377  1.2354
 1384TIP3   OH225642   5.621   1.813   5.013 -0.7281  0.2439  0.8150
 1384TIP3    H125643   5.626   1.905   5.040 -0.1008 -0.1764  2.1358
 1384TIP3    H225644   5.567   1.815   4.933 -0.7215  1.7513  0.8315
 1385TIP3   OH225645   0.021   0.665  11.404 -0.5150 -0.4223  0.2143
 1385TIP3    H125646   0.020   0.571  11.421 -3.9679  0.0175  3.0485
 1385TIP3    H225647  -0.063   0.682  11.359  1.4027  0.9148 -3.0630
 1386TIP3   OH225648   0.426   2.495  13.183 -0.6363  0.1433 -0.0626
 1386TIP3    H125649   0.347   2.500  13.129 -1.7123  0.1786  1.4685
 1386TIP3    H225650   0.476   2.574  13.161 -1.0669  0.1590 -0.9832
 1387TIP3   OH225651   4.456   0.443  16.165 -0.6341  0.2846 -0.5536
 1387TIP3    H125652   4.502   0.365  16.196  0.1922  0.6123 -0.9356
 1387TIP3    H225653   4.364   0.417  16.164 -0.6443  0.1069  1.6759
 1388TIP3   OH225654   4.476   4.781   4.107  0.2270  0.5029  0.5140
 1388TIP3    H125655   4.440   4.857   4.153  1.7585  0.9345  1.0124
 1388TIP3    H225656   4.459   4.707   4.166  0.1109  0.6948  0.7207
 1389TIP3   OH225657   2.557   3.328  12.488 -0.2680 -0.5030 -0.1937
 1389TIP3    H125658   2.542   3.417  12.522  0.6460 -0.5732  0.4238
 1389TIP3    H225659   2.499   3.273  12.541 -2.2367 -0.0689 -1.8306
 1390TIP3   OH225660   0.667   1.782  11.003  0.3990  0.2037 -0.6197
 1390TIP3    H125661   0.636   1.760  10.915  1.5368 -0.8363 -0.7670
 1390TIP3    H225662   0.761   1.798  10.992  0.7149 -0.8253  0.5685
 1391TIP3   OH225663   4.473   3.515  14.022  0.2882 -0.2426 -0.7462
 1391TIP3    H125664   4.444   3.510  13.931  0.6317 -0.6504 -0.8307
 1391TIP3    H225665   4.433   3.439  14.064 -1.4889  1.0112 -0.1052
 1392TIP3   OH225666   1.877   4.052   5.008 -0.4696 -0.4440  0.2210
 1392TIP3    H125667   1.860   4.135   4.964  2.3869 -0.5105 -1.1098
 1392TIP3    H225668   1.863   4.072   5.101 -1.4375  1.0802 -0.2264
 1393TIP3   OH225669   2.266   1.510  14.267  0.0667  0.4245  0.5992
 1393TIP3    H125670   2.273   1.421  14.304 -0.6250 -0.3626 -1.1190
 1393TIP3    H225671   2.351   1.525  14.226 -0.5206 -0.2882 -0.9144
 1394TIP3   OH225672   4.849   2.212   2.816 -0.1296  0.1245  0.4772
 1394TIP3    H125673   4.790   2.155   2.766  0.6312 -1.3338  1.2012
 1394TIP3    H225674   4.936   2.193   2.781 -0.1301  2.7686 -1.0528
 1395TIP3   OH225675   4.152   5.076   4.574 -0.1277 -0.5677 -0.2805
 1395TIP3    H125676   4.210   5.045   4.504 -0.6855 -1.4745 -0.3525
 1395TIP3    H225677   4.197   5.049   4.655  0.3948  0.2623 -0.2878
 1396TIP3   OH225678   4.619   4.724   0.147  0.5187  0.0599 -0.3844
 1396TIP3    H125679   4.542   4.701   0.095  1.8330 -2.3708 -1.3578
 1396TIP3    H225680   4.686   4.744   0.082  1.2582  0.2099  0.4211
 1397TIP3   OH225681   6.271   1.332   2.121 -0.3024 -0.4470  0.0389
 1397TIP3    H125682   6.271   1.423   2.093  1.4113 -0.8682 -1.4229
 1397TIP3    H225683   6.231   1.284   2.048  0.9354 -1.1137 -0.2326
 1398TIP3   OH225684   4.340   2.389  11.032 -0.1434  0.2638  0.3117
 1398TIP3    H125685   4.307   2.393  10.942  0.1355 -1.1697  0.1405
 1398TIP3    H225686   4.270   2.430  11.085  0.0201  1.7909 -0.6174
 1399TIP3   OH225687   4.557   5.913  15.128 -0.3024  0.4125  0.1958
 1399TIP3    H125688   4.541   5.992  15.076  0.3038  0.0720 -0.5149
 1399TIP3    H225689   4.621   5.939  15.193 -0.4427  0.6205  0.2524
 1400TIP3   OH225690   5.174   1.279  11.341  0.1722 -0.5564  0.3874
 1400TIP3    H125691   5.259   1.238  11.361  1.0339  0.2852 -1.4354
 1400TIP3    H225692   5.185   1.370  11.369  0.7411  0.1653 -2.1297
 1401TIP3   OH225693   3.425   0.729  14.345 -0.1461  0.2770  0.5139
 1401TIP3    H125694   3.467   0.799  14.296 -0.7544 -0.0186 -0.4292
 1401TIP3    H225695   3.392   0.772  14.424  2.1469  0.4675  1.4123
 1402TIP3   OH225696   2.706   0.367   0.394 -0.4003  0.6915  0.1936
 1402TIP3    H125697   2.741   0.279   0.379 -0.9325  0.2982  1.1559
 1402TIP3    H225698   2.647   0.382   0.320 -1.8874 -0.6114  1.0761
 1403TIP3   OH225699   3.761   2.853   4.976  0.0055  0.2226  0.4092
 1403TIP3    H125700   3.777   2.861   4.882 -0.1668  1.7433  0.4938
 1403TIP3    H225701   3.704   2.927   4.997 -0.1669 -0.2516  1.6663
 1404TIP3   OH225702   0.932   1.295  12.958 -0.0210 -0.2529 -0.4966
 1404TIP3    H125703   0.985   1.307  13.037  1.7054  1.7522 -1.8965
 1404TIP3    H225704   0.977   1.226  12.909 -0.2303 -0.4352 -0.4324
 1405TIP3   OH225705   1.993   5.558  11.140  0.2699  0.9359 -0.8048
 1405TIP3    H125706   1.900   5.577  11.136  0.2707  0.9841 -0.6050
 1405TIP3    H225707   2.030   5.606  11.066  0.1235  0.8341 -0.9450
 1406TIP3   OH225708   2.701   3.329  11.560  0.7230 -0.0506 -0.5035
 1406TIP3    H125709   2.758   3.402  11.537  1.2430  0.0077  0.8935
 1406TIP3    H225710   2.620   3.345  11.511  0.9574  1.2900 -0.4694
 1407TIP3   OH225711   2.342   5.625   1.909  0.1876 -0.2542  0.0029
 1407TIP3    H125712   2.323   5.719   1.907 -0.3549 -0.3742 -0.8359
 1407TIP3    H225713   2.300   5.594   1.990  0.2539  0.1983  0.2141
 1408TIP3   OH225714   0.614   0.229  16.296 -0.5547 -0.3120 -0.2573
 1408TIP3    H125715   0.616   0.214  16.391 -0.1420  0.5247 -0.1254
 1408TIP3    H225716   0.539   0.287  16.282  0.9540  1.7730 -0.0818
 1409TIP3   OH225717   3.758   1.712   4.119  0.2214 -0.0839 -0.0797
 1409TIP3    H125718   3.831   1.651   4.116  0.0811 -0.2204 -0.9519
 1409TIP3    H225719   3.754   1.741   4.210 -0.5184 -2.3375  0.6419
 1410TIP3   OH225720   1.761   4.026   6.307  0.2982  0.5570 -0.2518
 1410TIP3    H125721   1.693   4.044   6.242  0.4446 -0.4439 -0.6943
 1410TIP3    H225722   1.744   4.087   6.378 -1.0577  0.3211 -0.3659
 1411TIP3   OH225723   2.545   0.989  11.828 -0.7885 -0.2325 -0.1792
 1411TIP3    H125724   2.468   0.954  11.784 -0.6853 -1.8652  0.8485
 1411TIP3    H225725   2.618   0.943  11.788 -0.4546  0.4251 -0.3246
 1412TIP3   OH225726   6.358   1.219   2.541  0.2194  0.1536  0.1167
 1412TIP3    H125727   6.387   1.289   2.599  2.3323  0.9248 -1.8163
 1412TIP3    H225728   6.384   1.138   2.585  0.7577  0.6881  0.7859
 1413TIP3   OH225729   1.921   1.157  11.306 -0.6718  0.3808 -0.2236
 1413TIP3    H125730   1.862   1.145  11.381 -0.0636  1.6850  0.4814
 1413TIP3    H225731   2.007   1.131  11.339 -0.7230 -0.9420 -1.0721
 1414TIP3   OH225732   3.501   1.435  16.304  0.6137 -0.0646 -0.3382
 1414TIP3    H125733   3.435   1.405  16.367 -0.1674 -0.9894 -1.5738
 1414TIP3    H225734   3.573   1.373  16.314  0.6961  0.0803 -0.0178
 1415TIP3   OH225735   1.483   1.111  16.176  0.3490 -0.2102 -0.7667
 1415TIP3    H125736   1.527   1.060  16.108  1.8400  0.0927 -0.0522
 1415TIP3    H225737   1.505   1.065  16.257 -1.1521 -0.3846 -0.4434
 1416TIP3   OH225738   4.238   3.741  11.865  0.3433 -0.3399  0.4513
 1416TIP3    H125739   4.305   3.673  11.854 -0.2626 -0.7029 -1.0354
 1416TIP3    H225740   4.159   3.693  11.888 -0.3307 -0.2387 -1.5929
 1417TIP3   OH225741   1.109   5.474   1.393  0.1509 -0.0462  0.9868
 1417TIP3    H125742   1.051   5.472   1.317 -1.2139  1.7767  1.9253
 1417TIP3    H225743   1.175   5.539   1.372  2.3597 -2.6525 -0.3845
 1418TIP3   OH225744   2.442   4.125   4.288 -0.1866 -0.5227 -0.6221
 1418TIP3    H125745   2.421   4.219   4.288 -0.4806 -0.5803  0.8018
 1418TIP3    H225746   2.538   4.122   4.285 -0.1499 -0.1643  0.0736
 1419TIP3   OH225747   4.984   0.336   4.476 -0.8649 -0.6744 -0.3446
 1419TIP3    H125748   4.907   0.389   4.453 -0.5309 -0.0688 -0.0652
 1419TIP3    H225749   5.016   0.303   4.392 -0.6372  0.1755 -0.6016
 1420TIP3   OH225750   6.718   6.205   5.509  0.2752 -0.2671 -0.2156
 1420TIP3    H125751   6.771   6.134   5.473  2.5551  1.3108 -0.1163
 1420TIP3    H225752   6.778   6.280   5.513 -1.7001  1.3156  0.8841
 1421TIP3   OH225753   1.077   2.236  17.117  0.7046  0.0502 -0.2107
 1421TIP3    H125754   1.049   2.190  17.196 -1.0721 -0.4480 -1.1167
 1421TIP3    H225755   1.145   2.297  17.147  1.1903 -1.2808  1.4186
 1422TIP3   OH225756   2.497   0.435  12.933 -0.1222 -0.2907 -0.7977
 1422TIP3    H125757   2.579   0.421  12.980 -1.4402  0.7316  1.9601
 1422TIP3    H225758   2.470   0.524  12.958 -1.6431 -0.2877 -2.3310
 1423TIP3   OH225759   3.820   6.170   0.160 -0.1116  0.3747 -0.4509
 1423TIP3    H125760   3.869   6.237   0.113  1.1572  0.4166  0.8727
 1423TIP3    H225761   3.730   6.202   0.162 -0.4442 -0.1596 -3.7589
 1424TIP3   OH225762   3.668   0.216  13.970 -0.0698  0.5146  0.1933
 1424TIP3    H125763   3.619   0.138  13.944  2.6401 -0.4420 -2.4073
 1424TIP3    H225764   3.714   0.190  14.050 -3.2535  1.2326  2.3171
 1425TIP3   OH225765   5.524   6.603  12.558 -0.4623 -0.2205  0.3618
 1425TIP3    H125766   5.506   6.509  12.569  0.8049 -0.3790  1.1584
 1425TIP3    H225767   5.602   6.619  12.611  0.6983  0.8091 -1.5959
 1426TIP3   OH225768   4.102   4.391   2.350 -0.3979 -0.1848  0.0312
 1426TIP3    H125769   4.121   4.317   2.408 -0.5239 -0.1958  0.0579
 1426TIP3    H225770   4.058   4.352   2.275  0.8017 -0.3330 -0.6114
 1427TIP3   OH225771   6.577   1.735   2.248 -0.7807 -0.6764  0.3044
 1427TIP3    H125772   6.553   1.699   2.162  3.4410  0.1340 -1.3899
 1427TIP3    H225773   6.526   1.815   2.256  1.0782  0.9429 -3.0127
 1428TIP3   OH225774   4.543   5.709  14.533  0.1011  0.5737 -0.1078
 1428TIP3    H125775   4.592   5.704  14.451  0.9663 -1.9266  0.5303
 1428TIP3    H225776   4.451   5.712  14.506  0.1832 -3.5094 -1.1900
 1429TIP3   OH225777   5.720   6.622   3.416  0.5157 -0.1310 -0.1153
 1429TIP3    H125778   5.773   6.689   3.374  1.8039 -1.9789 -1.5408
 1429TIP3    H225779   5.648   6.605   3.355  1.0620 -1.1165 -0.5105
 1430TIP3   OH225780   3.805   3.664   1.732  0.1374 -0.3530 -0.4976
 1430TIP3    H125781   3.720   3.677   1.773 -0.4270 -0.5790 -1.5720
 1430TIP3    H225782   3.788   3.674   1.638  1.2883 -0.4319 -0.7246
 1431TIP3   OH225783   0.261   1.933   3.165 -0.8046 -0.2395  0.1551
 1431TIP3    H125784   0.324   1.903   3.099  1.2492  0.1063  1.8920
 1431TIP3    H225785   0.176   1.910   3.129  0.3794 -2.0084 -1.6420
 1432TIP3   OH225786   0.154   0.274   4.367 -0.1410 -0.0065  0.0088
 1432TIP3    H125787   0.172   0.182   4.345 -1.0302 -0.0267 -0.6946
 1432TIP3    H225788   0.122   0.312   4.285  1.1017  1.1721  0.0536
 1433TIP3   OH225789   6.025   3.780  13.297 -0.3200 -0.2225 -0.6991
 1433TIP3    H125790   5.984   3.833  13.366  1.7346  2.2624 -1.3263
 1433TIP3    H225791   5.982   3.809  13.217  1.9139  1.7043 -1.2419
 1434TIP3   OH225792   4.769   4.677   6.754 -0.0608 -0.4894  0.8318
 1434TIP3    H125793   4.720   4.673   6.672 -2.0130  0.7013  1.8924
 1434TIP3    H225794   4.780   4.586   6.781  1.0132 -0.9186 -0.9613
 1435TIP3   OH225795   1.906   1.564  12.123 -0.2815  0.1147 -0.4291
 1435TIP3    H125796   1.837   1.607  12.072 -0.3882  0.0059 -0.3748
 1435TIP3    H225797   1.983   1.568  12.066  0.0424  1.4887  0.0634
 1436TIP3   OH225798   3.046   6.630  15.053  0.1626  0.4169 -0.1198
 1436TIP3    H125799   2.991   6.591  14.986 -0.2828  1.2806 -0.2660
 1436TIP3    H225800   3.112   6.679  15.004  0.6644 -0.0741  0.0619
 1437TIP3   OH225801   5.769   2.985   4.330 -0.3931 -0.4961 -0.5770
 1437TIP3    H125802   5.726   3.033   4.401 -1.5476 -1.6934 -0.4397
 1437TIP3    H225803   5.814   3.052   4.280 -2.4618  0.8340 -0.7477
 1438TIP3   OH225804   4.250   3.428  10.819  0.0309  0.2156 -0.1962
 1438TIP3    H125805   4.270   3.513  10.782  0.3185  1.0147  1.7574
 1438TIP3    H225806   4.325   3.373  10.794 -0.9606  0.0284 -2.9314
 1439TIP3   OH225807   0.007   6.418   3.152 -0.7283  0.0378  0.0147
 1439TIP3    H125808   0.044   6.472   3.082 -0.1394  0.9535  1.0265
 1439TIP3    H225809   0.067   6.344   3.160  0.2835  0.9366  0.8740
 1440TIP3   OH225810   1.845   1.549  11.689 -0.1030 -0.4159  0.1001
 1440TIP3    H125811   1.782   1.497  11.739 -1.1753  1.0195  0.2805
 1440TIP3    H225812   1.883   1.487  11.627 -0.8815 -1.5569  0.7261
 1441TIP3   OH225813   4.862   4.443   1.955 -0.1903 -0.3522 -0.5708
 1441TIP3    H125814   4.940   4.394   1.930 -1.4663 -1.7291 -1.9551
 1441TIP3    H225815   4.817   4.388   2.019 -2.0952 -1.5020 -2.7991
 1442TIP3   OH225816   5.405   6.426   2.101  0.3164 -0.1261  0.4988
 1442TIP3    H125817   5.393   6.360   2.169  3.2647 -0.9022  0.3246
 1442TIP3    H225818   5.422   6.376   2.021  0.4482  0.8277 -0.0840
 1443TIP3   OH225819   6.422   6.385  15.422  0.0774 -0.3277  0.1692
 1443TIP3    H125820   6.375   6.352  15.499  1.0806  0.7910  1.2851
 1443TIP3    H225821   6.509   6.408  15.455 -0.3320  2.6994 -0.7225
 1444TIP3   OH225822   1.375   1.159   3.008 -0.5096  0.3414 -0.1238
 1444TIP3    H125823   1.357   1.177   3.101 -1.6664  1.1075 -0.4897
 1444TIP3    H225824   1.290   1.164   2.966  0.0617  0.3258 -1.2874
 1445TIP3   OH225825   4.542   5.295   2.710  0.0954 -0.3144  0.0171
 1445TIP3    H125826   4.467   5.332   2.758  0.4984  0.2702  0.2012
 1445TIP3    H225827   4.565   5.216   2.758  0.5524  0.3150  0.8321
 1446TIP3   OH225828   2.798   3.660  12.759  0.0006  0.2051 -0.2448
 1446TIP3    H125829   2.892   3.676  12.753  0.0370  0.9573  1.9560
 1446TIP3    H225830   2.760   3.746  12.777 -1.1198 -0.0985 -1.0615
 1447TIP3   OH225831   2.895   6.070   4.099  0.2298  0.0384  0.6945
 1447TIP3    H125832   2.877   6.137   4.032 -0.3898 -0.8972 -0.0847
 1447TIP3    H225833   2.850   6.103   4.177 -1.2590 -0.1405 -0.0640
 1448TIP3   OH225834   1.191   2.100  16.455 -0.4414  0.2677 -0.4280
 1448TIP3    H125835   1.189   2.065  16.365  0.0263 -0.3814 -0.1950
 1448TIP3    H225836   1.251   2.041  16.501 -0.3135  0.8906  0.1918
 1449TIP3   OH225837   6.652   3.899   0.858 -0.1498  0.3242  0.1342
 1449TIP3    H125838   6.735   3.851   0.855 -1.0743 -1.3361  0.2850
 1449TIP3    H225839   6.651   3.940   0.944 -0.0227 -0.6790  0.6271
 1450TIP3   OH225840   5.958   3.486   5.372 -0.3936 -0.0995 -0.2994
 1450TIP3    H125841   5.998   3.400   5.386 -0.9143 -0.6573 -2.0508
 1450TIP3    H225842   5.971   3.504   5.279  0.9979  2.4194  0.3426
 1451TIP3   OH225843   3.759   3.382  16.131  0.6887 -0.3972 -0.1369
 1451TIP3    H125844   3.717   3.298  16.116 -0.0231  0.1234 -1.1768
 1451TIP3    H225845   3.748   3.429  16.048 -0.6650  1.4681  1.0787
 1452TIP3   OH225846   1.274   0.091  15.656 -0.2936  0.4185 -0.0833
 1452TIP3    H125847   1.282   0.030  15.583  1.9186  0.6711 -0.0800
 1452TIP3    H225848   1.221   0.162  15.622 -1.4391 -0.6686 -0.6275
 1453TIP3   OH225849   0.578   3.919   3.213  0.1723  0.4145  0.0657
 1453TIP3    H125850   0.564   4.009   3.242 -0.1634  0.6656 -0.8611
 1453TIP3    H225851   0.561   3.866   3.291 -2.6835  0.9441 -0.1334
 1454TIP3   OH225852   1.086   1.648   5.199 -0.2596 -0.3479  0.1507
 1454TIP3    H125853   1.009   1.692   5.234 -0.0982  0.4928 -0.5351
 1454TIP3    H225854   1.059   1.616   5.114 -0.1575 -0.9589  0.3449
 1455TIP3   OH225855   4.971   4.289  15.233  0.3389  0.0215 -0.3134
 1455TIP3    H125856   5.036   4.359  15.234  0.6533 -0.2764  0.3323
 1455TIP3    H225857   4.938   4.289  15.143  0.9749  0.4124 -0.5538
 1456TIP3   OH225858   2.487   0.826  11.474  0.1753 -0.1331  0.0645
 1456TIP3    H125859   2.579   0.805  11.483 -0.6202 -3.5481  0.8210
 1456TIP3    H225860   2.462   0.788  11.390 -1.0301 -1.1587  0.8739
 1457TIP3   OH225861   3.467   0.077   4.064 -0.3104  0.3266 -0.0410
 1457TIP3    H125862   3.526   0.141   4.024  1.7335  0.4165  2.9456
 1457TIP3    H225863   3.428   0.124   4.138  0.6168 -1.6086  1.7226
 1458TIP3   OH225864   4.512   3.833   2.098  0.4950 -0.1795 -0.3168
 1458TIP3    H125865   4.487   3.847   2.007 -0.7396 -1.7365 -0.2405
 1458TIP3    H225866   4.600   3.797   2.094  0.7820  0.5616 -0.8387
 1459TIP3   OH225867   3.408   2.726   3.939 -0.0212  0.1880 -0.1742
 1459TIP3    H125868   3.463   2.737   3.862  0.1773 -1.2860 -0.2553
 1459TIP3    H225869   3.460   2.760   4.011  0.8050 -0.7284 -0.3284
 1460TIP3   OH225870   3.318   3.062  13.343 -0.4847  0.5638 -0.2562
 1460TIP3    H125871   3.318   2.982  13.292  1.3007  0.2918  0.1241
 1460TIP3    H225872   3.238   3.058  13.395 -0.4123 -0.9741 -0.2403
 1461TIP3   OH225873   5.724   3.605   2.488 -0.1046  0.4852 -0.4280
 1461TIP3    H125874   5.788   3.676   2.496  0.5749 -0.2385  0.7972
 1461TIP3    H225875   5.658   3.624   2.554 -1.1488  1.2100 -1.6666
 1462TIP3   OH225876   1.668   0.832   0.796  0.1806  0.1855 -0.4106
 1462TIP3    H125877   1.735   0.895   0.822 -0.0118  1.0723 -1.9609
 1462TIP3    H225878   1.585   0.876   0.813 -0.0599 -1.2323  2.2938
 1463TIP3   OH225879   1.320   3.525   1.394 -0.2152  0.1879  0.0323
 1463TIP3    H125880   1.300   3.559   1.481 -1.5126  0.6911 -0.4454
 1463TIP3    H225881   1.361   3.599   1.348  0.0624  0.0604  0.0752
 1464TIP3   OH225882   0.170   2.236  16.205  0.6256  0.3561  0.3573
 1464TIP3    H125883   0.081   2.224  16.173  0.7412  1.9317 -0.6214
 1464TIP3    H225884   0.176   2.182  16.283 -0.9634 -0.3217  0.0185
 1465TIP3   OH225885   4.040   2.723   0.527  0.5904  0.0754  0.1023
 1465TIP3    H125886   4.096   2.762   0.460  0.8917 -1.1266 -0.3460
 1465TIP3    H225887   3.973   2.790   0.544  1.2413  0.8848 -0.4798
 1466TIP3   OH225888   1.478   3.751   3.611  0.5997 -0.1790 -0.1167
 1466TIP3    H125889   1.550   3.696   3.580  0.8613  1.9001 -3.4789
 1466TIP3    H225890   1.511   3.840   3.604 -1.6400  0.7056  0.0197
 1467TIP3   OH225891   1.577   5.580   1.747 -0.5039  0.2795 -0.5022
 1467TIP3    H125892   1.658   5.562   1.795  0.6274 -1.2459 -2.8979
 1467TIP3    H225893   1.511   5.526   1.792  0.4731 -0.9164 -0.4785
 1468TIP3   OH225894   1.445   4.137   4.652 -0.2826  0.2321 -0.8605
 1468TIP3    H125895   1.380   4.079   4.613 -1.1715 -1.2890  2.6705
 1468TIP3    H225896   1.478   4.088   4.728 -0.0639  3.7697  1.4160
 1469TIP3   OH225897   3.908   1.293  14.816  0.0319 -0.1646 -0.4560
 1469TIP3    H125898   3.834   1.354  14.808 -0.8668 -1.1093  0.4114
 1469TIP3    H225899   3.911   1.247  14.732 -0.8499 -0.6318 -0.2439
 1470TIP3   OH225900   3.871   5.278  15.652 -0.4073  0.0613  0.1738
 1470TIP3    H125901   3.779   5.273  15.624 -0.3443  0.6195 -0.1445
 1470TIP3    H225902   3.920   5.290  15.571  0.0417 -1.2392  0.2490
 1471TIP3   OH225903   1.125   5.327   4.536 -0.2183  0.3490  0.0605
 1471TIP3    H125904   1.084   5.257   4.485 -0.1317 -0.2423  0.7950
 1471TIP3    H225905   1.052   5.370   4.581  0.1310 -1.9861  2.9579
 1472TIP3   OH225906   6.502   1.184   5.522  0.1707 -0.4389 -0.5256
 1472TIP3    H125907   6.462   1.153   5.603  0.9466 -0.2031 -0.0392
 1472TIP3    H225908   6.429   1.210   5.467 -0.3325  0.3566  0.4972
 1473TIP3   OH225909   4.973   2.535  12.660 -0.3329  0.4875 -0.3624
 1473TIP3    H125910   4.929   2.451  12.647  0.6342  0.2514 -2.2031
 1473TIP3    H225911   5.052   2.513  12.710 -0.1534  0.3163 -0.7201
 1474TIP3   OH225912   5.814   0.006   3.305 -0.1529 -0.3431 -0.0824
 1474TIP3    H125913   5.744   0.067   3.325 -0.6376 -0.7594 -0.4979
 1474TIP3    H225914   5.869   0.051   3.241 -0.1664 -0.1097  0.0704
 1475TIP3   OH225915   0.315   3.428   2.894 -0.1121 -0.0113 -0.4035
 1475TIP3    H125916   0.383   3.374   2.854 -0.6495 -1.0731  0.0846
 1475TIP3    H225917   0.270   3.369   2.954  0.7651  1.5648  1.8744
 1476TIP3   OH225918   3.402   6.727  12.001  0.2002 -0.0573 -0.1256
 1476TIP3    H125919   3.468   6.779  11.956  2.7169 -2.7883  0.2688
 1476TIP3    H225920   3.420   6.739  12.094  0.0057 -0.6540 -0.0081
 1477TIP3   OH225921   4.833   5.858   2.815  0.1347  0.5428  0.1860
 1477TIP3    H125922   4.739   5.878   2.818  0.1253  0.4864  0.2803
 1477TIP3    H225923   4.837   5.763   2.829  0.2408  0.6350  0.7974
 1478TIP3   OH225924   2.682   4.354  16.803  0.0937 -0.3898 -0.0513
 1478TIP3    H125925   2.735   4.276  16.789 -0.0370 -0.8525  1.8812
 1478TIP3    H225926   2.594   4.320  16.822  0.0746  0.1972  0.9780
 1479TIP3   OH225927   0.029   3.199   0.069 -0.4302 -0.0178 -0.2848
 1479TIP3    H125928  -0.002   3.273   0.017  0.3417  1.2141  0.9547
 1479TIP3    H225929   0.046   3.237   0.156 -1.5217 -1.9775  0.8177
 1480TIP3   OH225930   1.523   6.703  17.164  0.2259 -0.9726 -0.1144
 1480TIP3    H125931   1.504   6.610  17.181  3.2259 -1.8441 -1.1925
 1480TIP3    H225932   1.574   6.731  17.241  1.6206 -0.9850 -1.0208
 1481TIP3   OH225933   6.058   1.982  12.449  0.1195  0.3006 -0.3607
 1481TIP3    H125934   5.981   1.931  12.474 -0.2932  0.0758 -2.0079
 1481TIP3    H225935   6.023   2.062  12.410  0.7601  1.7162  1.8598
 1482TIP3   OH225936   0.941   4.310   3.723 -0.1769 -0.1110 -0.3241
 1482TIP3    H125937   0.885   4.234   3.738 -0.7504 -0.0709 -2.0720
 1482TIP3    H225938   1.005   4.308   3.794  0.3273 -2.7111 -0.7826
 1483TIP3   OH225939   1.373   1.223  16.439 -0.4723 -0.0938 -0.2424
 1483TIP3    H125940   1.384   1.290  16.506 -0.0340  0.9562 -1.3417
 1483TIP3    H225941   1.454   1.226  16.388 -0.0141 -2.1878  0.3384
 1484TIP3   OH225942   2.696   4.192  17.262  0.0476 -0.4910 -0.2389
 1484TIP3    H125943   2.647   4.224  17.187 -0.0270 -0.1168 -0.0320
 1484TIP3    H225944   2.777   4.243  17.262  0.6187 -1.3737 -0.8068
 1485TIP3   OH225945   3.437   5.680  15.591 -0.0908  0.3005  0.2914
 1485TIP3    H125946   3.448   5.603  15.647  1.1063 -0.1831 -0.5819
 1485TIP3    H225947   3.400   5.645  15.510 -0.3151  0.7664  0.1936
 1486TIP3   OH225948   0.047   3.717   0.814 -0.1973 -0.4249 -0.4609
 1486TIP3    H125949   0.127   3.769   0.804 -0.6907  0.4917  0.3273
 1486TIP3    H225950   0.075   3.639   0.862 -0.4425  1.5961  3.1470
 1487TIP3   OH225951   5.435   5.594   2.075 -0.2764  0.4446 -0.9663
 1487TIP3    H125952   5.448   5.545   2.156 -0.0497 -0.2832 -1.4394
 1487TIP3    H225953   5.452   5.685   2.099 -0.4820  0.2688 -0.1348
 1488TIP3   OH225954   3.481   5.257   1.967  0.3303 -0.4008  0.4731
 1488TIP3    H125955   3.407   5.213   1.925  0.4693 -0.5200  0.3500
 1488TIP3    H225956   3.472   5.349   1.942 -0.9264 -0.0449  2.1262
 1489TIP3   OH225957   4.361   4.072  11.711 -0.1952  0.6081 -0.5134
 1489TIP3    H125958   4.317   4.149  11.747 -1.3087 -0.2597 -0.0178
 1489TIP3    H225959   4.325   3.998  11.759  1.0201 -0.2241 -0.8417
 1490TIP3   OH225960   0.790   6.548   3.621 -0.3599 -0.3371  0.2407
 1490TIP3    H125961   0.820   6.608   3.553 -1.3126  0.2461  0.3182
 1490TIP3    H225962   0.803   6.595   3.703  0.0795 -0.7406  0.4074
 1491TIP3   OH225963   0.569   4.994  14.851  0.0068 -0.4464  0.5511
 1491TIP3    H125964   0.499   5.060  14.858  1.4328  0.9846  1.9291
 1491TIP3    H225965   0.594   4.994  14.759 -1.4321 -0.5870  0.1474
 1492TIP3   OH225966   0.736   2.971  15.921  0.1415 -0.3791  0.2507
 1492TIP3    H125967   0.646   2.940  15.924 -0.4392  1.2500 -0.0542
 1492TIP3    H225968   0.760   2.968  15.829 -0.2415  0.9529  0.0963
 1493TIP3   OH225969   2.361   5.030   0.780  0.1266 -0.3346  0.2814
 1493TIP3    H125970   2.374   4.965   0.710  0.8134  0.5341 -0.4238
 1493TIP3    H225971   2.267   5.028   0.797 -0.0037 -0.7954 -0.4375
 1494TIP3   OH225972   1.925   2.578  16.187  0.2077  0.1188 -0.2545
 1494TIP3    H125973   1.980   2.645  16.147 -0.1447 -0.1863 -1.2447
 1494TIP3    H225974   1.961   2.568  16.275  0.7887  1.0023 -0.3834
 1495TIP3   OH225975   5.130   4.769   5.617  0.6129  0.2503  0.1702
 1495TIP3    H125976   5.165   4.735   5.699  0.2671  0.6473  0.4876
 1495TIP3    H225977   5.036   4.755   5.623  0.5607  0.4941 -0.0576
 1496TIP3   OH225978   5.618   1.102  12.189 -0.2230 -0.2505  0.1536
 1496TIP3    H125979   5.692   1.049  12.217 -0.8316 -0.3876  1.5325
 1496TIP3    H225980   5.589   1.062  12.107  0.6205 -0.7769  0.1125
 1497TIP3   OH225981   2.480   4.054   2.291  0.6031 -0.2468 -0.1613
 1497TIP3    H125982   2.460   4.047   2.384 -1.3839 -0.2245 -0.5706
 1497TIP3    H225983   2.570   4.024   2.284  0.5500 -0.9009  1.6772
 1498TIP3   OH225984   2.784   4.766   3.947  0.2020 -0.3976 -0.5818
 1498TIP3    H125985   2.774   4.783   3.853 -1.1833 -0.0806 -0.3866
 1498TIP3    H225986   2.833   4.684   3.951 -1.7205 -1.6401 -1.6158
 1499TIP3   OH225987   6.680   6.146   4.575 -0.1904  0.1642 -0.8638
 1499TIP3    H125988   6.594   6.136   4.534  0.6393 -0.0282 -2.6014
 1499TIP3    H225989   6.740   6.103   4.515  1.0683 -0.1487  0.5910
 1500TIP3   OH225990   5.671   4.872  16.915  0.4162 -0.0314 -0.5356
 1500TIP3    H125991   5.624   4.885  16.997 -0.5411  0.1749 -1.1172
 1500TIP3    H225992   5.629   4.796  16.875  0.3634  0.3430 -1.2048
 1501TIP3   OH225993   2.745   4.681  12.246 -0.3526 -0.3954 -0.1952
 1501TIP3    H125994   2.704   4.705  12.163 -0.6215 -0.3918 -0.0614
 1501TIP3    H225995   2.839   4.687  12.229 -0.4134  0.2483 -0.3163
 1502TIP3   OH225996   5.170   4.168  11.902  0.2973  0.3893 -0.2961
 1502TIP3    H125997   5.204   4.199  11.818 -0.3523  1.8676 -0.0321
 1502TIP3    H225998   5.246   4.170  11.961  0.6839 -0.3479 -0.7729
 1503TIP3   OH225999   4.175   3.909  16.202  0.0508 -0.2919  0.5411
 1503TIP3    H126000   4.194   3.910  16.108 -1.2205  0.7557  0.2826
 1503TIP3    H226001   4.208   3.993  16.235  0.8546 -0.8252  1.1105
 1504TIP3   OH226002   1.236   1.883  11.433  0.1257 -0.4324 -0.1569
 1504TIP3    H126003   1.247   1.956  11.371  1.0718 -0.3913  0.0611
 1504TIP3    H226004   1.323   1.871  11.472 -0.5630 -0.1614  1.5059
 1505TIP3   OH226005   4.457   0.475  10.662 -0.0180  0.4367  0.2841
 1505TIP3    H126006   4.521   0.514  10.602  1.6115 -0.3928  1.4503
 1505TIP3    H226007   4.373   0.489  10.619  1.0876  0.1119 -2.0710
 1506TIP3   OH226008   6.182   2.978  12.445 -0.0953 -0.1432 -0.0975
 1506TIP3    H126009   6.259   2.934  12.410 -0.4447 -0.6269 -0.2660
 1506TIP3    H226010   6.108   2.940  12.397 -0.8834 -2.9547  3.1478
 1507TIP3   OH226011   2.570   1.052   0.478 -0.3631 -0.6875 -0.2479
 1507TIP3    H126012   2.665   1.055   0.487 -0.0918 -2.8596 -2.1352
 1507TIP3    H226013   2.548   1.134   0.433  0.4274  0.5578  1.6095
 1508TIP3   OH226014   4.673   0.818  12.644  0.0581 -0.0656  0.4376
 1508TIP3    H126015   4.584   0.809  12.611 -0.1371  0.5779  0.7872
 1508TIP3    H226016   4.663   0.821  12.740  0.3122  1.5246  0.4273
 1509TIP3   OH226017   6.528   4.814   4.583  0.3311 -0.3820  0.3880
 1509TIP3    H126018   6.615   4.855   4.582  0.4787 -0.6965 -0.9910
 1509TIP3    H226019   6.478   4.866   4.646  0.7218  1.5267 -0.8306
 1510TIP3   OH226020   3.026   4.770  12.004 -0.2356  0.2377  0.3180
 1510TIP3    H126021   2.996   4.739  11.918 -0.2427 -0.5758  0.6089
 1510TIP3    H226022   2.968   4.843  12.025 -1.5667 -0.8823  0.5601
 1511TIP3   OH226023   2.704   4.952   5.885  0.1175  0.2664  0.1537
 1511TIP3    H126024   2.714   4.889   5.814 -0.5548 -1.4300  1.5308
 1511TIP3    H226025   2.780   4.938   5.941  0.4258  1.3085  0.0053
 1512TIP3   OH226026   1.297   6.089   4.919 -0.3602  0.4537  0.3402
 1512TIP3    H126027   1.334   6.075   5.006 -1.5766 -1.1863  0.6119
 1512TIP3    H226028   1.361   6.049   4.860 -0.5276 -0.2504  0.6330
 1513TIP3   OH226029   6.354   6.773  12.625  0.1596 -0.3429  0.2329
 1513TIP3    H126030   6.262   6.787  12.648  0.6422  1.3691  1.1722
 1513TIP3    H226031   6.397   6.751  12.708  0.6732 -0.7649 -0.1386
 1514TIP3   OH226032   5.457   2.756  15.265 -0.3629 -0.4212 -0.2010
 1514TIP3    H126033   5.494   2.844  15.261 -1.0224 -0.1624 -0.6817
 1514TIP3    H226034   5.378   2.760  15.210 -0.1996 -1.4041 -0.5181
 1515TIP3   OH226035   0.564   6.396   1.247 -0.1246  0.1600  0.3198
 1515TIP3    H126036   0.522   6.476   1.215 -0.7789  0.2325  1.3488
 1515TIP3    H226037   0.492   6.342   1.279  0.4045 -0.4671  0.4652
 1516TIP3   OH226038   2.893   4.480  10.873 -0.4199  0.1154  0.4953
 1516TIP3    H126039   2.818   4.425  10.849 -1.0461  1.3275 -0.3671
 1516TIP3    H226040   2.918   4.524  10.791  0.4433  0.6659  1.0436
 1517TIP3   OH226041   6.588   6.211   4.236 -0.2444  0.1121 -0.5550
 1517TIP3    H126042   6.532   6.268   4.288 -1.0026  1.0403 -2.3458
 1517TIP3    H226043   6.672   6.257   4.233 -0.3885  0.3681 -0.6866
 1518TIP3   OH226044   1.734   3.315  14.756 -0.0070 -0.6210 -0.1256
 1518TIP3    H126045   1.751   3.350  14.669 -0.8519 -0.4326 -0.2138
 1518TIP3    H226046   1.657   3.260  14.746 -1.8330  1.6608  1.0677
 1519TIP3   OH226047   5.387   5.310  14.509  0.4128  0.4788  0.3430
 1519TIP3    H126048   5.331   5.380  14.475  0.7774  0.9458  0.7166
 1519TIP3    H226049   5.339   5.229  14.487  1.4526  0.6548 -2.8296
 1520TIP3   OH226050   3.415   0.123  16.589  0.0004 -0.0238 -0.3047
 1520TIP3    H126051   3.360   0.195  16.622 -1.9740 -1.8708  0.5616
 1520TIP3    H226052   3.454   0.158  16.509  0.3070  2.5498  0.9256
 1521TIP3   OH226053   1.050   6.332   5.930 -0.7467  0.2499 -0.4824
 1521TIP3    H126054   0.993   6.256   5.920 -2.5122  1.2928  1.3214
 1521TIP3    H226055   0.991   6.405   5.950  1.1545  1.4698  0.9412
 1522TIP3   OH226056   1.644   3.575  12.548  0.2968 -0.2621 -0.0942
 1522TIP3    H126057   1.654   3.670  12.553  1.9925 -0.3203 -1.7449
 1522TIP3    H226058   1.640   3.557  12.455  2.6627 -2.0375  0.1035
 1523TIP3   OH226059   6.586   6.297  13.220 -0.1737 -0.5226 -0.3803
 1523TIP3    H126060   6.567   6.390  13.232 -0.3001 -0.3787 -1.6399
 1523TIP3    H226061   6.554   6.255  13.300  0.1587  0.5532  0.3236
 1524TIP3   OH226062   4.031   3.988  10.722 -0.1438  0.0973  0.0798
 1524TIP3    H126063   3.997   4.060  10.669  2.7427  0.7152 -0.9916
 1524TIP3    H226064   4.074   3.930  10.659 -1.0262 -1.7636  1.1408
 1525TIP3   OH226065   4.273   2.288  12.433  0.3118  0.3709 -0.2589
 1525TIP3    H126066   4.268   2.376  12.396  0.3844 -0.4823 -2.3555
 1525TIP3    H226067   4.367   2.270  12.438  0.4030  1.2549  2.3395
 1526TIP3   OH226068   5.988   5.427   5.856  0.2224  0.4391 -0.3429
 1526TIP3    H126069   6.073   5.395   5.826  1.0309  1.4569  0.8222
 1526TIP3    H226070   5.983   5.401   5.948 -0.7562  0.3067 -0.4349
 1527TIP3   OH226071   0.750   5.457   3.045  0.1237  0.9508  0.2653
 1527TIP3    H126072   0.809   5.392   3.084 -0.6860  0.2180  0.3029
 1527TIP3    H226073   0.728   5.420   2.959 -1.3349  0.5341  0.7899
 1528TIP3   OH226074   0.265   2.708   2.021 -0.4170  0.2375  0.9061
 1528TIP3    H126075   0.182   2.754   2.008 -1.0876 -1.4612 -1.0284
 1528TIP3    H226076   0.240   2.616   2.030  1.2242 -0.2177  0.9560
 1529TIP3   OH226077   5.699   1.363  16.641 -0.2640  0.2643 -0.4534
 1529TIP3    H126078   5.639   1.429  16.607  0.2658  0.5078 -0.9279
 1529TIP3    H226079   5.670   1.281  16.601 -0.3281  0.3688 -0.6184
 1530TIP3   OH226080   5.318   0.596  10.584  0.7210  0.3904  0.1066
 1530TIP3    H126081   5.316   0.648  10.664 -0.1601 -1.0911  1.0789
 1530TIP3    H226082   5.269   0.517  10.606  0.7769 -0.1935 -1.7925
 1531TIP3   OH226083   4.672   6.478   0.634  0.6351  0.4376 -0.5552
 1531TIP3    H126084   4.611   6.482   0.707  1.2743 -1.5524  0.1398
 1531TIP3    H226085   4.621   6.444   0.561  0.1936  1.6564 -0.8233
 1532TIP3   OH226086   3.079   2.155  16.082 -0.4258 -0.0260  0.0486
 1532TIP3    H126087   3.147   2.115  16.137 -0.3490 -0.0039 -0.0306
 1532TIP3    H226088   3.121   2.233  16.045  0.1395 -1.0516 -1.5221
 1533TIP3   OH226089   3.863   6.543  12.454  0.2076  0.2976 -0.2276
 1533TIP3    H126090   3.928   6.473  12.449  0.3897  0.4408  0.1295
 1533TIP3    H226091   3.812   6.534  12.374 -0.8132 -1.2425  0.5825
 1534TIP3   OH226092   5.696   2.840   3.583 -0.3827 -0.3953  0.3485
 1534TIP3    H126093   5.677   2.783   3.510 -0.5335 -0.6005  0.5481
 1534TIP3    H226094   5.614   2.845   3.632 -0.2054 -0.4848  0.6582
 1535TIP3   OH226095   0.420   6.811   4.513  0.3751 -0.4220 -0.1267
 1535TIP3    H126096   0.452   6.901   4.504 -0.0780 -0.1866  0.6176
 1535TIP3    H226097   0.444   6.785   4.602  0.5169 -1.0430 -0.3431
 1536TIP3   OH226098   0.070   1.896   5.691  0.2130 -0.4025  0.1398
 1536TIP3    H126099   0.060   1.925   5.600  1.2692 -1.1999 -0.2422
 1536TIP3    H226100   0.023   1.962   5.742 -2.4404 -1.2334 -1.1516
 1537TIP3   OH226101   1.007   2.659   1.034  0.0110 -0.0923  0.0830
 1537TIP3    H126102   1.047   2.743   1.056 -0.3468 -0.3027  1.5964
 1537TIP3    H226103   0.913   2.679   1.025  0.0133 -0.2098 -0.2165
 1538TIP3   OH226104   2.935   2.056  13.246  0.2895 -0.0884  0.1007
 1538TIP3    H126105   2.933   2.054  13.150 -1.7665 -0.9714  0.1501
 1538TIP3    H226106   2.845   2.040  13.272  1.1712 -1.6468  2.2364
 1539TIP3   OH226107   3.167   0.940  14.464  0.1089  0.7692 -0.5211
 1539TIP3    H126108   3.172   0.888  14.383  3.1687  0.1849 -0.0399
 1539TIP3    H226109   3.185   1.030  14.436 -0.1888  0.7778 -0.6831
 1540TIP3   OH226110   5.996   2.597   5.444 -0.2618  0.0972  0.2760
 1540TIP3    H126111   6.064   2.530   5.449 -1.0351 -0.7382 -0.1638
 1540TIP3    H226112   6.029   2.660   5.380  0.0392 -0.3707 -0.0329
 1541TIP3   OH226113   2.427   5.184   5.406  0.4446  0.1274 -0.1902
 1541TIP3    H126114   2.437   5.091   5.423  1.7688 -0.0237 -1.6868
 1541TIP3    H226115   2.444   5.226   5.490  0.9168 -0.9162  0.2359
 1542TIP3   OH226116   1.268   4.693   0.497  0.1949  0.6155 -0.0781
 1542TIP3    H126117   1.305   4.644   0.424  1.4955 -1.0123  1.6169
 1542TIP3    H226118   1.329   4.766   0.511  1.3104 -0.4871  0.9377
 1543TIP3   OH226119   2.151   4.778   2.067 -0.2826  0.2781  0.2112
 1543TIP3    H126120   2.161   4.714   2.137  0.6569  2.2186  1.9165
 1543TIP3    H226121   2.152   4.726   1.986  1.2747 -1.7541  1.4912
 1544TIP3   OH226122   1.298   4.810   5.026  0.2721  0.2640 -0.1209
 1544TIP3    H126123   1.219   4.863   5.036  0.5535  0.9713 -1.5396
 1544TIP3    H226124   1.297   4.784   4.934 -0.6594 -3.4564  0.8528
 1545TIP3   OH226125   0.248   5.713  13.781 -0.1801 -0.1879  0.7296
 1545TIP3    H126126   0.303   5.639  13.758 -1.0755 -0.0656 -1.9773
 1545TIP3    H226127   0.159   5.678  13.782 -0.4246  0.4273  1.4479
 1546TIP3   OH226128   3.965   3.726  13.589  0.2143  0.0152 -0.5395
 1546TIP3    H126129   4.017   3.657  13.633 -0.2295  0.1248  0.1614
 1546TIP3    H226130   3.915   3.766  13.659  0.9094  1.4580 -0.8590
 1547TIP3   OH226131   5.724   2.992   2.942  0.2863  0.0594 -0.3227
 1547TIP3    H126132   5.640   3.024   2.974  1.4799  0.5524  2.5067
 1547TIP3    H226133   5.713   2.897   2.937 -0.9463  0.2601 -1.6065
 1548TIP3   OH226134   5.312   0.299  16.442  0.8875  0.1344  0.2097
 1548TIP3    H126135   5.382   0.351  16.403  2.5426 -2.6969 -0.6781
 1548TIP3    H226136   5.343   0.279  16.531  0.8438 -0.4616  0.0882
 1549TIP3   OH226137   3.321   6.770   5.383  0.0418 -0.0907  0.0148
 1549TIP3    H126138   3.241   6.740   5.340  0.2626 -0.3953 -0.1880
 1549TIP3    H226139   3.292   6.797   5.470 -0.4850  0.9894 -0.4940
 1550TIP3   OH226140   1.583   1.046   1.479 -0.0776 -0.2101  0.7285
 1550TIP3    H126141   1.671   1.083   1.477  0.2075 -0.8596  1.0537
 1550TIP3    H226142   1.527   1.115   1.444  0.5574  0.2151  0.5445
 1551TIP3   OH226143   2.096   3.290  12.941 -0.0930  0.6134  0.2585
 1551TIP3    H126144   2.120   3.215  12.887 -2.1260  0.4623 -0.4611
 1551TIP3    H226145   2.101   3.365  12.881 -0.7283  0.6755  0.2833
 1552TIP3   OH226146   4.577   6.589  15.265 -0.1889 -0.2899  0.1507
 1552TIP3    H126147   4.630   6.668  15.257 -1.2418  0.5720  1.3308
 1552TIP3    H226148   4.522   6.589  15.186 -1.5050  1.1924  1.0330
 1553TIP3   OH226149   2.471   1.981   0.754 -0.4140 -0.4645 -0.7315
 1553TIP3    H126150   2.489   1.893   0.786 -1.6001 -0.0688  1.1006
 1553TIP3    H226151   2.556   2.026   0.758 -0.6202 -0.2555  2.5200
 1554TIP3   OH226152   0.492   3.234   3.273  0.6980 -0.0296 -0.3180
 1554TIP3    H126153   0.467   3.175   3.202  1.2644 -0.5072 -0.1261
 1554TIP3    H226154   0.414   3.240   3.328  0.8352 -1.1216  0.0144
 1555TIP3   OH226155   2.176   0.237  16.342 -0.3120 -0.0235  0.1771
 1555TIP3    H126156   2.190   0.148  16.310 -0.0057  0.0501  0.0955
 1555TIP3    H226157   2.090   0.235  16.384 -0.2213 -0.4047  0.3434
 1556TIP3   OH226158   3.328   2.972  13.666  0.4875  0.4342 -0.5339
 1556TIP3    H126159   3.255   2.915  13.640 -0.3239  2.2929 -2.4871
 1556TIP3    H226160   3.400   2.946  13.609  1.2177 -1.0325  1.0273
 1557TIP3   OH226161   6.473   5.924  10.671 -0.7464  0.1282  0.1000
 1557TIP3    H126162   6.464   6.018  10.686  1.3171  0.5184 -0.9809
 1557TIP3    H226163   6.568   5.909  10.667 -1.0286 -2.1458  1.1522
 1558TIP3   OH226164   1.563   2.239   0.528 -0.2235 -0.0701 -0.1220
 1558TIP3    H126165   1.574   2.308   0.593 -0.3042 -0.8624  0.7560
 1558TIP3    H226166   1.469   2.222   0.526 -0.3252  0.6126 -1.1490
 1559TIP3   OH226167   0.995   5.130   2.392  0.2242  0.1125 -0.1380
 1559TIP3    H126168   0.947   5.123   2.474 -0.7646 -0.4401 -0.7436
 1559TIP3    H226169   1.038   5.045   2.381 -0.6560 -0.2556 -0.7936
 1560TIP3   OH226170   4.206   0.096   4.529  0.2270 -0.1331 -0.0291
 1560TIP3    H126171   4.250   0.129   4.450 -1.6161 -0.2961 -1.1438
 1560TIP3    H226172   4.276   0.054   4.579  1.0644 -1.8975 -2.5779
 1561TIP3   OH226173   2.735   5.032   5.398  0.0231 -0.3934  0.0266
 1561TIP3    H126174   2.727   4.942   5.428 -2.8187  0.2195  1.3097
 1561TIP3    H226175   2.708   5.030   5.306  2.0776 -1.1548 -0.5947
 1562TIP3   OH226176   0.523   5.520   0.963  0.4768 -0.4740 -0.3700
 1562TIP3    H126177   0.481   5.604   0.981  0.1661 -0.9962  1.3798
 1562TIP3    H226178   0.455   5.468   0.920  0.8144  0.3036 -1.9017
 1563TIP3   OH226179   4.386   3.562  16.527 -0.3184  0.0958 -0.4485
 1563TIP3    H126180   4.331   3.615  16.470  0.2863 -0.2938 -1.4008
 1563TIP3    H226181   4.410   3.620  16.598 -0.3272  0.8544 -1.0621
 1564TIP3   OH226182   3.395   2.472  12.734 -0.3429 -0.2365  0.2039
 1564TIP3    H126183   3.361   2.556  12.765 -0.2003  0.2445 -0.9019
 1564TIP3    H226184   3.455   2.443  12.802 -1.5180 -0.1625  1.2871
 1565TIP3   OH226185   0.818   2.079  13.077 -0.0383  0.8799  0.2606
 1565TIP3    H126186   0.801   2.025  13.000 -0.3853  1.2467  0.0761
 1565TIP3    H226187   0.788   2.167  13.052  0.0228  1.0427  0.7445
 1566TIP3   OH226188   4.761   0.500   4.398 -0.3052 -0.6471  0.1968
 1566TIP3    H126189   4.720   0.584   4.376 -1.2220 -1.9262 -3.3534
 1566TIP3    H226190   4.699   0.457   4.456 -1.6133 -0.3845 -0.9826
 1567TIP3   OH226191   1.474   0.266   0.392 -0.1479  0.2968 -0.3065
 1567TIP3    H126192   1.532   0.194   0.418  2.1174  1.6377 -1.5299
 1567TIP3    H226193   1.462   0.317   0.472 -0.8295 -0.7776  0.2935
 1568TIP3   OH226194   1.392   5.553  16.117 -0.3993 -0.5510 -0.6873
 1568TIP3    H126195   1.383   5.484  16.182  0.3017 -1.7383 -1.8433
 1568TIP3    H226196   1.302   5.573  16.092 -0.7034  0.1707  0.8841
 1569TIP3   OH226197   0.090   2.875   4.613 -0.3359  0.0984  0.1590
 1569TIP3    H126198   0.058   2.838   4.531  2.8204 -2.1220 -0.1467
 1569TIP3    H226199   0.120   2.963   4.590  0.9735 -0.6904 -1.1671
 1570TIP3   OH226200   4.150   2.825  12.839 -0.2709  0.0615 -0.3343
 1570TIP3    H126201   4.128   2.804  12.748 -0.1694  0.2981 -0.4143
 1570TIP3    H226202   4.240   2.856  12.836  0.5364 -2.1291  0.1792
 1571TIP3   OH226203   0.359   2.990   4.539 -0.3706 -0.2375  0.2006
 1571TIP3    H126204   0.377   3.034   4.622  1.8746  1.8218 -1.3222
 1571TIP3    H226205   0.438   3.005   4.486 -1.5377 -1.9731 -2.1061
 1572TIP3   OH226206   0.731   0.801   0.391 -0.3658 -0.0993  0.2239
 1572TIP3    H126207   0.684   0.871   0.436  0.3897  1.4373 -1.3203
 1572TIP3    H226208   0.727   0.726   0.451 -3.8160  0.3190  0.6094
 1573TIP3   OH226209   0.698   3.021  14.507 -0.1140  0.2488 -0.1683
 1573TIP3    H126210   0.631   2.996  14.443  0.7962 -0.5190 -0.8370
 1573TIP3    H226211   0.650   3.032  14.589 -0.9762 -0.8677 -0.5160
 1574TIP3   OH226212   0.279   3.387   1.559  0.4631  0.2047  0.2220
 1574TIP3    H126213   0.249   3.473   1.529  0.5281  0.4017  0.7183
 1574TIP3    H226214   0.371   3.400   1.581  1.3126 -0.7193 -2.5812
 1575TIP3   OH226215   0.242   1.732   1.291 -0.7953 -0.1040 -0.5324
 1575TIP3    H126216   0.266   1.650   1.247 -0.1505  0.1233 -0.6003
 1575TIP3    H226217   0.197   1.783   1.224 -0.2737  0.0289 -0.7790
 1576TIP3   OH226218   6.047   6.705   2.576  0.1571  0.5071  0.3344
 1576TIP3    H126219   5.979   6.735   2.516  0.8928 -0.1898 -0.8496
 1576TIP3    H226220   6.125   6.694   2.522  0.7636 -0.3841  1.3624
 1577TIP3   OH226221   4.541   3.334  12.407 -0.1798 -0.5909  0.3794
 1577TIP3    H126222   4.588   3.412  12.437 -1.2291 -0.3953  1.5751
 1577TIP3    H226223   4.594   3.261  12.436  1.4384 -0.3376 -1.7980
 1578TIP3   OH226224   3.022   1.405   2.560 -0.2285 -0.1432  0.1271
 1578TIP3    H126225   2.989   1.346   2.628 -1.5734  0.5047  0.0602
 1578TIP3    H226226   3.082   1.464   2.605 -0.8417  0.0536  0.6964
 1579TIP3   OH226227   1.100   3.821   3.269  0.3446  0.5712  0.6221
 1579TIP3    H126228   1.191   3.808   3.295  0.0674  0.5477  1.6036
 1579TIP3    H226229   1.098   3.800   3.175  1.4535  1.1217  0.4742
 1580TIP3   OH226230   2.231   2.183  14.474  0.0611  0.0260 -0.4237
 1580TIP3    H126231   2.278   2.125  14.416  0.9960  0.8900 -0.5474
 1580TIP3    H226232   2.143   2.146  14.480  0.0719 -0.2792 -2.0796
 1581TIP3   OH226233   1.696   6.737  14.125 -0.0281 -0.1623  0.3932
 1581TIP3    H126234   1.622   6.721  14.184 -1.2448 -2.4731 -1.6539
 1581TIP3    H226235   1.661   6.718  14.038  2.7614 -0.5239 -0.6877
 1582TIP3   OH226236   2.852   1.161  17.032 -0.4235 -0.6261 -0.1000
 1582TIP3    H126237   2.921   1.156  16.966  0.3890  0.1309  0.6806
 1582TIP3    H226238   2.854   1.077  17.076 -0.4182 -0.8312 -0.4896
 1583TIP3   OH226239   5.756   6.751  12.927  0.2589  0.0645  0.3478
 1583TIP3    H126240   5.733   6.692  12.999  1.8565  1.5699  2.1378
 1583TIP3    H226241   5.812   6.698  12.870  0.7973 -0.4994  1.3760
 1584TIP3   OH226242   2.672   4.775   1.732 -0.9031  0.2956  0.1163
 1584TIP3    H126243   2.690   4.832   1.658  0.6908 -0.7075 -0.3002
 1584TIP3    H226244   2.681   4.686   1.696 -0.0045 -0.1921  1.5380
 1585TIP3   OH226245   4.708   5.863   0.878  0.5421  0.0149  0.4590
 1585TIP3    H126246   4.800   5.859   0.901  0.5291  0.3874  0.5783
 1585TIP3    H226247   4.700   5.807   0.801  0.4728 -1.7337  1.6986
 1586TIP3   OH226248   1.693   5.798  12.190 -0.3611  0.7721  0.0408
 1586TIP3    H126249   1.758   5.860  12.221 -3.5240  4.1412  0.2682
 1586TIP3    H226250   1.613   5.821  12.238 -2.3442 -1.6321 -1.9726
 1587TIP3   OH226251   3.081   2.125  12.963 -0.4630  0.0842 -0.5053
 1587TIP3    H126252   3.077   2.203  13.018 -1.3787 -0.0603 -0.3534
 1587TIP3    H226253   3.001   2.129  12.910  0.3950  0.2223 -1.8296
 1588TIP3   OH226254   2.037   0.609   3.211  0.1697 -0.2266  0.4216
 1588TIP3    H126255   2.057   0.537   3.271  1.3879  0.7628  1.2359
 1588TIP3    H226256   2.058   0.688   3.261 -1.7714  0.7231 -0.2252
 1589TIP3   OH226257   1.781   3.034  11.795  0.2693  1.0007 -0.3351
 1589TIP3    H126258   1.764   2.979  11.719  0.8739 -1.9499  1.6091
 1589TIP3    H226259   1.695   3.047  11.835  0.2135  0.9691 -0.4444
 1590TIP3   OH226260   1.878   5.555  14.641  0.1949  0.6233  0.0247
 1590TIP3    H126261   1.945   5.623  14.632  1.3844 -0.3426  1.2925
 1590TIP3    H226262   1.859   5.527  14.552  0.9145  1.4580 -0.3952
 1591TIP3   OH226263   4.247   1.913   4.998  0.1936  0.4022 -0.0666
 1591TIP3    H126264   4.322   1.898   5.056  0.4999  1.7082 -0.1049
 1591TIP3    H226265   4.285   1.953   4.920 -0.3517 -0.4166 -0.7623
 1592TIP3   OH226266   5.565   6.241   1.792  0.6921  0.3599  0.8187
 1592TIP3    H126267   5.595   6.180   1.724 -0.1423  2.3991 -1.4580
 1592TIP3    H226268   5.505   6.189   1.846  0.4382 -0.9890 -0.7077
 1593TIP3   OH226269   5.662   0.223  15.510 -0.4686 -0.1473  0.1321
 1593TIP3    H126270   5.570   0.203  15.491 -0.3960  0.8370 -1.2916
 1593TIP3    H226271   5.696   0.142  15.549 -1.5727 -0.9800 -0.5929
 1594TIP3   OH226272   2.814   2.144  11.116  0.3219 -0.0108  0.1159
 1594TIP3    H126273   2.907   2.139  11.094  0.5412 -0.0323  1.0266
 1594TIP3    H226274   2.802   2.233  11.150  0.0943 -0.1370  0.3682
 1595TIP3   OH226275   2.557   4.427   0.927  0.0499 -0.5678  0.6055
 1595TIP3    H126276   2.635   4.372   0.918 -0.2617 -1.1440  1.3718
 1595TIP3    H226277   2.562   4.460   1.017 -0.6642 -0.7157  0.6977
 1596TIP3   OH226278   0.957   2.855  11.197 -0.6507 -0.6342  0.2530
 1596TIP3    H126279   0.981   2.930  11.142 -2.3339  0.3582  0.8375
 1596TIP3    H226280   1.015   2.784  11.168 -0.5507  0.2725 -1.8261
 1597TIP3   OH226281   2.022   5.270   2.117 -0.2257  0.0523  0.5469
 1597TIP3    H126282   2.019   5.310   2.203  0.6675 -0.4380  0.8137
 1597TIP3    H226283   2.002   5.177   2.133  0.1291 -0.0774  0.2622
 1598TIP3   OH226284   5.841   6.515  14.368  0.7269  0.6928  0.7103
 1598TIP3    H126285   5.770   6.578  14.362  0.2685  0.0877 -0.3093
 1598TIP3    H226286   5.840   6.486  14.460  0.8179  2.0005  1.1369
 1599TIP3   OH226287   0.646   1.048   0.904 -0.1194  0.2068 -0.0074
 1599TIP3    H126288   0.565   1.097   0.921  0.3259  1.2252 -0.7204
 1599TIP3    H226289   0.693   1.050   0.987  0.6422  2.4484 -0.4449
 1600TIP3   OH226290   3.623   1.449   4.244 -0.0962 -0.1960 -0.0795
 1600TIP3    H126291   3.533   1.481   4.240 -0.6360 -1.7241 -0.4742
 1600TIP3    H226292   3.673   1.511   4.191 -1.3990 -0.8810 -2.1705
 1601TIP3   OH226293   6.654   5.386  12.147  0.2403 -0.0890  0.8900
 1601TIP3    H126294   6.581   5.440  12.116  1.6345  2.2030  1.5148
 1601TIP3    H226295   6.717   5.387  12.075 -0.7646 -3.0340 -0.1298
 1602TIP3   OH226296   1.053   0.602   6.150  0.3422 -0.0476  0.9720
 1602TIP3    H126297   1.005   0.672   6.105 -0.2102 -0.7245  0.4940
 1602TIP3    H226298   1.025   0.608   6.241 -0.0808  0.0461  0.8371
 1603TIP3   OH226299   3.971   0.576   0.275  0.2481 -0.1723  0.2580
 1603TIP3    H126300   3.960   0.603   0.366 -0.2147  0.6760 -0.0487
 1603TIP3    H226301   3.886   0.594   0.234  1.0223  1.1900 -0.7820
 1604TIP3   OH226302   0.842   4.306  14.283  0.1804 -0.0451 -0.0382
 1604TIP3    H126303   0.872   4.228  14.237  0.8002 -0.1473  0.5308
 1604TIP3    H226304   0.748   4.292  14.296  0.0684 -0.1567 -0.9912
 1605TIP3   OH226305   4.614   0.670  16.154 -0.5289  0.0040  0.6539
 1605TIP3    H126306   4.646   0.689  16.243 -1.2031  1.2809  0.6275
 1605TIP3    H226307   4.553   0.597  16.166 -0.2340 -0.1614  1.1723
 1606TIP3   OH226308   3.959   6.359   5.622  0.3385  0.2407  0.2872
 1606TIP3    H126309   3.985   6.280   5.574  2.0734  0.8975  0.0916
 1606TIP3    H226310   3.865   6.349   5.636 -0.0163 -0.5244 -2.2508
 1607TIP3   OH226311   2.450   3.989   2.037 -0.0638  0.0424 -0.2798
 1607TIP3    H126312   2.369   3.938   2.038  1.4032 -2.3957  1.3868
 1607TIP3    H226313   2.465   4.012   2.129 -0.0523  2.4886 -0.8545
 1608TIP3   OH226314   1.504   6.484  13.381 -1.0753 -0.4715  0.1724
 1608TIP3    H126315   1.536   6.484  13.291  1.9122 -0.7510  1.1713
 1608TIP3    H226316   1.548   6.409  13.421  0.0821  1.4843  2.6606
 1609TIP3   OH226317   6.015   6.018   3.798  0.2784 -0.5942 -0.0215
 1609TIP3    H126318   6.033   5.925   3.790  1.0233 -0.2890 -2.1682
 1609TIP3    H226319   6.099   6.060   3.780  0.2270  0.4783  2.0362
 1610TIP3   OH226320   5.852   3.709   5.499  0.1771  0.8445 -0.1036
 1610TIP3    H126321   5.885   3.636   5.446  0.0310  1.0698 -0.5033
 1610TIP3    H226322   5.836   3.779   5.437 -0.5923  0.9012  0.1577
 1611TIP3   OH226323   4.572   3.605  14.277  0.0960 -0.0558  0.4496
 1611TIP3    H126324   4.667   3.592  14.278  0.0151 -0.6548  0.1906
 1611TIP3    H226325   4.550   3.612  14.184 -0.0723  0.4096  0.5194
 1612TIP3   OH226326   0.737   2.557   3.156  0.0218 -0.0593 -0.9511
 1612TIP3    H126327   0.679   2.569   3.082 -0.6100  0.6715 -0.3415
 1612TIP3    H226328   0.683   2.514   3.222  0.3431  0.0682 -0.6002
 1613TIP3   OH226329   0.300   6.303  16.990  0.1471 -0.1364  0.1567
 1613TIP3    H126330   0.212   6.305  16.951  0.0829  0.4070  0.3171
 1613TIP3    H226331   0.349   6.242  16.936 -0.5311 -0.9897  0.4793
 1614TIP3   OH226332   0.808   5.043  14.568  0.5325 -0.2237 -0.1077
 1614TIP3    H126333   0.795   5.110  14.501  0.6575 -1.7091 -1.6435
 1614TIP3    H226334   0.731   4.986  14.560  0.0526  0.1319  1.6926
 1615TIP3   OH226335   6.120   0.975  12.018 -0.5191  0.7929 -0.0610
 1615TIP3    H126336   6.107   1.066  11.992 -0.2723  0.2590 -2.1446
 1615TIP3    H226337   6.034   0.934  12.005 -0.1138  0.2680 -1.1402
 1616TIP3   OH226338   2.630   1.808   2.689  0.0225  0.5670 -0.3320
 1616TIP3    H126339   2.628   1.903   2.683 -0.0428  0.6476  0.7739
 1616TIP3    H226340   2.703   1.788   2.748 -0.9476  0.0252  0.7178
 1617TIP3   OH226341   5.786   3.376  11.809  0.1696  0.6789 -0.7324
 1617TIP3    H126342   5.828   3.332  11.735  0.8907  1.0720 -0.5593
 1617TIP3    H226343   5.693   3.377  11.787 -0.0286 -2.1184 -0.1195
 1618TIP3   OH226344   1.477   0.370  13.185 -0.8394 -0.2858  0.0067
 1618TIP3    H126345   1.400   0.403  13.139 -0.5190 -1.3200 -1.2832
 1618TIP3    H226346   1.458   0.386  13.278 -1.5499  1.6738 -0.4456
 1619TIP3   OH226347   0.147   4.088  10.982  0.3720 -0.0542  0.3375
 1619TIP3    H126348   0.162   4.062  10.891  1.5554  3.1136 -0.4389
 1619TIP3    H226349   0.053   4.106  10.988  0.3861  0.2823 -0.4333
 1620TIP3   OH226350   6.594   5.215  17.132 -0.1405 -0.1534  0.1673
 1620TIP3    H126351   6.594   5.192  17.040  0.9793 -1.3028  0.4592
 1620TIP3    H226352   6.514   5.268  17.143  0.4361  1.1353 -1.7195
 1621TIP3   OH226353   5.667   1.875  15.179  0.1614 -0.3588 -0.5884
 1621TIP3    H126354   5.605   1.931  15.132 -3.5290 -1.9301  2.1438
 1621TIP3    H226355   5.644   1.786  15.154  1.7781 -0.9740  0.0030
 1622TIP3   OH226356   6.084   4.325  14.968  0.2392  0.0553  0.1432
 1622TIP3    H126357   6.132   4.278  15.037  0.5070 -0.5527 -0.4506
 1622TIP3    H226358   6.124   4.295  14.886 -2.0883 -1.5249 -0.4591
 1623TIP3   OH226359   4.848   1.504  12.152  0.5764 -0.4949  0.3548
 1623TIP3    H126360   4.837   1.599  12.139 -1.1386 -0.3354  2.5845
 1623TIP3    H226361   4.878   1.496  12.242  0.2332 -2.1122  0.3305
 1624TIP3   OH226362   4.407   2.553  14.312 -0.1265 -0.6095  0.3229
 1624TIP3    H126363   4.475   2.564  14.245 -0.5906 -1.9705 -0.3949
 1624TIP3    H226364   4.328   2.533  14.263 -1.3601  2.1402  1.0967
 1625TIP3   OH226365   0.088   0.329   4.102 -0.4477 -0.1636  0.1830
 1625TIP3    H126366   0.026   0.287   4.042 -2.6933  0.1063  2.2099
 1625TIP3    H226367   0.110   0.412   4.059 -1.4335 -0.3000 -0.6243
 1626TIP3   OH226368   3.446   4.710   0.535  0.8326 -0.2433 -0.3744
 1626TIP3    H126369   3.479   4.789   0.492 -0.1690  1.6958  2.3377
 1626TIP3    H226370   3.458   4.726   0.628 -1.5029 -2.3383  0.3268
 1627TIP3   OH226371   0.512   2.694   3.879 -0.4356  0.2342 -0.4687
 1627TIP3    H126372   0.448   2.671   3.946 -0.9948 -0.1361 -1.1221
 1627TIP3    H226373   0.464   2.688   3.796  0.6971 -1.0854 -1.0558
 1628TIP3   OH226374   4.344   4.608  11.961 -0.5369  0.3299  0.0797
 1628TIP3    H126375   4.253   4.633  11.971 -1.0611 -1.8692  1.1841
 1628TIP3    H226376   4.392   4.663  12.023 -1.1464  1.2660 -0.2854
 1629TIP3   OH226377   0.795   2.675   2.197 -0.8242 -0.4341  0.0453
 1629TIP3    H126378   0.785   2.604   2.260 -0.3196 -0.0234  0.5942
 1629TIP3    H226379   0.729   2.740   2.222  0.1495  0.2496  0.8791
 1630TIP3   OH226380   0.640   3.905   1.894  0.3084  0.3986  0.1742
 1630TIP3    H126381   0.698   3.886   1.821  0.6350 -0.1527  0.5777
 1630TIP3    H226382   0.643   3.826   1.948  0.8686  1.2065  1.3206
 1631TIP3   OH226383   1.221   6.028  16.617  0.6890 -0.3491  0.5343
 1631TIP3    H126384   1.212   6.123  16.623 -0.4957 -0.5586  2.5305
 1631TIP3    H226385   1.162   6.003  16.545  0.7553  0.3746  0.2247
 1632TIP3   OH226386   6.225   1.548  11.566  0.5620  0.3673 -0.8559
 1632TIP3    H126387   6.223   1.638  11.600 -0.3777  0.0223  0.0116
 1632TIP3    H226388   6.146   1.541  11.512 -0.7714 -0.7251  1.1545
 1633TIP3   OH226389   3.139   3.099   5.045 -0.4589  0.0922  0.5159
 1633TIP3    H126390   3.229   3.093   5.077  0.2896  1.2046 -1.2842
 1633TIP3    H226391   3.088   3.047   5.107  1.3398 -0.1300  1.8596
 1634TIP3   OH226392   2.273   1.364   5.064  0.0109  0.5862  0.0803
 1634TIP3    H126393   2.187   1.338   5.098  0.6399 -2.3459 -0.4809
 1634TIP3    H226394   2.314   1.411   5.137 -1.1868  0.0659  1.1112
 1635TIP3   OH226395   1.691   5.239  15.195  0.5866  0.3100 -0.0266
 1635TIP3    H126396   1.669   5.314  15.251 -0.6219 -1.2544  1.6697
 1635TIP3    H226397   1.692   5.275  15.107 -0.5948  2.2126  0.6934
 1636TIP3   OH226398   0.308   6.521   3.148  0.5378 -0.7700  0.0476
 1636TIP3    H126399   0.289   6.463   3.075 -0.2797 -1.0481  0.4736
 1636TIP3    H226400   0.280   6.608   3.119  0.5940 -0.8098 -0.1210
 1637TIP3   OH226401   6.393   5.171   2.556 -0.1834  0.3013 -0.1361
 1637TIP3    H126402   6.393   5.251   2.609 -0.1838 -0.0681  0.4206
 1637TIP3    H226403   6.392   5.100   2.620  2.1564 -0.1808 -0.5780
 1638TIP3   OH226404   3.475   5.146  14.891 -0.3559  0.0021  0.0325
 1638TIP3    H126405   3.523   5.217  14.934  1.5450 -0.2665 -1.5735
 1638TIP3    H226406   3.499   5.153  14.798 -2.4112 -0.9573 -0.5950
 1639TIP3   OH226407   4.461   4.833   2.934 -0.4688  0.1770 -0.1618
 1639TIP3    H126408   4.485   4.762   2.874  0.8998  1.1017 -0.7210
 1639TIP3    H226409   4.440   4.907   2.876  2.5737  1.6289  0.4804
 1640TIP3   OH226410   1.828   4.211   1.418 -0.3589 -0.0011 -0.3836
 1640TIP3    H126411   1.860   4.301   1.428  3.0766 -1.0733 -1.1010
 1640TIP3    H226412   1.907   4.157   1.421 -2.3896 -3.0521  0.3362
 1641TIP3   OH226413   3.586   6.718  15.519 -0.3217 -0.7231 -0.2592
 1641TIP3    H126414   3.553   6.679  15.600 -0.4601 -0.6599 -0.2856
 1641TIP3    H226415   3.509   6.758  15.479  0.3590  2.3895  1.3637
 1642TIP3   OH226416   1.291   2.045   4.794 -0.1384  0.0637  0.8055
 1642TIP3    H126417   1.242   2.045   4.877  0.9026  0.2251  1.4258
 1642TIP3    H226418   1.236   2.095   4.734 -1.3847 -0.9207  1.1062
 1643TIP3   OH226419   2.807   4.186  15.228  0.3469  0.6255 -0.8131
 1643TIP3    H126420   2.854   4.259  15.269 -2.3794  2.9776 -1.7842
 1643TIP3    H226421   2.837   4.187  15.137  0.9732 -0.0841 -0.6267
 1644TIP3   OH226422   0.452   3.619   2.438  0.2118 -0.7736  0.0084
 1644TIP3    H126423   0.370   3.572   2.447  1.4527 -3.0831 -0.4133
 1644TIP3    H226424   0.469   3.655   2.525  0.0723 -2.5208  0.7697
 1645TIP3   OH226425   4.222   2.870  11.715 -0.2126  0.4168  0.2394
 1645TIP3    H126426   4.284   2.802  11.741 -0.1052 -0.7493 -2.8411
 1645TIP3    H226427   4.231   2.938  11.782  2.4652 -0.8817  1.2631
 1646TIP3   OH226428   0.445   0.348  15.234 -0.1892 -0.3436  0.4901
 1646TIP3    H126429   0.378   0.282  15.250  0.3464 -1.6507 -2.2455
 1646TIP3    H226430   0.528   0.300  15.245  0.2505  0.6624  1.5621
 1647TIP3   OH226431   1.998   0.659  11.205 -0.6074 -0.3940  0.1770
 1647TIP3    H126432   2.087   0.651  11.239 -0.6537  0.5680  0.5353
 1647TIP3    H226433   2.000   0.736  11.149 -1.2208 -0.3521  0.2060
 1648TIP3   OH226434   1.179   1.909   5.528 -0.3010  0.1934 -0.3083
 1648TIP3    H126435   1.135   1.848   5.587  1.0795 -0.1886  0.3528
 1648TIP3    H226436   1.109   1.949   5.477 -1.3186 -1.1078  0.0564
 1649TIP3   OH226437   6.109   2.196  15.869  0.1147  0.3016  0.2620
 1649TIP3    H126438   6.030   2.142  15.869  0.2707  0.0736  0.6017
 1649TIP3    H226439   6.146   2.185  15.957  0.5823  0.3254  0.0691
 1650TIP3   OH226440   6.772   2.568   5.155  0.5158 -0.1518  0.0944
 1650TIP3    H126441   6.725   2.493   5.120  1.2103 -0.4512 -0.2185
 1650TIP3    H226442   6.709   2.612   5.212 -0.0055 -0.7753  0.0056
 1651TIP3   OH226443   5.330   5.822  12.337 -0.5563  0.3792 -0.3400
 1651TIP3    H126444   5.333   5.737  12.293  0.7200  0.6213 -0.7646
 1651TIP3    H226445   5.270   5.875  12.285  0.2115  0.3628 -1.2439
 1652TIP3   OH226446   5.933   2.984   1.787  0.1888  0.3661  0.0053
 1652TIP3    H126447   5.996   3.044   1.826 -0.5213  0.8212  0.4422
 1652TIP3    H226448   5.855   3.036   1.772 -0.8688 -0.7499  1.5513
 1653TIP3   OH226449   2.353   0.020  12.065 -0.1754  0.4658  0.4000
 1653TIP3    H126450   2.449   0.023  12.064 -0.1324 -0.6533  0.5805
 1653TIP3    H226451   2.327   0.109  12.087  0.8012  1.1154 -0.9434
 1654TIP3   OH226452   2.769   0.275   3.035 -0.5304  0.1639  0.3509
 1654TIP3    H126453   2.857   0.238   3.031 -0.3001  0.6866  0.4251
 1654TIP3    H226454   2.720   0.230   2.967  0.6028  1.9444 -1.7242
 1655TIP3   OH226455   1.600   0.501   1.609 -0.0029  0.3382 -0.1616
 1655TIP3    H126456   1.641   0.548   1.537 -0.2799 -1.0564 -1.2565
 1655TIP3    H226457   1.519   0.548   1.627  1.0641  1.9166  0.6567
 1656TIP3   OH226458   6.437   4.954  11.253 -0.1547 -0.3165 -0.0600
 1656TIP3    H126459   6.510   5.006  11.219 -0.4724 -0.9572 -1.7832
 1656TIP3    H226460   6.375   4.950  11.180 -1.4179 -0.7190  1.0130
 1657TIP3   OH226461   6.482   1.768   3.642  0.0415  0.0363  0.5244
 1657TIP3    H126462   6.460   1.678   3.618 -1.5976  0.5349  0.0450
 1657TIP3    H226463   6.527   1.760   3.726  1.5546 -1.3535 -0.4018
 1658TIP3   OH226464   5.171   6.169   0.165 -0.2592  0.0393 -0.0028
 1658TIP3    H126465   5.211   6.254   0.181 -0.4210  0.0906  0.1355
 1658TIP3    H226466   5.245   6.110   0.148 -0.2187  0.5009 -1.4913
 1659TIP3   OH226467   4.353   0.521  14.155  0.8727  0.0034  0.3636
 1659TIP3    H126468   4.430   0.488  14.109  0.4250 -0.1703 -0.2624
 1659TIP3    H226469   4.287   0.453  14.143  0.6259  0.1352  0.9303
 1660TIP3   OH226470   0.316   6.275   5.884 -0.1396 -0.3497  0.0573
 1660TIP3    H126471   0.393   6.298   5.937  0.1620 -0.2181 -0.4415
 1660TIP3    H226472   0.263   6.355   5.883  1.1607  0.5027 -2.1188
 1661TIP3   OH226473   3.357   2.496  13.958 -0.0770 -0.2708 -0.5181
 1661TIP3    H126474   3.331   2.510  14.049  1.6810 -0.2325 -0.0025
 1661TIP3    H226475   3.444   2.536  13.951  0.0195 -0.7102 -2.0803
 1662TIP3   OH226476   1.585   0.899  15.975  0.4961  0.4177 -0.9345
 1662TIP3    H126477   1.662   0.867  15.928 -0.1100 -0.7356 -1.1428
 1662TIP3    H226478   1.535   0.821  15.995  0.5224  0.9394  1.2645
 1663TIP3   OH226479   4.030   5.302   0.690 -0.7143  0.1386 -0.7576
 1663TIP3    H126480   4.064   5.281   0.604 -0.9584 -1.4556 -0.4784
 1663TIP3    H226481   3.974   5.228   0.713  0.0367  0.1233  1.1315
 1664TIP3   OH226482   4.312   5.017   5.528 -0.4118 -0.2274 -0.1334
 1664TIP3    H126483   4.346   5.092   5.479 -1.9276  0.1236 -0.6761
 1664TIP3    H226484   4.381   4.997   5.592  0.9518  0.2433 -1.4180
 1665TIP3   OH226485   5.704   2.866  16.608  0.1075  0.2231 -0.2316
 1665TIP3    H126486   5.634   2.879  16.672 -0.6770  0.2907 -1.0971
 1665TIP3    H226487   5.687   2.779  16.572 -0.8861  1.1578 -2.0932
 1666TIP3   OH226488   1.802   5.054  12.828  0.1395  0.7311 -0.1834
 1666TIP3    H126489   1.753   5.042  12.909  0.8221  0.0573  0.1315
 1666TIP3    H226490   1.893   5.042  12.853  0.3254  0.1260 -1.1260
 1667TIP3   OH226491   2.302   4.735  15.485 -0.3256 -0.0596  0.6778
 1667TIP3    H126492   2.378   4.681  15.508 -0.7265 -1.0506 -0.2676
 1667TIP3    H226493   2.251   4.680  15.426 -1.6490  0.7001  1.0978
 1668TIP3   OH226494   2.017   5.700  12.690 -0.3777  0.8211 -0.1657
 1668TIP3    H126495   1.989   5.610  12.709  0.3401  0.9116  1.4565
 1668TIP3    H226496   2.038   5.737  12.776  0.9702  1.9922 -0.9750
 1669TIP3   OH226497   1.968   3.713  17.100 -0.4001  0.4304 -0.7224
 1669TIP3    H126498   1.955   3.787  17.160  0.3407  0.5125 -0.6654
 1669TIP3    H226499   1.979   3.753  17.014 -3.1056  0.2522 -1.2173
 1670TIP3   OH226500   5.176   0.499  15.826 -0.7755 -0.7438  0.2311
 1670TIP3    H126501   5.234   0.576  15.825 -0.6738 -0.8211  0.1224
 1670TIP3    H226502   5.192   0.459  15.911  0.0679 -1.3196 -0.1949
 1671TIP3   OH226503   2.161   3.605   5.009 -0.1209  0.0136 -0.2418
 1671TIP3    H126504   2.069   3.576   5.004  0.3784 -1.5078 -0.7663
 1671TIP3    H226505   2.205   3.533   5.055  0.8827  0.5863 -0.3188
 1672TIP3   OH226506   0.879   0.057  15.077 -0.1130 -0.0839 -0.4310
 1672TIP3    H126507   0.853   0.050  15.169  0.4033 -1.7710 -0.3985
 1672TIP3    H226508   0.817   0.000  15.030  0.1217  0.1442 -1.0249
 1673TIP3   OH226509   6.045   3.526   0.107 -0.1060  0.1026 -0.2673
 1673TIP3    H126510   5.975   3.546   0.169 -1.3814  1.1961 -2.0347
 1673TIP3    H226511   6.055   3.606   0.055  2.9426  0.2228  0.3954
 1674TIP3   OH226512   6.491   3.230   3.503  0.6672 -0.0369 -0.9538
 1674TIP3    H126513   6.429   3.290   3.462  1.2161  2.5779  1.9317
 1674TIP3    H226514   6.443   3.191   3.575  1.1194 -1.1821 -1.2628
 1675TIP3   OH226515   4.484   6.697  16.373  0.0001 -0.2812 -0.4404
 1675TIP3    H126516   4.456   6.611  16.404  0.7831 -0.2870  0.2675
 1675TIP3    H226517   4.420   6.721  16.306 -0.9895 -0.8282  0.3061
 1676TIP3   OH226518   2.749   5.464  17.217 -0.1097  0.5790 -0.4904
 1676TIP3    H126519   2.814   5.427  17.158 -0.4584 -0.7534 -0.0449
 1676TIP3    H226520   2.708   5.389  17.259 -1.4358  1.4283 -0.2253
 1677TIP3   OH226521   6.305   1.685   5.700  0.1384 -0.5289 -0.0551
 1677TIP3    H126522   6.309   1.684   5.796  2.6314 -1.4297 -0.1486
 1677TIP3    H226523   6.385   1.641   5.672  0.9100  2.4089 -2.6088
 1678TIP3   OH226524   2.114   0.903   3.918  0.3451  0.4124 -0.2895
 1678TIP3    H126525   2.061   0.891   3.997 -1.0172 -1.8356 -1.5020
 1678TIP3    H226526   2.204   0.884   3.946 -0.1563 -0.5489  0.6827
 1679TIP3   OH226527   5.118   6.138   3.571  0.3580 -0.6157 -0.1987
 1679TIP3    H126528   5.027   6.106   3.575  0.0143  0.4761  1.1159
 1679TIP3    H226529   5.139   6.139   3.478 -1.6347  0.9261 -0.6727
 1680TIP3   OH226530   2.517   5.125  14.496  0.3731 -0.7086  0.4824
 1680TIP3    H126531   2.571   5.132  14.417 -1.9268  0.0240 -1.0841
 1680TIP3    H226532   2.553   5.191  14.555  0.5363  0.5479 -0.9713
 1681TIP3   OH226533   0.954   4.559   3.583  0.5628  0.5169 -0.0979
 1681TIP3    H126534   1.035   4.607   3.602  0.1944  0.7008  1.0426
 1681TIP3    H226535   0.961   4.479   3.635 -0.8904  1.4689  1.6076
 1682TIP3   OH226536   1.373   3.158  11.150 -0.1742  0.2517  0.0071
 1682TIP3    H126537   1.366   3.120  11.063 -2.7154 -0.9816  0.6966
 1682TIP3    H226538   1.368   3.252  11.137  1.2496  0.1644 -1.3017
 1683TIP3   OH226539   0.371   2.026  17.223 -0.5717  0.2145  0.1868
 1683TIP3    H126540   0.369   1.932  17.206 -2.7397  0.1061  0.9455
 1683TIP3    H226541   0.314   2.039  17.298  0.8468  1.9761  0.9983
 1684TIP3   OH226542   5.822   4.723  14.267 -0.8448 -0.1555  0.1319
 1684TIP3    H126543   5.820   4.725  14.363 -1.2438 -1.8253  0.1791
 1684TIP3    H226544   5.915   4.714  14.245 -0.8456 -0.8631  0.4042
 1685TIP3   OH226545   2.078   0.208  12.775  0.4157  0.6156  0.0391
 1685TIP3    H126546   2.074   0.117  12.745  1.0929  0.7778 -0.5548
 1685TIP3    H226547   2.159   0.212  12.827 -1.5518 -0.0857  3.3217
 1686TIP3   OH226548   4.920   2.978   3.023 -0.8021 -0.2923 -0.3569
 1686TIP3    H126549   4.872   2.934   2.952 -0.6106  0.5194 -1.0056
 1686TIP3    H226550   4.897   3.071   3.012  1.2716  0.1652 -0.9497
 1687TIP3   OH226551   3.926   4.149   6.108 -0.1240  0.2574 -0.4357
 1687TIP3    H126552   3.911   4.232   6.065 -2.0663  0.3670  0.4242
 1687TIP3    H226553   3.853   4.093   6.081 -0.1056 -0.4123  0.8196
 1688TIP3   OH226554   1.886   4.023  14.466 -0.2114 -0.9399  0.0395
 1688TIP3    H126555   1.890   3.953  14.400 -0.2317 -1.3310  0.4467
 1688TIP3    H226556   1.942   4.092  14.431  1.2952 -1.9107  0.4785
 1689TIP3   OH226557   5.280   5.172   4.494  0.6098 -0.0931 -0.0285
 1689TIP3    H126558   5.309   5.136   4.411 -0.3388  1.0912 -0.8943
 1689TIP3    H226559   5.187   5.148   4.500  0.4692  0.5143  0.3068
 1690TIP3   OH226560   5.938   6.219  17.057 -0.5908  0.3731  0.1155
 1690TIP3    H126561   5.945   6.305  17.098 -1.3227  1.2294 -1.5066
 1690TIP3    H226562   5.903   6.237  16.969  0.9710 -1.4010 -0.9024
 1691TIP3   OH226563   5.009   5.724  11.689 -0.2645  0.1359 -0.5107
 1691TIP3    H126564   5.045   5.671  11.618 -3.1994 -2.2285 -0.3401
 1691TIP3    H226565   5.084   5.739  11.747  2.2239  2.2576 -4.0629
 1692TIP3   OH226566   1.157   1.259  14.348 -0.0340 -0.3808 -0.0971
 1692TIP3    H126567   1.161   1.354  14.357 -3.0292 -0.2130 -0.0406
 1692TIP3    H226568   1.076   1.243  14.300  1.4109 -2.8147 -1.8220
 1693TIP3   OH226569   4.922   3.411  13.159  0.2206 -0.8571  0.2703
 1693TIP3    H126570   4.836   3.442  13.132 -0.1810 -1.9077  0.3378
 1693TIP3    H226571   4.953   3.358  13.086  0.5779 -0.9329  0.4736
 1694TIP3   OH226572   3.367   2.432   1.632  0.1729 -0.1325 -0.2475
 1694TIP3    H126573   3.335   2.449   1.721  1.0806 -1.7092  0.3981
 1694TIP3    H226574   3.293   2.452   1.575 -0.9961 -0.8535  1.0100
 1695TIP3   OH226575   0.561   0.207  16.597  0.5018 -0.2331 -0.1103
 1695TIP3    H126576   0.609   0.127  16.621  1.0467  0.3565  0.7733
 1695TIP3    H226577   0.493   0.214  16.665  0.2301 -0.1347 -0.3948
 1696TIP3   OH226578   0.208   5.174  16.274 -0.1396  0.0824  0.0306
 1696TIP3    H126579   0.218   5.251  16.330 -0.4773 -0.0361  0.2530
 1696TIP3    H226580   0.148   5.203  16.205 -0.1333  0.0721  0.0205
 1697TIP3   OH226581   6.613   5.007  12.280  0.6145  0.2497  0.0831
 1697TIP3    H126582   6.560   5.022  12.202 -0.2650  2.1113  0.9945
 1697TIP3    H226583   6.602   4.914  12.299 -0.3000  0.0870 -1.2076
 1698TIP3   OH226584   2.366   5.513  14.892  0.3616 -0.0335  0.4805
 1698TIP3    H126585   2.294   5.539  14.834  0.9669  1.4853  0.3911
 1698TIP3    H226586   2.329   5.443  14.946 -0.6684 -0.4249 -0.7065
 1699TIP3   OH226587   6.699   1.514  13.581  0.1008 -0.0104  0.0627
 1699TIP3    H126588   6.742   1.453  13.521 -0.6162 -0.7726  0.3059
 1699TIP3    H226589   6.608   1.515  13.551 -0.2071 -0.2232  0.9916
 1700TIP3   OH226590   4.635   2.788   4.634  0.1262  0.3188 -0.4082
 1700TIP3    H126591   4.628   2.883   4.642 -1.3703  0.1112  1.1189
 1700TIP3    H226592   4.555   2.754   4.675  0.0709 -1.5632 -1.9787
 1701TIP3   OH226593   3.948   0.611   4.349  0.2885 -0.1518  1.0734
 1701TIP3    H126594   3.984   0.636   4.435  1.3440  3.5605 -0.3616
 1701TIP3    H226595   3.872   0.668   4.338  0.8968  0.2737 -0.9824
 1702TIP3   OH226596   6.173   2.645  16.793 -0.0850  0.1082  0.1644
 1702TIP3    H126597   6.246   2.625  16.851 -0.8824 -1.6448  0.5954
 1702TIP3    H226598   6.099   2.658  16.852 -0.5035  0.1491 -0.3628
 1703TIP3   OH226599   4.317   0.687   6.174 -0.4539 -0.0775 -0.4720
 1703TIP3    H126600   4.225   0.664   6.165 -0.4659  0.4510 -1.9009
 1703TIP3    H226601   4.317   0.781   6.194 -0.1938  0.1379 -1.4756
 1704TIP3   OH226602   2.181   5.957  13.749 -0.3207  0.1600  0.0539
 1704TIP3    H126603   2.200   5.886  13.688 -1.1449  0.4084 -0.4968
 1704TIP3    H226604   2.186   5.916  13.836  1.2202 -0.1102 -0.1474
 1705TIP3   OH226605   5.104   6.689  14.913 -0.0335 -0.1146  0.2502
 1705TIP3    H126606   5.134   6.763  14.966 -1.4653  0.4380  0.2917
 1705TIP3    H226607   5.101   6.723  14.823  0.4219 -0.4592  0.1018
 1706TIP3   OH226608   5.740   5.152   0.333  0.5059  0.0914 -0.1198
 1706TIP3    H126609   5.790   5.216   0.384 -0.5061  0.2169  0.7193
 1706TIP3    H226610   5.736   5.075   0.390 -1.6637  0.6382  0.5142
 1707TIP3   OH226611   5.000   2.261  15.658 -0.2058  0.0198 -0.3219
 1707TIP3    H126612   5.095   2.272  15.665  0.0501 -1.1315 -1.7460
 1707TIP3    H226613   4.973   2.322  15.589 -0.8352  1.8855  1.5107
 1708TIP3   OH226614   0.051   5.732  12.297  0.8909  0.4982 -0.3788
 1708TIP3    H126615   0.067   5.709  12.205 -0.5903 -0.0934 -0.4985
 1708TIP3    H226616   0.138   5.735  12.336  1.2827 -3.4911 -0.8007
 1709TIP3   OH226617   2.097   4.879   2.526 -0.7372  0.0212  0.8352
 1709TIP3    H126618   2.100   4.973   2.540  1.0628  0.6520 -3.0849
 1709TIP3    H226619   2.168   4.844   2.581  0.5245  1.3080  0.0399
 1710TIP3   OH226620   4.819   3.870   2.549  1.1255 -0.3616 -0.3160
 1710TIP3    H126621   4.725   3.858   2.551  1.0981 -0.1036 -0.1213
 1710TIP3    H226622   4.848   3.820   2.473  0.8144 -0.3077 -0.4690
 1711TIP3   OH226623   1.050   6.281   5.497  0.1329  0.3494  0.0136
 1711TIP3    H126624   1.050   6.370   5.461 -0.7307  0.1119 -0.5799
 1711TIP3    H226625   1.083   6.226   5.425 -1.9446 -0.1732 -0.5704
 1712TIP3   OH226626   2.938   1.841   5.051 -0.1966 -0.4090  0.3238
 1712TIP3    H126627   2.950   1.819   4.959 -2.4418 -0.3736  0.0070
 1712TIP3    H226628   2.893   1.926   5.050  0.9191  0.2144  1.4679
 1713TIP3   OH226629   5.772   6.400   1.883 -0.9594  0.5851  0.6146
 1713TIP3    H126630   5.715   6.330   1.851  0.7004 -1.2491  1.5949
 1713TIP3    H226631   5.738   6.422   1.970  0.1564 -0.9239  1.4497
 1714TIP3   OH226632   0.719   1.673  11.367  0.5616  0.1969  0.4793
 1714TIP3    H126633   0.775   1.632  11.301  0.6209 -0.3303  0.8491
 1714TIP3    H226634   0.660   1.729  11.318  0.6024 -0.1941 -0.0171
 1715TIP3   OH226635   2.534   4.469  15.968  0.0319 -0.3329 -0.2900
 1715TIP3    H126636   2.575   4.482  16.053 -0.0344 -0.9452 -0.1610
 1715TIP3    H226637   2.535   4.556  15.927  0.0313 -0.0321  0.3440
 1716TIP3   OH226638   1.217   1.606  11.395 -0.7401 -0.2761 -0.0182
 1716TIP3    H126639   1.224   1.564  11.481  0.3480 -1.6051 -0.7268
 1716TIP3    H226640   1.234   1.698  11.412 -1.0096 -0.4392  1.2557
 1717TIP3   OH226641   1.099   4.433   4.191  0.1810  0.1936 -0.3387
 1717TIP3    H126642   1.005   4.424   4.175  0.0149 -0.0834  0.7742
 1717TIP3    H226643   1.125   4.349   4.230  0.5910  0.8400  0.7881
 1718TIP3   OH226644   2.509   5.550  14.511  0.3236 -0.1277  0.3099
 1718TIP3    H126645   2.578   5.555  14.577  0.4790  0.2844  0.1246
 1718TIP3    H226646   2.439   5.500  14.552  1.6404 -2.5649 -0.3085
 1719TIP3   OH226647   3.204   1.928  12.064  0.9799  0.3850 -0.5122
 1719TIP3    H126648   3.115   1.918  12.096  1.1407 -0.9935 -0.4580
 1719TIP3    H226649   3.194   1.970  11.978  0.2521 -0.1405 -0.6889
 1720TIP3   OH226650   4.858   3.669   1.160  0.8500 -0.3184 -0.0764
 1720TIP3    H126651   4.843   3.695   1.069 -1.5072  1.7309  0.8448
 1720TIP3    H226652   4.918   3.735   1.194  0.3168 -0.0352  0.3283
 1721TIP3   OH226653   2.139   5.588  11.881  0.3481 -0.4586 -0.8935
 1721TIP3    H126654   2.221   5.624  11.848  0.2232  0.7928  0.1175
 1721TIP3    H226655   2.098   5.661  11.928 -1.1683 -1.1687 -1.0831
 1722TIP3   OH226656   2.381   3.917   2.518  0.2672  0.2106  0.0381
 1722TIP3    H126657   2.308   3.870   2.478 -0.1415  1.4694 -0.7170
 1722TIP3    H226658   2.349   3.943   2.604  0.8470 -1.7397  0.8856
 1723TIP3   OH226659   3.162   2.775   1.689  0.6027 -0.7040  0.4699
 1723TIP3    H126660   3.158   2.708   1.757 -1.1416  0.5538  1.6491
 1723TIP3    H226661   3.102   2.744   1.621  2.6825 -2.1800 -0.7369
 1724TIP3   OH226662   0.535   5.773  12.695 -0.6215  0.1542  0.2044
 1724TIP3    H126663   0.476   5.813  12.759 -1.0749  2.1222 -1.3741
 1724TIP3    H226664   0.623   5.798  12.724 -0.8023  0.7291  0.2752
 1725TIP3   OH226665   0.312   2.419   0.278 -0.3797  0.2500  0.1663
 1725TIP3    H126666   0.378   2.415   0.208 -0.3540  1.2886  0.1206
 1725TIP3    H226667   0.361   2.403   0.358 -0.0997  0.8483  0.1159
 1726TIP3   OH226668   4.526   5.112   4.831 -0.0713  0.2847 -0.3741
 1726TIP3    H126669   4.546   5.184   4.891  0.6048  0.9414 -1.3665
 1726TIP3    H226670   4.541   5.149   4.744  1.7352 -1.4834 -0.8423
 1727TIP3   OH226671   5.292   5.432   6.241  0.6015 -0.1900  0.3215
 1727TIP3    H126672   5.309   5.354   6.294  1.1893  0.3630  0.9531
 1727TIP3    H226673   5.329   5.504   6.291  0.6101  0.4253 -0.5506
 1728TIP3   OH226674   5.553   6.320   5.484 -0.5121  0.2655  0.0008
 1728TIP3    H126675   5.463   6.288   5.493 -0.1285 -0.9082 -0.2644
 1728TIP3    H226676   5.604   6.243   5.458  0.3511  1.1767 -1.0992
 1729TIP3   OH226677   2.078   5.736  12.999 -0.0125  0.4539  0.1358
 1729TIP3    H126678   2.093   5.663  13.060  1.6519  0.6593  0.0079
 1729TIP3    H226679   2.152   5.795  13.014 -0.1558  1.0281 -1.3314
 1730TIP3   OH226680   3.471   4.783  17.116 -0.0593  0.3895  0.2775
 1730TIP3    H126681   3.450   4.806  17.026  1.1375 -0.5347 -0.2523
 1730TIP3    H226682   3.386   4.767  17.158 -0.5675 -0.1309 -0.9405
 1731TIP3   OH226683   2.685   4.902   4.166  0.4198 -0.2723  0.4109
 1731TIP3    H126684   2.733   4.874   4.088  1.2263  2.8641 -0.2805
 1731TIP3    H226685   2.603   4.854   4.162  1.1078 -1.3440 -1.5209
 1732TIP3   OH226686   2.252   4.425  12.887  0.4264 -0.1033 -0.2755
 1732TIP3    H126687   2.213   4.351  12.840 -0.0488 -1.2766  1.9146
 1732TIP3    H226688   2.318   4.385  12.944  1.1633  1.3277 -0.1088
 1733TIP3   OH226689   5.794   4.322   3.079 -0.4618 -0.0227  0.3095
 1733TIP3    H126690   5.787   4.234   3.043 -1.8729 -0.0550  0.6258
 1733TIP3    H226691   5.796   4.309   3.174  1.3032  0.1764  0.3130
 1734TIP3   OH226692   0.956   0.894  16.387 -0.0862 -0.0973  0.2028
 1734TIP3    H126693   0.983   0.802  16.381  0.0945 -0.0029 -0.4767
 1734TIP3    H226694   1.032   0.938  16.424  0.9601  0.2714 -2.2981
 1735TIP3   OH226695   2.794   6.237   1.733  0.0150  0.4011  0.3417
 1735TIP3    H126696   2.751   6.260   1.651 -0.5837  0.0789  0.5600
 1735TIP3    H226697   2.887   6.230   1.711 -0.1296  0.4514 -0.2788
 1736TIP3   OH226698   1.428   2.071  12.935 -0.2886 -0.3500 -0.4931
 1736TIP3    H126699   1.340   2.081  12.971  0.3477  1.1481  0.7177
 1736TIP3    H226700   1.460   1.989  12.973 -1.1533 -0.9060 -0.9505
 1737TIP3   OH226701   6.664   2.505   1.805  0.5065 -0.3392 -0.1135
 1737TIP3    H126702   6.669   2.475   1.714  1.8948  1.4592 -0.6636
 1737TIP3    H226703   6.584   2.465   1.839 -0.8962  0.2282 -2.6028
 1738TIP3   OH226704   5.912   5.698  14.353 -0.0454 -0.1037  0.1431
 1738TIP3    H126705   5.936   5.667  14.441 -3.2945  0.0409  1.1616
 1738TIP3    H226706   5.818   5.717  14.360 -0.2572  0.3234 -3.2681
 1739TIP3   OH226707   6.585   4.519  13.486  0.0616 -0.1763 -0.4408
 1739TIP3    H126708   6.578   4.614  13.477  1.8248  0.1052  0.8591
 1739TIP3    H226709   6.504   4.485  13.448  0.4258  1.7069 -3.0336
 1740TIP3   OH226710   4.185   3.314  14.356 -0.3383  0.0256  0.5700
 1740TIP3    H126711   4.186   3.370  14.433  0.0389  0.0088  0.5797
 1740TIP3    H226712   4.161   3.227  14.390  0.3773 -0.1035  0.7557
 1741TIP3   OH226713   0.621   0.753  10.548 -0.1461 -0.3936 -0.2192
 1741TIP3    H126714   0.587   0.690  10.611 -0.4624  0.3572  0.3682
 1741TIP3    H226715   0.596   0.838  10.583  1.7461  0.1430 -0.1131
 1742TIP3   OH226716   5.129   0.084  13.434  0.7657 -0.0163 -0.6681
 1742TIP3    H126717   5.055   0.035  13.400 -0.1196  1.2986 -0.7073
 1742TIP3    H226718   5.097   0.175  13.439  2.4110  0.5899 -0.8130
 1743TIP3   OH226719   4.618   4.211  17.221 -0.5353  0.6259  0.1248
 1743TIP3    H126720   4.713   4.218  17.221 -0.4800  0.0860  1.5193
 1743TIP3    H226721   4.600   4.123  17.188 -0.5368  0.5604  0.3013
 1744TIP3   OH226722   1.513   5.210   6.047 -0.1261  0.0693  0.2640
 1744TIP3    H126723   1.571   5.286   6.055 -2.2904  1.7450  0.4212
 1744TIP3    H226724   1.545   5.149   6.114  0.2735  1.7825  1.6893
 1745TIP3   OH226725   5.608   4.778   0.698 -0.4482  0.3801 -0.4962
 1745TIP3    H126726   5.562   4.744   0.621  0.3596  1.2720 -1.3960
 1745TIP3    H226727   5.681   4.717   0.711  0.3256  1.0824 -1.4090
 1746TIP3   OH226728   6.310   5.577  15.928 -0.1447  0.0355  0.2428
 1746TIP3    H126729   6.367   5.653  15.912 -0.3859  0.1479 -0.1073
 1746TIP3    H226730   6.353   5.529  15.998  0.1325  0.3766  0.3110
 1747TIP3   OH226731   6.443   4.920  14.066  0.1346  0.0017  0.4848
 1747TIP3    H126732   6.521   4.872  14.095 -0.7175 -1.3380  0.5600
 1747TIP3    H226733   6.378   4.903  14.134 -0.0782  1.5497  0.6903
 1748TIP3   OH226734   0.629   5.439   1.707  0.2893 -0.4886 -0.3821
 1748TIP3    H126735   0.592   5.510   1.655 -0.9806  0.4606  1.7924
 1748TIP3    H226736   0.661   5.377   1.641 -0.0357  1.3098 -2.3070
 1749TIP3   OH226737   0.578   6.592  16.296  0.3472 -0.0012  0.3554
 1749TIP3    H126738   0.548   6.582  16.386 -1.7956 -2.0360 -0.5091
 1749TIP3    H226739   0.508   6.642  16.253  0.2833 -0.9621 -0.6847
 1750TIP3   OH226740   0.156   4.818  14.892 -0.6525 -0.0330 -0.0489
 1750TIP3    H126741   0.178   4.787  14.979  0.0583  2.6090  0.7468
 1750TIP3    H226742   0.067   4.852  14.900 -1.0647 -0.9312 -0.6763
 1751TIP3   OH226743   1.124   0.978   0.224 -0.4357 -0.2305 -0.3889
 1751TIP3    H126744   1.070   1.000   0.299 -0.1501 -0.1311 -0.2121
 1751TIP3    H226745   1.097   1.040   0.156 -1.9026 -1.4422 -0.9181
 1752TIP3   OH226746   0.146   6.494  16.430 -0.0247 -0.4449  0.1278
 1752TIP3    H126747   0.180   6.414  16.469  2.6294  0.9133  0.7235
 1752TIP3    H226748   0.212   6.519  16.365 -0.3207  1.7649  0.6337
 1753TIP3   OH226749   1.477   0.072   1.460 -0.4114  0.4251 -0.3313
 1753TIP3    H126750   1.521   0.021   1.392  1.4717  0.4864  0.8178
 1753TIP3    H226751   1.437   0.145   1.413  0.4919  0.2249 -1.4336
 1754TIP3   OH226752   2.265   0.431   6.194 -0.0794 -0.0761 -0.0366
 1754TIP3    H126753   2.313   0.511   6.173 -0.4190  0.1822  0.1699
 1754TIP3    H226754   2.175   0.460   6.211  0.4391 -0.0699  3.1192
 1755TIP3   OH226755   2.081   5.293   4.948 -0.5358  0.5001 -0.3102
 1755TIP3    H126756   2.142   5.241   4.896  0.1491  1.2365 -0.2564
 1755TIP3    H226757   2.102   5.383   4.926 -0.3049  0.8269  1.1461
 1756TIP3   OH226758   1.008   1.870   3.616 -0.3383 -0.0159 -0.2262
 1756TIP3    H126759   0.921   1.868   3.656 -0.6412  0.1969 -0.8623
 1756TIP3    H226760   1.045   1.784   3.634 -1.4014 -0.7566 -1.5252
 1757TIP3   OH226761   1.212   5.982  12.461  0.2896 -0.0086  0.3361
 1757TIP3    H126762   1.119   5.969  12.439  0.8566  0.0855 -2.2523
 1757TIP3    H226763   1.217   6.073  12.492 -0.1499  0.6121 -1.3931
 1758TIP3   OH226764   6.721   0.839   1.620 -0.0268 -0.4444 -0.3755
 1758TIP3    H126765   6.779   0.890   1.564  0.2426  2.1059  2.1000
 1758TIP3    H226766   6.656   0.902   1.651 -1.7977 -2.4066 -0.0127
 1759TIP3   OH226767   3.916   1.250  15.449 -0.0162  0.1888  0.3437
 1759TIP3    H126768   3.855   1.315  15.485 -3.1457 -0.6821 -3.0966
 1759TIP3    H226769   3.954   1.292  15.372 -1.3935 -1.6111 -1.3878
 1760TIP3   OH226770   4.891   4.119  10.965  0.0334 -0.3098  0.0051
 1760TIP3    H126771   4.835   4.042  10.978 -0.7823 -0.2559 -2.8658
 1760TIP3    H226772   4.968   4.085  10.921 -0.5300  0.5530 -1.6893
 1761TIP3   OH226773   2.657   4.026  11.379  0.7251 -0.0326  0.5052
 1761TIP3    H126774   2.572   4.068  11.387  0.8377  0.2015  0.4559
 1761TIP3    H226775   2.636   3.934  11.360  0.4753 -0.1221  1.1961
 1762TIP3   OH226776   2.354   3.481  16.560 -0.0617 -0.6702  0.5367
 1762TIP3    H126777   2.284   3.536  16.596  0.3932 -0.3379  0.9154
 1762TIP3    H226778   2.435   3.525  16.586  0.3189 -1.8610  1.3521
 1763TIP3   OH226779   3.068   6.014   3.601 -0.3874  0.2145 -0.8186
 1763TIP3    H126780   3.051   5.979   3.514 -1.3767  0.1687 -0.6114
 1763TIP3    H226781   3.015   6.094   3.606  0.1514  0.5567 -0.4870
 1764TIP3   OH226782   1.935   0.510  16.852 -0.1137  0.0134  0.9411
 1764TIP3    H126783   1.982   0.428  16.837 -0.2470  0.4089 -1.8990
 1764TIP3    H226784   1.843   0.483  16.856 -0.1209 -0.0216  0.5068
 1765TIP3   OH226785   6.266   2.529  14.290 -0.1438  0.3924 -0.1176
 1765TIP3    H126786   6.260   2.596  14.359 -1.5614  1.9284 -1.6937
 1765TIP3    H226787   6.314   2.572  14.219 -1.2271 -0.1996 -1.2218
 1766TIP3   OH226788   2.651   2.469   6.005 -0.6496  0.6462 -0.0028
 1766TIP3    H126789   2.614   2.388   5.970 -3.8191  2.8515 -2.0092
 1766TIP3    H226790   2.706   2.503   5.935 -0.6181  1.0452  0.2134
 1767TIP3   OH226791   0.958   1.573   0.532 -0.4013  0.1444 -0.1758
 1767TIP3    H126792   0.876   1.551   0.486 -0.5556  0.5082 -0.0760
 1767TIP3    H226793   0.971   1.501   0.593  0.4485 -0.9651 -1.6416
 1768TIP3   OH226794   1.241   3.332  10.521  0.9471  0.1324 -0.6770
 1768TIP3    H126795   1.190   3.260  10.485  1.1939 -0.4570  0.1386
 1768TIP3    H226796   1.238   3.400  10.454 -1.5941  0.4250 -0.3364
 1769TIP3   OH226797   5.943   0.372  11.017  0.3025 -0.4812  0.4630
 1769TIP3    H126798   5.865   0.391  11.069  0.4448  0.8593  0.2108
 1769TIP3    H226799   5.911   0.320  10.944 -0.3955  0.2273  0.2519
 1770TIP3   OH226800   5.181   5.995  16.823  0.2945  0.2358  0.0570
 1770TIP3    H126801   5.148   5.917  16.779  1.4579  0.3668 -1.0545
 1770TIP3    H226802   5.143   6.068  16.774  1.6005  0.3802 -0.7709
 1771TIP3   OH226803   1.582   6.470   5.411  0.2149  0.0255  0.8220
 1771TIP3    H126804   1.610   6.470   5.502 -0.8323  1.3191  1.1532
 1771TIP3    H226805   1.491   6.443   5.414 -0.3793  1.9107  0.3518
 1772TIP3   OH226806   2.249   2.339  16.628 -0.4173 -0.0712  0.0245
 1772TIP3    H126807   2.321   2.285  16.663 -0.6294  0.0378  0.6336
 1772TIP3    H226808   2.181   2.275  16.606  0.6735 -0.3973 -2.6103
 1773TIP3   OH226809   1.758   3.711   1.165 -0.0442 -0.1177  0.3475
 1773TIP3    H126810   1.821   3.679   1.100 -1.0013  1.1770 -1.2581
 1773TIP3    H226811   1.812   3.743   1.237  1.0952 -0.0262 -0.5258
 1774TIP3   OH226812   1.118   2.915   1.015 -0.8117 -0.5963 -0.3703
 1774TIP3    H126813   1.097   2.969   1.091  0.2786 -2.4216  1.2870
 1774TIP3    H226814   1.196   2.956   0.978 -0.7663 -0.2479  0.0969
 1775TIP3   OH226815   2.160   3.648  16.650 -0.0726 -0.3413  0.3791
 1775TIP3    H126816   2.125   3.608  16.730  0.6253 -1.0497  0.3391
 1775TIP3    H226817   2.142   3.741  16.660 -2.2920 -0.7038  0.2056
 1776TIP3   OH226818   1.741   5.403  15.849 -0.4523  0.0021  0.4635
 1776TIP3    H126819   1.653   5.401  15.888 -0.3832  0.4696  0.6391
 1776TIP3    H226820   1.728   5.375  15.759 -0.6735 -0.6845  0.7006
 1777TIP3   OH226821   6.421   6.737   5.549  0.4628 -0.2358 -0.2948
 1777TIP3    H126822   6.439   6.757   5.641  1.4190 -0.0217 -0.5229
 1777TIP3    H226823   6.416   6.642   5.545 -2.4230 -0.1653  0.4930
 1778TIP3   OH226824   5.160   1.862  16.436 -0.0529 -0.1944  0.2289
 1778TIP3    H126825   5.131   1.925  16.370  3.4050 -0.1263 -1.3443
 1778TIP3    H226826   5.117   1.780  16.412 -0.7161  0.4165 -0.6696
 1779TIP3   OH226827   6.803   6.134   0.445 -0.0941 -0.3394 -0.2499
 1779TIP3    H126828   6.774   6.053   0.404 -1.0006  0.2231 -0.7431
 1779TIP3    H226829   6.897   6.138   0.427  0.0199 -1.4623  0.1043
 1780TIP3   OH226830   4.729   0.191  11.651  0.0992  0.0100  0.3646
 1780TIP3    H126831   4.705   0.246  11.725 -0.4143  0.5945 -0.2338
 1780TIP3    H226832   4.743   0.104  11.689 -0.8043  0.1592  1.0502
 1781TIP3   OH226833   5.906   2.879  16.788 -0.8480  0.2003 -0.5696
 1781TIP3    H126834   5.855   2.835  16.720 -1.4564  0.9085 -0.5838
 1781TIP3    H226835   5.861   2.963  16.802 -1.1528 -0.2354  1.2118
 1782TIP3   OH226836   4.361   6.527   0.866  0.4201  0.0107 -0.0213
 1782TIP3    H126837   4.362   6.597   0.800 -0.3650 -1.0465 -1.1635
 1782TIP3    H226838   4.292   6.553   0.927  0.8377  0.7576  0.1459
 1783TIP3   OH226839   2.245   0.008  13.075  0.2278  0.5556  0.8934
 1783TIP3    H126840   2.260   0.086  13.021 -1.3974  0.8597  0.8833
 1783TIP3    H226841   2.333  -0.017  13.105  1.2612  0.0490 -2.3229
 1784TIP3   OH226842   2.609   5.443   5.402  0.2117  0.4141 -0.8194
 1784TIP3    H126843   2.558   5.429   5.322 -2.0006  1.7873  0.3042
 1784TIP3    H226844   2.544   5.454   5.471  1.9931  3.0566  0.5473
 1785TIP3   OH226845   1.863   0.573  13.187  0.2974 -0.0492 -0.2157
 1785TIP3    H126846   1.878   0.581  13.282  1.8918  0.2829 -0.4804
 1785TIP3    H226847   1.951   0.572  13.149 -0.2994 -1.5727 -1.5896
 1786TIP3   OH226848   3.338   4.916  16.469 -0.0293  0.2622 -0.4390
 1786TIP3    H126849   3.284   4.848  16.509 -0.3359  0.4471 -0.5256
 1786TIP3    H226850   3.334   4.990  16.530  0.7183  0.0214 -0.1033
 1787TIP3   OH226851   1.982   3.006   4.040  0.6935 -0.0280 -0.2494
 1787TIP3    H126852   2.017   3.083   4.086  1.2946  0.8836 -2.1972
 1787TIP3    H226853   1.932   2.959   4.107 -0.0046  2.2565  0.8821
 1788TIP3   OH226854   0.189   3.540   6.105  0.6511  0.0813 -0.4516
 1788TIP3    H126855   0.266   3.521   6.052  1.1710 -0.4822  0.4784
 1788TIP3    H226856   0.116   3.540   6.043  1.3108 -0.0543 -1.2386
 1789TIP3   OH226857   3.617   4.523   0.816 -0.1521 -0.1103  0.1232
 1789TIP3    H126858   3.543   4.506   0.757 -2.1984  0.4558  2.4495
 1789TIP3    H226859   3.583   4.585   0.880  2.8639  1.4875  0.2829
 1790TIP3   OH226860   6.145   1.683  16.839 -0.6408  0.7955 -0.0900
 1790TIP3    H126861   6.228   1.664  16.881 -1.2500 -0.2583  0.6582
 1790TIP3    H226862   6.120   1.600  16.797 -1.2792  1.1208 -0.3570
 1791TIP3   OH226863   0.774   5.738  12.003  0.3895 -0.4354 -0.0238
 1791TIP3    H126864   0.767   5.673  12.072  1.1466 -1.1798 -0.6374
 1791TIP3    H226865   0.687   5.742  11.963 -0.3079  0.6808  1.5638
 1792TIP3   OH226866   6.764   0.477  17.284  0.1782 -0.1256  0.6236
 1792TIP3    H126867   6.834   0.415  17.305 -0.7762 -0.7680  2.0256
 1792TIP3    H226868   6.724   0.443  17.204 -1.8011 -2.6851  2.5705
 1793TIP3   OH226869   4.216   3.125   2.267  0.2542 -0.0085 -0.3225
 1793TIP3    H126870   4.307   3.133   2.238 -0.8527  1.0447 -3.6337
 1793TIP3    H226871   4.186   3.215   2.277 -0.7168 -0.3508 -0.1546
 1794TIP3   OH226872   6.544   3.377  15.220  0.6278 -0.0406 -0.3173
 1794TIP3    H126873   6.490   3.305  15.186  0.2330  0.1247 -0.0407
 1794TIP3    H226874   6.632   3.338  15.229  0.5622 -0.3000 -0.7948
 1795TIP3   OH226875   2.018   1.014   3.189 -0.7037 -0.2613 -0.6118
 1795TIP3    H126876   2.106   1.023   3.153  0.3374 -2.1260  1.3623
 1795TIP3    H226877   1.976   0.949   3.133 -0.1195 -0.9129 -0.2953
 1796TIP3   OH226878   0.052   2.340   0.315  0.1396 -0.2992 -0.2620
 1796TIP3    H126879  -0.010   2.410   0.337  0.6696  0.5055 -1.2688
 1796TIP3    H226880   0.136   2.386   0.303  0.6286 -1.1936 -0.3019
 1797TIP3   OH226881   2.480   5.668   2.696  0.1253 -0.7208  0.1925
 1797TIP3    H126882   2.507   5.696   2.784 -1.2344 -0.9268  0.6818
 1797TIP3    H226883   2.549   5.701   2.638 -0.1626  1.4221  1.0483
 1798TIP3   OH226884   2.680   2.228   6.383  0.1910 -0.1027 -0.0335
 1798TIP3    H126885   2.675   2.324   6.380  2.4854  0.0867  1.3494
 1798TIP3    H226886   2.589   2.200   6.372 -0.5804  2.2474 -0.0473
 1799TIP3   OH226887   4.269   4.561  13.866  0.4989  0.2350  0.1256
 1799TIP3    H126888   4.212   4.519  13.931  0.8798  0.0255  0.3330
 1799TIP3    H226889   4.327   4.616  13.919  0.0722  0.9330 -0.1428
 1800TIP3   OH226890   4.448   4.067   4.620  0.2775 -0.0813  0.0342
 1800TIP3    H126891   4.519   4.022   4.665  0.6196  1.0693  0.6669
 1800TIP3    H226892   4.399   4.111   4.690 -0.2494  0.2503 -0.5369
 1801TIP3   OH226893   3.647   0.858  13.374 -0.1145  0.4365  0.0243
 1801TIP3    H126894   3.595   0.844  13.295  0.2443  0.5901 -0.2359
 1801TIP3    H226895   3.665   0.769  13.406 -0.3765  0.3781  0.0113
 1802TIP3   OH226896   6.811   4.687   3.311  0.2284  0.0287 -0.1002
 1802TIP3    H126897   6.802   4.778   3.342 -2.9521  0.1164 -1.0954
 1802TIP3    H226898   6.867   4.694   3.234 -0.7216  1.2981 -0.6996
 1803TIP3   OH226899   1.936   3.132  10.869  0.0339  0.2316  1.0089
 1803TIP3    H126900   1.985   3.153  10.948  1.2910 -0.4390  0.4181
 1803TIP3    H226901   2.003   3.115  10.803 -0.9968  1.2516 -0.3343
 1804TIP3   OH226902   4.454   1.529   0.893 -0.2816 -0.2839 -0.2812
 1804TIP3    H126903   4.392   1.515   0.965 -1.1844  0.4212 -0.9062
 1804TIP3    H226904   4.465   1.624   0.889  0.8486 -0.4009 -0.1880
 1805TIP3   OH226905   2.108   1.596  12.703 -0.3273  0.2223  0.1275
 1805TIP3    H126906   2.155   1.679  12.696  0.1683 -0.0720 -0.0432
 1805TIP3    H226907   2.172   1.534  12.738 -0.5502 -0.2081 -0.2110
 1806TIP3   OH226908   4.162   5.677   1.026 -0.1903 -0.2579 -0.2108
 1806TIP3    H126909   4.105   5.720   1.090  0.0496 -0.2178 -0.0201
 1806TIP3    H226910   4.245   5.726   1.032  0.0708 -0.7242 -0.0200
 1807TIP3   OH226911   0.894   6.255  11.850  0.3789 -0.3126 -0.0455
 1807TIP3    H126912   0.930   6.291  11.932 -0.9739  0.4920  0.2061
 1807TIP3    H226913   0.902   6.326  11.787  0.9117 -0.7510 -0.4761
 1808TIP3   OH226914   3.842   1.756  14.081 -0.5923 -0.8269  0.4025
 1808TIP3    H126915   3.892   1.685  14.040 -0.9867 -0.5565 -0.5610
 1808TIP3    H226916   3.821   1.723  14.168 -2.0410 -2.5298 -0.5436
 1809TIP3   OH226917   0.914   2.832  13.598 -0.3242 -0.3575  0.3025
 1809TIP3    H126918   0.980   2.901  13.608  1.1760 -1.9413  1.5027
 1809TIP3    H226919   0.922   2.779  13.678 -0.0857 -3.1185 -1.5082
 1810TIP3   OH226920   0.266   2.497  14.668  0.5684 -0.1998 -0.4917
 1810TIP3    H126921   0.180   2.535  14.682  0.9125 -0.1026  1.4275
 1810TIP3    H226922   0.252   2.403  14.673  0.4866 -0.2064 -0.7924
 1811TIP3   OH226923   1.595   0.889   1.236 -0.1496  0.4475 -0.1608
 1811TIP3    H126924   1.665   0.947   1.209  0.1749  0.1909  0.1227
 1811TIP3    H226925   1.561   0.928   1.316  0.7241 -0.2752  0.5779
 1812TIP3   OH226926   3.075   2.680   4.414  0.8412  0.5293  0.1823
 1812TIP3    H126927   3.104   2.608   4.470  0.0301 -0.7658 -1.0322
 1812TIP3    H226928   3.048   2.749   4.475 -0.0107 -0.8460  1.3832
 1813TIP3   OH226929   6.558   1.115  13.193 -0.3034 -0.2871  0.4952
 1813TIP3    H126930   6.648   1.089  13.210  0.1200 -0.3179 -1.6605
 1813TIP3    H226931   6.552   1.204  13.227  0.3749 -0.4827  1.1405
 1814TIP3   OH226932   2.163   3.990  14.668  0.0088  0.1448  0.2633
 1814TIP3    H126933   2.131   4.051  14.602 -0.3950 -0.4441 -0.0881
 1814TIP3    H226934   2.259   3.994  14.660 -0.0382  0.0739 -0.3525
 1815TIP3   OH226935   6.309   5.404   3.284  0.6704  0.0412  0.6368
 1815TIP3    H126936   6.266   5.386   3.367  1.3948  0.6679  1.1549
 1815TIP3    H226937   6.275   5.490   3.257  0.2687 -0.2630  0.1815
 1816TIP3   OH226938   0.254   3.684  13.896 -0.4504 -0.6664 -0.1832
 1816TIP3    H126939   0.275   3.638  13.815  0.0080 -0.6208 -0.0923
 1816TIP3    H226940   0.330   3.668  13.953  0.3248  1.2796 -0.6047
 1817TIP3   OH226941   0.558   4.839  15.535  0.3389 -0.2536  0.0137
 1817TIP3    H126942   0.608   4.765  15.500  0.8116  0.7703 -1.5432
 1817TIP3    H226943   0.624   4.906  15.552 -0.1596  0.0287  0.8228
 1818TIP3   OH226944   4.771   4.077  15.306 -0.2336 -0.1235 -0.0146
 1818TIP3    H126945   4.788   4.153  15.252  0.7619 -1.0006 -0.9416
 1818TIP3    H226946   4.698   4.103  15.362  0.8541  1.9052  0.4838
 1819TIP3   OH226947   2.949   5.524   6.021 -0.3535 -0.0395  0.4535
 1819TIP3    H126948   2.955   5.443   5.970  0.3430 -2.8318  4.6810
 1819TIP3    H226949   3.029   5.525   6.074 -2.0207  1.5497  3.0443
 1820TIP3   OH226950   5.941   2.813  15.228 -0.0770  0.3162  0.3852
 1820TIP3    H126951   5.943   2.749  15.157  1.0567  0.8321 -0.0680
 1820TIP3    H226952   5.946   2.898  15.184  0.2320  0.6587  1.0616
 1821TIP3   OH226953   2.349   6.193   3.617  0.1172  0.8332 -0.2348
 1821TIP3    H126954   2.413   6.156   3.556 -0.9275  1.2899 -1.6246
 1821TIP3    H226955   2.391   6.274   3.647  0.3702  0.9379 -0.8485
 1822TIP3   OH226956   5.411   3.470   6.685  0.2358 -0.0310  0.1192
 1822TIP3    H126957   5.334   3.456   6.630  0.2402  0.8517 -0.1198
 1822TIP3    H226958   5.475   3.405   6.654 -0.4903 -0.9181  0.4753
 1823TIP3   OH226959   2.928   1.538  16.370  0.1552  0.0440  0.5143
 1823TIP3    H126960   2.885   1.573  16.292 -0.0858 -1.7977 -0.2179
 1823TIP3    H226961   3.002   1.597  16.385 -0.5879  1.1956 -0.3068
 1824TIP3   OH226962   1.644   0.425   2.085 -0.1993 -0.4528  0.1922
 1824TIP3    H126963   1.694   0.344   2.090 -0.0826 -0.3422  0.9559
 1824TIP3    H226964   1.703   0.492   2.120 -0.6538 -0.2177  0.5218
 1825TIP3   OH226965   5.619   3.104  12.137  0.5195  0.1298 -0.1037
 1825TIP3    H126966   5.587   3.089  12.226 -1.8382  1.5717 -0.6688
 1825TIP3    H226967   5.551   3.066  12.081  1.5272  0.0866 -1.3103
 1826TIP3   OH226968   6.439   3.103  13.605 -0.3906 -1.0874 -1.1710
 1826TIP3    H126969   6.416   3.017  13.640 -2.0160 -0.0638  0.3539
 1826TIP3    H226970   6.361   3.156  13.617  1.8392  1.7789  1.7701
 1827TIP3   OH226971   4.335   2.908   1.165  0.4793 -0.7734  0.5414
 1827TIP3    H126972   4.254   2.861   1.186  1.5869 -1.5823  3.1904
 1827TIP3    H226973   4.392   2.841   1.126 -0.2392 -0.1140 -1.7010
 1828TIP3   OH226974   3.781   3.272   4.760  0.6891 -0.1762  0.5531
 1828TIP3    H126975   3.783   3.367   4.769  1.0187 -0.1546  0.2396
 1828TIP3    H226976   3.751   3.241   4.845  1.6031  0.1512  1.0003
 1829TIP3   OH226977   2.935   4.350   6.267  0.1544  0.1177  0.2070
 1829TIP3    H126978   2.862   4.392   6.311  0.1460  0.6928 -0.3671
 1829TIP3    H226979   2.946   4.267   6.314 -2.1615 -0.9027 -0.9977
 1830TIP3   OH226980   1.940   3.695  11.370  0.3113  0.2669 -0.5104
 1830TIP3    H126981   1.900   3.686  11.284  2.6934 -0.4491 -1.5727
 1830TIP3    H226982   2.009   3.760  11.358 -0.6324  1.6625  1.3539
 1831TIP3   OH226983   4.535   5.858   3.249  0.0167 -0.6096  0.4781
 1831TIP3    H126984   4.507   5.777   3.291 -1.7302  0.6051  1.6908
 1831TIP3    H226985   4.524   5.925   3.316  0.4760  0.8030 -0.8412
 1832TIP3   OH226986   1.761   0.609  16.056  0.0300  0.1614  0.5293
 1832TIP3    H126987   1.725   0.613  15.968 -0.0048  2.0115  0.5972
 1832TIP3    H226988   1.699   0.659  16.110  1.5153  1.5115  1.0472
 1833TIP3   OH226989   3.789   5.985  10.803  0.2396  0.0314  0.5017
 1833TIP3    H126990   3.759   5.958  10.716  0.0911 -0.4549  0.7033
 1833TIP3    H226991   3.812   5.904  10.847 -0.8856  0.1637  1.3621
 1834TIP3   OH226992   1.456   5.287  13.053  0.0709 -0.0877 -0.2737
 1834TIP3    H126993   1.407   5.226  12.999 -0.6266 -1.8176  2.2393
 1834TIP3    H226994   1.391   5.324  13.113  1.2894 -0.2080  1.1487
 1835TIP3   OH226995   6.782   0.450   3.399  0.4043  0.4690 -0.3663
 1835TIP3    H126996   6.730   0.374   3.426 -0.5231  0.8341 -1.1030
 1835TIP3    H226997   6.871   0.416   3.388  0.8356  0.2770  3.0300
 1836TIP3   OH226998   6.427   0.156  13.898 -0.0270 -0.2997 -0.6804
 1836TIP3    H126999   6.375   0.094  13.846 -0.0893 -0.8219  0.0050
 1836TIP3    H227000   6.434   0.115  13.984  2.6424 -0.8953 -1.1246
 1837TIP3   OH227001   4.630   0.201   0.633 -0.3875 -0.2721 -0.9427
 1837TIP3    H127002   4.608   0.195   0.726 -0.5426  1.1727 -0.8713
 1837TIP3    H227003   4.703   0.263   0.629  0.6263 -1.4791 -1.6433
 1838TIP3   OH227004   0.107   2.021  11.763 -0.0718 -0.2477 -0.3366
 1838TIP3    H127005   0.063   1.936  11.756  0.7346 -0.6829 -0.1046
 1838TIP3    H227006   0.104   2.056  11.674  1.2627 -1.3590 -0.8494
 1839TIP3   OH227007   5.930   6.180  15.326 -0.2308  0.4235 -0.3235
 1839TIP3    H127008   5.836   6.188  15.315 -0.3696  0.8226  1.0204
 1839TIP3    H227009   5.962   6.270  15.325  0.4460  0.1957 -3.1192
 1840TIP3   OH227010   1.219   3.660  12.004  0.2446  0.2752 -0.0169
 1840TIP3    H127011   1.139   3.686  11.958  0.4227  0.3309 -0.3033
 1840TIP3    H227012   1.259   3.594  11.947  0.5483  0.4599 -0.0208
 1841TIP3   OH227013   3.510   6.659   3.915  0.0751 -0.7391  0.2136
 1841TIP3    H127014   3.507   6.748   3.950  0.1364 -0.4861 -0.4206
 1841TIP3    H227015   3.494   6.603   3.991  0.7928 -0.2170  0.7625
 1842TIP3   OH227016   5.746   5.238   5.628  0.3992  0.0780  0.1540
 1842TIP3    H127017   5.728   5.233   5.722  2.4616 -1.6359  0.5158
 1842TIP3    H227018   5.792   5.321   5.617  1.8298 -0.5734  1.0161
 1843TIP3   OH227019   5.299   3.017   3.493  0.1766 -0.0048  0.8892
 1843TIP3    H127020   5.310   2.927   3.525  1.6467  0.4171  1.6055
 1843TIP3    H227021   5.205   3.034   3.502 -0.2024 -1.6545  0.2396
 1844TIP3   OH227022   5.401   3.937   1.211 -0.8020  0.3428  0.1852
 1844TIP3    H127023   5.408   3.929   1.115  0.5900  0.0088  0.2943
 1844TIP3    H227024   5.477   3.989   1.235 -0.7719 -0.1608  1.1852
 1845TIP3   OH227025   1.525   6.728  16.201 -0.4447  0.1247 -0.5129
 1845TIP3    H127026   1.528   6.633  16.186 -0.7797  0.1723 -0.9126
 1845TIP3    H227027   1.612   6.751  16.232 -1.3639 -0.8775  2.9729
 1846TIP3   OH227028   0.699   0.983  11.336  0.1490  0.2384  0.4718
 1846TIP3    H127029   0.642   0.913  11.306 -1.2647  1.5350  0.0687
 1846TIP3    H227030   0.741   1.015  11.257 -0.4056  0.8846  0.4345
 1847TIP3   OH227031   3.759   5.667   5.599  0.4593  0.0469  0.2749
 1847TIP3    H127032   3.697   5.649   5.528  2.4306 -0.4042 -1.3913
 1847TIP3    H227033   3.827   5.602   5.588  2.9622  2.6192 -0.0502
 1848TIP3   OH227034   5.034   5.897   5.632  0.2863  0.2808 -0.4240
 1848TIP3    H127035   5.022   5.834   5.702  2.6163 -0.3875 -0.5696
 1848TIP3    H227036   5.116   5.942   5.655  1.2695 -0.1881 -2.8640
 1849TIP3   OH227037   4.581   6.152   1.683  0.2868 -0.4282  0.2009
 1849TIP3    H127038   4.517   6.185   1.620  1.4950 -1.8614 -1.8055
 1849TIP3    H227039   4.530   6.098   1.743 -0.9618  1.3843  0.8275
 1850TIP3   OH227040   3.569   1.819   3.259  0.0650  0.1420 -0.0637
 1850TIP3    H127041   3.617   1.787   3.183  0.5156  1.0643 -0.1850
 1850TIP3    H227042   3.537   1.906   3.231  1.0452  0.8961  1.1159
 1851TIP3   OH227043   6.573   5.155  13.645 -0.0692  0.1722 -0.0053
 1851TIP3    H127044   6.638   5.110  13.699 -2.2991 -2.0761  0.9192
 1851TIP3    H227045   6.583   5.116  13.558 -0.0355 -0.0306  0.0891
 1852TIP3   OH227046   3.175   4.071  16.154 -0.7768 -0.4830  0.0575
 1852TIP3    H127047   3.081   4.060  16.138 -0.4676 -0.2406 -2.0888
 1852TIP3    H227048   3.208   3.982  16.165 -0.9400 -0.7076 -1.1802
 1853TIP3   OH227049   3.413   6.145   3.944 -0.0599 -0.2029  0.3545
 1853TIP3    H127050   3.481   6.104   3.890 -0.5355  0.4611 -0.7845
 1853TIP3    H227051   3.332   6.099   3.920 -0.1565 -0.3841  1.0314
 1854TIP3   OH227052   5.900   0.423  10.124 -0.1608  0.3481 -0.5346
 1854TIP3    H127053   5.966   0.434  10.193 -0.8417 -0.7682  0.3074
 1854TIP3    H227054   5.817   0.417  10.171 -0.6729 -0.0846 -1.4832
 1855TIP3   OH227055   4.610   3.238   2.578  0.1285 -0.0251  0.2771
 1855TIP3    H127056   4.622   3.324   2.538 -2.3877  0.3258  0.2421
 1855TIP3    H227057   4.675   3.236   2.649  1.8034  0.9535 -1.1700
 1856TIP3   OH227058   2.249   0.890   1.272 -0.5322 -0.1196 -0.0273
 1856TIP3    H127059   2.326   0.856   1.318 -0.2996 -0.4440 -0.6355
 1856TIP3    H227060   2.251   0.984   1.288  0.8077  0.0762 -1.2028
 1857TIP3   OH227061   5.770   6.260  11.343  0.3285 -0.0483  0.1383
 1857TIP3    H127062   5.727   6.341  11.315 -0.2843 -0.6456 -0.6822
 1857TIP3    H227063   5.710   6.191  11.315  1.6679 -0.8731 -0.7354
 1858TIP3   OH227064   2.155   5.125   5.383  0.0570  0.0368 -0.3797
 1858TIP3    H127065   2.160   5.122   5.288 -2.3600 -0.9606 -0.5146
 1858TIP3    H227066   2.245   5.137   5.412  0.7379  0.9423 -2.8107
 1859TIP3   OH227067   2.315   1.737  16.312  0.1296  0.4273 -0.1060
 1859TIP3    H127068   2.370   1.814  16.325 -0.0964  0.2120  2.3705
 1859TIP3    H227069   2.378   1.666  16.296  0.3818  0.9212 -1.3354
 1860TIP3   OH227070   1.967   4.795  12.947  0.3155  0.5757 -0.7219
 1860TIP3    H127071   1.983   4.750  13.030 -0.0045  0.7505 -0.5637
 1860TIP3    H227072   1.891   4.751  12.909  0.6532  0.2925 -1.0716
 1861TIP3   OH227073   5.192   4.618   4.460  0.6675 -0.0810  0.0868
 1861TIP3    H127074   5.269   4.562   4.470 -1.3162 -2.8471  0.3740
 1861TIP3    H227075   5.225   4.707   4.474  3.4669 -1.3410  1.8619
 1862TIP3   OH227076   3.206   2.938  15.739  0.4219 -0.2925  0.2459
 1862TIP3    H127077   3.260   2.932  15.660  0.7443 -1.8273  0.5558
 1862TIP3    H227078   3.245   2.874  15.799  0.3262  1.0235  1.7413
 1863TIP3   OH227079   2.350   1.080  13.584 -0.3492 -0.1123  0.3606
 1863TIP3    H127080   2.428   1.024  13.578  0.5997  1.2068  0.1471
 1863TIP3    H227081   2.302   1.045  13.659  1.7629  0.6538  2.1218
 1864TIP3   OH227082   5.516   4.831  16.068 -0.2435  0.3447  0.0354
 1864TIP3    H127083   5.478   4.912  16.036  0.6705  0.7584 -0.0307
 1864TIP3    H227084   5.601   4.825  16.024 -1.4183 -2.0240 -2.0308
 1865TIP3   OH227085   1.973   3.514  12.515  0.6262 -0.4893  0.5462
 1865TIP3    H127086   2.005   3.506  12.425  1.0822 -1.3808  0.7826
 1865TIP3    H227087   1.878   3.516  12.506  0.6933  0.2748 -0.0203
 1866TIP3   OH227088   4.817   0.248  16.972 -0.1733  0.3461  0.2153
 1866TIP3    H127089   4.772   0.164  16.966 -0.0379  0.3696 -1.1631
 1866TIP3    H227090   4.909   0.228  16.957 -0.4898  1.1109 -3.2235
 1867TIP3   OH227091   1.261   0.875  12.163 -0.1372 -0.1517  0.3863
 1867TIP3    H127092   1.243   0.781  12.170 -1.6910  0.0739 -0.3703
 1867TIP3    H227093   1.332   0.881  12.099  0.4330 -0.8451  0.9422
 1868TIP3   OH227094   3.356   0.446   0.991  0.0910 -0.6383 -0.1581
 1868TIP3    H127095   3.299   0.432   0.916 -1.4904 -1.0378  1.0876
 1868TIP3    H227096   3.336   0.374   1.051  1.7751 -0.6807  0.3758
 1869TIP3   OH227097   1.667   1.998  11.595 -0.5220  0.0121  0.2042
 1869TIP3    H127098   1.607   2.045  11.654  0.1615  0.0940  0.8540
 1869TIP3    H227099   1.741   2.058  11.585 -0.2531 -0.3653 -0.0626
 1870TIP3   OH227100   1.918   1.024   0.810  0.2522 -0.2098  0.4274
 1870TIP3    H127101   1.969   1.087   0.759 -0.4764  0.5611  0.6165
 1870TIP3    H227102   1.946   0.938   0.779  2.4202  0.1539  1.2789
 1871TIP3   OH227103   2.536   3.285  13.489 -0.4201  0.3811 -0.0341
 1871TIP3    H127104   2.602   3.345  13.525  0.7155 -1.2716  0.6921
 1871TIP3    H227105   2.569   3.263  13.402 -1.2008  1.3574 -0.5823
 1872TIP3   OH227106   5.965   4.013  11.169 -0.4503 -0.7256 -0.2026
 1872TIP3    H127107   6.051   3.980  11.147 -0.7325 -1.7992  0.2836
 1872TIP3    H227108   5.924   4.034  11.085  0.3743  0.0427 -0.4219
 1873TIP3   OH227109   4.417   6.654  12.383 -0.1402 -0.5289  0.0666
 1873TIP3    H127110   4.428   6.570  12.340 -0.0602 -0.5682  0.1635
 1873TIP3    H227111   4.483   6.711  12.343  1.6304 -1.2408  1.8939
 1874TIP3   OH227112   1.347   3.119  10.856 -0.1838  1.1041 -0.8191
 1874TIP3    H127113   1.302   3.055  10.801 -0.0751  2.4854 -2.5530
 1874TIP3    H227114   1.435   3.125  10.819 -0.0095  1.8201 -0.3034
 1875TIP3   OH227115   2.953   5.903  11.623 -0.2711 -0.2380 -0.1262
 1875TIP3    H127116   3.036   5.912  11.671  0.9819  1.7318 -2.5519
 1875TIP3    H227117   2.945   5.809  11.608 -0.7852 -0.9631  3.9566
 1876TIP3   OH227118   0.373   2.682   5.920 -0.0721 -0.1886 -0.4869
 1876TIP3    H127119   0.346   2.606   5.972  0.7977  0.6585  1.2467
 1876TIP3    H227120   0.304   2.747   5.934  1.1981  0.7991  1.3302
 1877TIP3   OH227121   4.523   5.125   3.740  0.4310 -0.6817 -0.0606
 1877TIP3    H127122   4.438   5.112   3.782  0.9204  0.5730  1.3677
 1877TIP3    H227123   4.587   5.107   3.809  1.3061 -0.5901 -0.8352
 1878TIP3   OH227124   2.924   4.683  11.769 -0.4179  0.0819  0.3951
 1878TIP3    H127125   2.940   4.600  11.723 -1.2841 -0.9115  1.8442
 1878TIP3    H227126   2.889   4.741  11.701  0.9576 -0.4659 -0.8224
 1879TIP3   OH227127   0.466   1.854   2.936  0.2726  0.4547 -0.1595
 1879TIP3    H127128   0.520   1.932   2.949 -2.3776  2.1551  1.1568
 1879TIP3    H227129   0.511   1.785   2.984  0.3473  2.2797  2.4717
 1880TIP3   OH227130   4.259   3.841  17.194 -0.3971 -0.0319  0.2257
 1880TIP3    H127131   4.188   3.885  17.241 -0.4157  0.0136  0.1549
 1880TIP3    H227132   4.260   3.882  17.107  0.2216  0.5050  0.4861
 1881TIP3   OH227133   1.622   2.742   0.755 -0.1040  0.1447  0.0553
 1881TIP3    H127134   1.701   2.717   0.707 -0.7078 -0.8228 -0.4366
 1881TIP3    H227135   1.611   2.836   0.737  1.6499  0.6029  1.1682
 1882TIP3   OH227136   6.802   4.421   5.653 -0.3033 -0.4229  0.1387
 1882TIP3    H127137   6.786   4.401   5.561 -1.2362  0.2684  0.1356
 1882TIP3    H227138   6.719   4.404   5.697  0.5372 -2.1114  1.1064
 1883TIP3   OH227139   6.298   6.543  14.474 -0.2849  0.1519 -0.1335
 1883TIP3    H127140   6.218   6.577  14.435 -0.4743 -0.4565 -0.2918
 1883TIP3    H227141   6.356   6.527  14.399 -0.3250 -0.1874 -0.0959
 1884TIP3   OH227142   0.454   2.151   1.031 -0.1105 -0.4391 -0.0428
 1884TIP3    H127143   0.364   2.180   1.020  0.1882  0.5202 -0.0618
 1884TIP3    H227144   0.448   2.073   1.086 -1.0037 -0.8100 -0.6648
 1885TIP3   OH227145   0.351   0.139  16.800  0.1363 -0.2322  0.3260
 1885TIP3    H127146   0.348   0.058  16.750  2.7566  0.2147 -0.6229
 1885TIP3    H227147   0.309   0.118  16.884 -1.0540 -1.9598 -0.6795
 1886TIP3   OH227148   6.410   5.299  14.576  0.1500 -0.1459 -0.7802
 1886TIP3    H127149   6.487   5.248  14.602 -0.9375 -0.1626  2.5782
 1886TIP3    H227150   6.413   5.377  14.630 -1.0107  0.9285 -2.2179
 1887TIP3   OH227151   0.775   0.909   1.251  0.0618 -0.4310  0.1314
 1887TIP3    H127152   0.749   0.990   1.209  0.8956 -2.0953 -3.8555
 1887TIP3    H227153   0.825   0.937   1.328  2.2727  2.8821 -2.3684
 1888TIP3   OH227154   1.431   3.382  16.661  0.0810 -0.3524  0.0480
 1888TIP3    H127155   1.409   3.308  16.718 -1.6677  0.5449  0.5770
 1888TIP3    H227156   1.427   3.459  16.719  2.7359  0.0899 -0.2858
 1889TIP3   OH227157   1.420   6.292   6.379 -1.0136  0.0532  0.3787
 1889TIP3    H127158   1.354   6.227   6.355 -1.5553  0.4907  0.6940
 1889TIP3    H227159   1.372   6.359   6.427 -0.7421  1.4961 -1.3122
 1890TIP3   OH227160   1.149   4.163  14.705 -0.5928  0.2564  0.1156
 1890TIP3    H127161   1.099   4.244  14.700 -1.3541 -0.2557 -0.6668
 1890TIP3    H227162   1.210   4.167  14.631 -0.6732  0.0825  0.0407
 1891TIP3   OH227163   0.416   0.352   2.464  0.0147  0.3642  0.0298
 1891TIP3    H127164   0.380   0.358   2.553  1.2012  2.3278  0.3916
 1891TIP3    H227165   0.490   0.291   2.472 -1.0008 -0.9085 -0.0133
 1892TIP3   OH227166   3.445   4.052  15.695 -0.1964  0.2436 -0.0237
 1892TIP3    H127167   3.359   4.016  15.718 -0.3804  1.2656  0.9441
 1892TIP3    H227168   3.440   4.144  15.719  1.3699  0.1935  0.5786
 1893TIP3   OH227169   2.344   2.157   1.835  0.5259 -0.3359 -0.2140
 1893TIP3    H127170   2.289   2.168   1.758  0.9086  0.4398 -0.3749
 1893TIP3    H227171   2.302   2.086   1.884 -0.2612 -0.1758 -0.6509
 1894TIP3   OH227172   3.857   4.354   5.914 -0.5706 -0.4709 -0.1960
 1894TIP3    H127173   3.931   4.339   5.855  0.7479 -0.2711  1.3771
 1894TIP3    H227174   3.868   4.444   5.945 -0.7765 -0.8364  0.9874
 1895TIP3   OH227175   2.903   2.231  14.741 -0.4751  0.3462  0.5718
 1895TIP3    H127176   2.814   2.251  14.770 -0.5432 -0.4152  0.8854
 1895TIP3    H227177   2.900   2.241  14.646 -0.9466  0.1149  0.5621
 1896TIP3   OH227178   5.624   1.144  11.761  0.1316  0.1657 -0.0120
 1896TIP3    H127179   5.577   1.164  11.681 -0.7764 -0.3451  0.3863
 1896TIP3    H227180   5.593   1.209  11.825 -2.4489 -2.0591  1.1379
 1897TIP3   OH227181   3.561   5.697   2.796 -0.2444  0.3879 -0.4630
 1897TIP3    H127182   3.589   5.718   2.885 -1.9242  0.6022  0.0165
 1897TIP3    H227183   3.571   5.602   2.790 -0.3488  0.3465  0.0242
 1898TIP3   OH227184   0.019   5.798  14.399  0.1232  0.2784 -0.1698
 1898TIP3    H127185  -0.008   5.802  14.308  0.2097  0.9810 -0.1651
 1898TIP3    H227186  -0.027   5.721  14.435 -2.1086  1.6309 -0.0701
 1899TIP3   OH227187   0.884   5.802  14.539  0.5569 -0.0924  0.5253
 1899TIP3    H127188   0.945   5.776  14.608  1.1945  0.7059  0.2774
 1899TIP3    H227189   0.931   5.870  14.490 -0.4879  0.4567  0.2679
 1900TIP3   OH227190   1.207   3.902  14.824 -0.4054 -0.4337  0.3158
 1900TIP3    H127191   1.208   3.983  14.773  1.0810 -0.7580 -0.2178
 1900TIP3    H227192   1.159   3.924  14.904 -0.6584  0.7685 -0.1617
 1901TIP3   OH227193   3.958   4.225   0.115  0.1899  0.5872 -0.4692
 1901TIP3    H127194   3.871   4.196   0.143 -0.8674 -0.2946 -4.2702
 1901TIP3    H227195   3.970   4.310   0.156 -3.0218  1.2492 -0.7626
 1902TIP3   OH227196   4.477   0.412  13.708 -0.0078 -0.1256 -0.1025
 1902TIP3    H127197   4.395   0.369  13.732  1.8519 -3.5936  0.2529
 1902TIP3    H227198   4.505   0.457  13.788 -0.8001 -0.1586  0.1961
 1903TIP3   OH227199   6.482   4.608  14.055  0.3066  0.4077  0.2470
 1903TIP3    H127200   6.516   4.678  14.109  2.6744 -3.1559  3.6867
 1903TIP3    H227201   6.555   4.585  13.997 -0.4921  0.8747 -0.9537
 1904TIP3   OH227202   4.030   3.070  16.975  0.3268  0.1912 -0.2326
 1904TIP3    H127203   4.043   3.111  16.889  0.8824 -0.3106 -0.3897
 1904TIP3    H227204   4.096   3.112  17.030  0.9743 -0.5768 -0.4222
 1905TIP3   OH227205   5.168   4.037   0.920  0.1018 -0.8656  0.0127
 1905TIP3    H127206   5.227   3.988   0.978 -0.1313 -2.5276 -1.1328
 1905TIP3    H227207   5.209   4.033   0.834 -1.5597 -1.8226 -0.7448
 1906TIP3   OH227208   0.636   4.489   5.101 -0.5647 -0.5589  0.2509
 1906TIP3    H127209   0.693   4.413   5.114 -1.4780 -1.3465 -0.2972
 1906TIP3    H227210   0.628   4.528   5.188  0.4648 -0.6817  0.4090
 1907TIP3   OH227211   0.999   2.171   5.794 -0.1081  0.2028  0.8371
 1907TIP3    H127212   0.944   2.095   5.779 -0.8236  0.5664  1.6023
 1907TIP3    H227213   1.043   2.154   5.877 -1.0756  1.0830  1.5452
 1908TIP3   OH227214   4.225   4.272   4.569  0.7522  0.2039 -0.2865
 1908TIP3    H127215   4.267   4.305   4.649  1.2585  0.4051 -0.6312
 1908TIP3    H227216   4.182   4.191   4.597  1.0185  0.2126  0.1660
 1909TIP3   OH227217   3.305   3.540  12.450  0.3305 -0.4657  0.2913
 1909TIP3    H127218   3.278   3.466  12.504  1.5369 -0.7572  0.4908
 1909TIP3    H227219   3.263   3.524  12.365 -2.4469  0.5323  1.3998
 1910TIP3   OH227220   2.523   1.325   4.371  0.1318  0.1407  0.1289
 1910TIP3    H127221   2.503   1.268   4.446 -1.4914  0.3198 -0.1689
 1910TIP3    H227222   2.439   1.339   4.328  0.5914  2.3704 -0.0840
 1911TIP3   OH227223   6.519   4.300   1.219 -0.6247  0.1778  0.6848
 1911TIP3    H127224   6.505   4.393   1.206  0.5219  0.3250  0.4156
 1911TIP3    H227225   6.438   4.268   1.259 -1.4524  1.0686 -0.2774
 1912TIP3   OH227226   2.291   0.583   2.740  0.0115 -0.2629 -0.0315
 1912TIP3    H127227   2.201   0.602   2.768  0.0317  1.8394 -1.2949
 1912TIP3    H227228   2.342   0.589   2.821 -0.2506  3.6008 -0.0575
 1913TIP3   OH227229   6.541   4.174   5.472  0.8907 -0.2981 -0.1581
 1913TIP3    H127230   6.632   4.186   5.445  0.9299 -2.2402 -0.9697
 1913TIP3    H227231   6.544   4.099   5.531 -0.4524 -1.6409 -1.7691
 1914TIP3   OH227232   6.085   5.284   2.371 -0.3352  0.5654 -0.0609
 1914TIP3    H127233   6.051   5.254   2.286 -1.4977  0.9088  0.2754
 1914TIP3    H227234   6.161   5.337   2.348 -2.0419  2.7010 -1.1034
 1915TIP3   OH227235   0.633   1.077   5.971 -0.1240  0.2182 -0.2295
 1915TIP3    H127236   0.674   1.018   5.908 -0.0430  0.5307 -0.4706
 1915TIP3    H227237   0.629   1.027   6.052  1.5474  0.4999  0.0383
 1916TIP3   OH227238   4.881   3.753  16.209  0.4827  0.0149 -0.1923
 1916TIP3    H127239   4.974   3.751  16.188  0.8261 -0.3436  1.3003
 1916TIP3    H227240   4.878   3.748  16.304 -0.9842  2.6221 -0.0670
 1917TIP3   OH227241   1.680   5.379  15.586  0.0990 -0.4089 -0.0257
 1917TIP3    H127242   1.758   5.325  15.577 -0.1587 -0.5971 -1.2737
 1917TIP3    H227243   1.677   5.431  15.506 -0.5226  0.3099  0.4526
 1918TIP3   OH227244   5.150   0.167   3.225 -0.4115  0.3501  0.0563
 1918TIP3    H127245   5.195   0.201   3.303 -1.2898  0.7904  0.3764
 1918TIP3    H227246   5.216   0.172   3.156  0.1358  0.6991  0.5925
 1919TIP3   OH227247   2.485   2.803   1.186  0.7377 -0.1252  0.7296
 1919TIP3    H127248   2.509   2.857   1.111 -1.3631  0.9151  0.7734
 1919TIP3    H227249   2.554   2.736   1.190  0.9810 -0.0958 -1.9908
 1920TIP3   OH227250   2.841   2.967  10.678 -0.1082  0.3862  0.0560
 1920TIP3    H127251   2.821   3.061  10.677  0.2885  0.4704  0.0706
 1920TIP3    H227252   2.756   2.925  10.691 -0.4531  0.6938 -1.0847
 1921TIP3   OH227253   3.414   5.699   3.941 -0.0940  0.3019 -0.1910
 1921TIP3    H127254   3.417   5.754   4.019 -0.6766 -0.3075  0.2594
 1921TIP3    H227255   3.380   5.757   3.872  1.3251  1.1137 -0.2368
 1922TIP3   OH227256   1.437   6.091   3.960  0.2908 -0.4224 -0.0441
 1922TIP3    H127257   1.428   6.145   3.882  1.1189 -0.5890 -0.2615
 1922TIP3    H227258   1.372   6.125   4.021  0.8626  0.8828 -0.1394
 1923TIP3   OH227259   5.416   6.283   0.584  0.4387  0.4511  0.3231
 1923TIP3    H127260   5.427   6.372   0.616  1.1519  0.5431 -0.1758
 1923TIP3    H227261   5.472   6.277   0.507 -0.2871 -0.1589 -0.1786
 1924TIP3   OH227262   3.497   3.057  10.938 -1.0836 -0.2362 -0.2720
 1924TIP3    H127263   3.591   3.047  10.950 -1.0135  0.2690 -0.3874
 1924TIP3    H227264   3.460   3.045  11.025 -0.8300  0.4860 -0.0631
 1925TIP3   OH227265   1.656   4.174  14.873 -0.9598  0.0799 -0.2460
 1925TIP3    H127266   1.650   4.247  14.811  1.4302 -0.3714 -1.0700
 1925TIP3    H227267   1.693   4.103  14.821 -0.0998 -0.6899  1.4097
 1926TIP3   OH227268   3.218   6.568   6.234 -0.0561  0.6541  0.4241
 1926TIP3    H127269   3.128   6.554   6.265  0.5740 -0.3232  1.8456
 1926TIP3    H227270   3.271   6.508   6.285  1.2527  0.1982 -1.4228
 1927TIP3   OH227271   1.418   4.869   0.166  0.1094  0.5522 -0.6858
 1927TIP3    H127272   1.352   4.910   0.222 -0.2882 -0.1242 -0.6569
 1927TIP3    H227273   1.488   4.844   0.226 -0.4424 -0.4286 -0.4526
 1928TIP3   OH227274   5.707   0.433  11.130 -0.5634  0.4253  0.0531
 1928TIP3    H127275   5.678   0.520  11.104  0.8331  0.5827 -1.0241
 1928TIP3    H227276   5.639   0.374  11.098 -1.2778  1.0636  0.3809
 1929TIP3   OH227277   2.474   2.475  13.536 -0.5416  0.6851  0.1195
 1929TIP3    H127278   2.411   2.498  13.468 -0.7206 -2.2501 -0.7421
 1929TIP3    H227279   2.422   2.436  13.606  0.0587  0.4910  0.4622
 1930TIP3   OH227280   3.439   1.825   5.373  0.1723  0.0487  0.1368
 1930TIP3    H127281   3.481   1.817   5.458  0.2559  2.0737  0.3103
 1930TIP3    H227282   3.397   1.911   5.375  1.8682  1.0069 -2.5995
 1931TIP3   OH227283   4.617   6.684  12.719 -0.0211  0.4556  0.3745
 1931TIP3    H127284   4.602   6.595  12.689  0.5878 -0.5869  3.0280
 1931TIP3    H227285   4.535   6.730  12.699  0.1457 -0.2929 -2.2643
 1932TIP3   OH227286   3.464   3.975  14.638 -0.3825 -0.4779 -0.2277
 1932TIP3    H127287   3.389   4.022  14.602 -0.6949 -0.0843  0.9018
 1932TIP3    H227288   3.505   3.933  14.563 -0.8889  0.5016 -1.0662
 1933TIP3   OH227289   6.112   2.778  13.624  0.1642 -0.4805  0.0922
 1933TIP3    H127290   6.203   2.805  13.633 -0.3730  0.7398  2.1066
 1933TIP3    H227291   6.099   2.712  13.693 -0.5139 -0.5474 -0.0893
 1934TIP3   OH227292   4.851   2.779  16.646 -0.4598 -0.1857  0.0353
 1934TIP3    H127293   4.759   2.806  16.645 -0.3008  0.3808  0.6197
 1934TIP3    H227294   4.851   2.693  16.604 -1.3347 -0.4294  0.5184
 1935TIP3   OH227295   3.132   1.226   0.368 -0.5126 -0.1367 -0.8083
 1935TIP3    H127296   3.226   1.230   0.387 -0.6731  0.4111 -0.1355
 1935TIP3    H227297   3.091   1.282   0.434 -1.5875 -2.5688  0.6543
 1936TIP3   OH227298   6.059   6.387   1.103  0.0777  0.3929  0.4146
 1936TIP3    H127299   6.075   6.377   1.197  3.3950  0.3412 -0.0968
 1936TIP3    H227300   6.028   6.302   1.074 -1.5968  0.5910  1.5447
 1937TIP3   OH227301   4.668   6.780   3.421  0.3005 -0.1958 -0.4972
 1937TIP3    H127302   4.615   6.775   3.342 -0.9690  1.9964  0.1831
 1937TIP3    H227303   4.754   6.809   3.391  0.9549 -2.9538 -1.4916
 1938TIP3   OH227304   5.396   2.857  14.659  0.2356  0.2508  0.2385
 1938TIP3    H127305   5.395   2.860  14.754 -1.8074  0.1817  0.2368
 1938TIP3    H227306   5.308   2.827  14.635  0.1114  2.0935 -1.7157
 1939TIP3   OH227307   2.390   2.253   5.770  0.0033 -0.0231  0.2895
 1939TIP3    H127308   2.438   2.318   5.719  0.5177 -0.2407  0.4939
 1939TIP3    H227309   2.445   2.237   5.847 -0.1442 -0.6555  0.2701
 1940TIP3   OH227310   2.241   6.085  11.619 -0.2131  0.2440 -0.1640
 1940TIP3    H127311   2.329   6.122  11.609  0.4705 -1.0941  0.7072
 1940TIP3    H227312   2.252   5.992  11.599 -1.7081  0.3052 -1.3464
 1941TIP3   OH227313   5.822   0.727  13.104 -0.2824 -0.1419  0.6604
 1941TIP3    H127314   5.729   0.704  13.104 -0.3309  0.0495  0.2681
 1941TIP3    H227315   5.839   0.759  13.192 -0.5122 -0.4837  0.8317
 1942TIP3   OH227316   6.405   5.891  13.398  0.0192  0.1856 -0.5582
 1942TIP3    H127317   6.358   5.961  13.353 -0.1920  1.6365  1.8156
 1942TIP3    H227318   6.497   5.913  13.388 -0.0395  0.7032 -0.0125
 1943TIP3   OH227319   0.439   2.625  10.702  0.8615 -0.2597  0.0126
 1943TIP3    H127320   0.527   2.632  10.665 -0.2607  0.1083 -2.6985
 1943TIP3    H227321   0.385   2.684  10.649 -1.4760 -2.1366  0.1987
 1944TIP3   OH227322   2.493   2.117   4.424 -0.3502  0.3901  0.4962
 1944TIP3    H127323   2.411   2.072   4.403  0.2876  0.3779 -2.0462
 1944TIP3    H227324   2.473   2.210   4.417  0.0568  0.3725 -0.9318
 1945TIP3   OH227325   0.395   6.151  12.225  0.1176  0.1514  0.3332
 1945TIP3    H127326   0.445   6.108  12.294  0.2377  2.0976  1.4784
 1945TIP3    H227327   0.401   6.244  12.245 -2.6060  0.5377 -0.4466
 1946TIP3   OH227328   6.391   4.800   3.337 -0.1572 -0.2422 -0.4037
 1946TIP3    H127329   6.304   4.791   3.297 -1.3669  2.1234  1.5094
 1946TIP3    H227330   6.407   4.894   3.336  1.5617 -0.5088  1.0002
 1947TIP3   OH227331   1.450   5.576  10.633 -0.0547  0.4064 -0.4387
 1947TIP3    H127332   1.385   5.580  10.704 -0.5245  0.3980 -0.8639
 1947TIP3    H227333   1.493   5.662  10.635  1.3953 -0.3346  1.2126
 1948TIP3   OH227334   6.161   1.697  12.441 -0.4953 -0.7117  0.0923
 1948TIP3    H127335   6.189   1.784  12.470 -1.1306 -0.7127  0.7274
 1948TIP3    H227336   6.198   1.637  12.505  0.7691 -1.0031 -0.9001
 1949TIP3   OH227337   0.993   3.326  13.201  0.3506 -0.4329 -0.5513
 1949TIP3    H127338   1.087   3.312  13.216  0.3034  0.0946  0.3095
 1949TIP3    H227339   0.984   3.330  13.106  1.5925  2.1035 -0.6020
 1950TIP3   OH227340   6.431   5.142   0.804 -0.4677  0.5465 -0.5178
 1950TIP3    H127341   6.351   5.103   0.769 -0.1079 -0.9544  0.2731
 1950TIP3    H227342   6.415   5.150   0.898 -0.0537  1.1317 -0.4955
 1951TIP3   OH227343   1.596   1.404  12.636 -0.1211 -0.1216  0.6858
 1951TIP3    H127344   1.617   1.314  12.658 -0.2722 -0.5513 -0.8379
 1951TIP3    H227345   1.506   1.401  12.604 -0.0912  0.5514  0.5193
 1952TIP3   OH227346   1.389   1.812  15.870  0.7481  0.0042  0.6155
 1952TIP3    H127347   1.354   1.832  15.784  0.5893  0.1042  0.7022
 1952TIP3    H227348   1.398   1.897  15.913 -0.0676 -0.1070  1.0380
 1953TIP3   OH227349   3.494   0.278   4.814  0.3172  0.7953 -0.4026
 1953TIP3    H127350   3.491   0.204   4.874  0.9775  0.0707 -1.2426
 1953TIP3    H227351   3.402   0.295   4.792  0.0899  0.9260  0.6275
 1954TIP3   OH227352   2.637   0.166   2.818  0.1373 -0.0838  0.0673
 1954TIP3    H127353   2.632   0.238   2.754  1.1192  0.1216  0.2113
 1954TIP3    H227354   2.643   0.087   2.764 -1.1945 -0.0940 -0.0932
 1955TIP3   OH227355   3.989   3.467   5.710  0.2493  0.3157 -0.0017
 1955TIP3    H127356   4.054   3.536   5.723  1.4657 -0.8219  0.0729
 1955TIP3    H227357   3.922   3.484   5.776 -0.0759  2.1170 -0.7633
 1956TIP3   OH227358   6.141   4.591  14.781  0.3371  0.0369  1.1506
 1956TIP3    H127359   6.117   4.663  14.840 -0.9970  0.8336 -0.3300
 1956TIP3    H227360   6.212   4.546  14.827  2.3049  3.2444  1.4469
 1957TIP3   OH227361   2.699   1.274   4.913  0.0547  0.2423  0.7187
 1957TIP3    H127362   2.702   1.350   4.854  1.5917  1.4502  2.2894
 1957TIP3    H227363   2.615   1.233   4.896 -0.5187  1.9304 -0.6373
 1958TIP3   OH227364   2.912   0.001  11.199  0.1975 -0.3440 -0.3587
 1958TIP3    H127365   2.839  -0.017  11.141  1.9242 -4.5443 -1.3627
 1958TIP3    H227366   2.954   0.078  11.162 -1.4850 -0.1408 -1.8958
 1959TIP3   OH227367   3.584   5.183  12.398  0.2575 -0.2602  0.3841
 1959TIP3    H127368   3.494   5.206  12.376  0.8928  0.6024 -1.4569
 1959TIP3    H227369   3.611   5.250  12.461  0.1334  0.4771 -0.3329
 1960TIP3   OH227370   5.248   3.622  14.054  0.7160  0.3257 -0.8789
 1960TIP3    H127371   5.253   3.701  14.107  1.9642  0.1332 -0.7036
 1960TIP3    H227372   5.333   3.616  14.011  0.8217 -1.1842 -0.5063
 1961TIP3   OH227373   4.088   6.509   5.283 -0.4243 -0.3060  0.3341
 1961TIP3    H127374   4.179   6.488   5.306 -0.8006 -1.0602  1.1489
 1961TIP3    H227375   4.095   6.589   5.231  0.7751 -0.7736 -0.2524
 1962TIP3   OH227376   0.712   6.502  14.173 -0.1369  0.8191 -0.5051
 1962TIP3    H127377   0.654   6.560  14.223  0.3538  1.0180 -0.1556
 1962TIP3    H227378   0.679   6.414  14.192 -0.4043  0.9372 -0.4095
 1963TIP3   OH227379   4.289   6.242  13.373 -0.4502 -0.5703 -0.4827
 1963TIP3    H127380   4.271   6.335  13.386  1.0304 -0.6777  3.0377
 1963TIP3    H227381   4.220   6.212  13.315 -2.0552  2.3310 -0.1778
 1964TIP3   OH227382   2.247   5.774   4.698  0.3527 -0.2133 -0.4104
 1964TIP3    H127383   2.174   5.827   4.731 -0.3296 -1.4238  0.0423
 1964TIP3    H227384   2.325   5.824   4.723 -0.2929  0.7739 -0.3294
 1965TIP3   OH227385   0.279   6.136   4.336  0.1721 -0.4808  0.8257
 1965TIP3    H127386   0.211   6.084   4.379 -2.7428  1.2084 -1.5734
 1965TIP3    H227387   0.303   6.085   4.259 -1.1209  0.6575 -0.3527
 1966TIP3   OH227388   5.292   4.374   0.863 -0.1128 -0.0195  0.1357
 1966TIP3    H127389   5.258   4.288   0.836  0.5251 -0.6438  1.2549
 1966TIP3    H227390   5.259   4.386   0.952  1.2850  0.0633  0.6637
 1967TIP3   OH227391   3.054   6.247   3.203  0.0044 -0.1127 -0.7317
 1967TIP3    H127392   3.101   6.166   3.183 -0.5536 -1.0868  1.6776
 1967TIP3    H227393   3.116   6.299   3.253  0.5905  1.2765 -2.8414
 1968TIP3   OH227394   2.467   3.704   1.065  0.0848 -0.3372 -0.7346
 1968TIP3    H127395   2.406   3.694   0.991 -0.7360  2.7525 -0.5134
 1968TIP3    H227396   2.486   3.797   1.069  1.3053 -0.6507  2.0623
 1969TIP3   OH227397   2.620   1.976   4.639 -0.0958  0.3131  0.1797
 1969TIP3    H127398   2.597   2.025   4.561  0.0911 -1.6057 -1.1240
 1969TIP3    H227399   2.701   2.017   4.670  0.9262 -0.1395 -1.7849
 1970TIP3   OH227400   5.225   2.705   2.751  0.3522 -0.1216 -0.0100
 1970TIP3    H127401   5.201   2.665   2.668 -2.1688 -2.7299  1.8371
 1970TIP3    H227402   5.145   2.749   2.780  0.1332 -1.9765  2.4470
 1971TIP3   OH227403   0.376   3.904   5.374 -0.3001  0.0951  0.6361
 1971TIP3    H127404   0.382   3.996   5.348 -1.5159  0.2371  0.8430
 1971TIP3    H227405   0.377   3.855   5.292 -2.5740  0.4615  0.3506
 1972TIP3   OH227406   0.962   4.239  12.630 -0.0382  0.0659  0.0462
 1972TIP3    H127407   0.919   4.312  12.587 -1.0111 -0.4264  0.1610
 1972TIP3    H227408   1.024   4.279  12.690 -1.3187  0.8259  0.8774
 1973TIP3   OH227409   3.211   1.205  14.306 -0.5293 -0.1675  0.1187
 1973TIP3    H127410   3.118   1.207  14.329 -0.3000 -1.8313  1.2217
 1973TIP3    H227411   3.212   1.219  14.211 -1.7574  1.9296  0.3778
 1974TIP3   OH227412   4.638   4.884  12.735  0.0182 -0.1224  0.0737
 1974TIP3    H127413   4.733   4.881  12.724 -0.0450 -0.8324 -0.3378
 1974TIP3    H227414   4.622   4.962  12.787  0.8677 -0.2702  0.5602
 1975TIP3   OH227415   5.780   2.419  17.244 -0.2683  0.4208 -0.0328
 1975TIP3    H127416   5.784   2.500  17.194 -0.4389  0.5826  0.2183
 1975TIP3    H227417   5.754   2.352  17.181 -0.4899  0.6277 -0.1599
 1976TIP3   OH227418   0.098   5.913   1.013 -0.1870  0.2699  0.1565
 1976TIP3    H127419   0.135   5.974   1.077 -1.2131  1.2588 -0.1757
 1976TIP3    H227420   0.029   5.867   1.061 -1.0981  1.1639 -0.3100
 1977TIP3   OH227421   4.441   5.376   4.934  0.5565  0.5674  0.1360
 1977TIP3    H127422   4.495   5.338   5.004  0.0701 -1.1660 -0.4202
 1977TIP3    H227423   4.406   5.457   4.973  2.6360  1.1379  0.8841
 1978TIP3   OH227424   5.431   5.076   5.978  0.0027 -0.2994 -0.0920
 1978TIP3    H127425   5.475   4.993   5.959 -1.2887 -1.1189  0.4197
 1978TIP3    H227426   5.468   5.104   6.062  1.3496  0.2956 -0.8625
 1979TIP3   OH227427   2.779   1.550  14.103 -0.0446 -0.1829  0.2338
 1979TIP3    H127428   2.821   1.633  14.080 -0.9673  0.4115  0.6517
 1979TIP3    H227429   2.839   1.509  14.164 -0.0556  0.6576  0.8193
 1980TIP3   OH227430   6.181   4.491  13.528 -1.0099 -0.0901  0.3906
 1980TIP3    H127431   6.273   4.487  13.552 -0.4441 -1.3884 -1.8554
 1980TIP3    H227432   6.140   4.542  13.598  1.4748  0.9092  1.1622
 1981TIP3   OH227433   0.172   3.499   0.473 -0.0077 -0.0938  0.3183
 1981TIP3    H127434   0.153   3.573   0.531 -0.6578  0.5029 -0.6437
 1981TIP3    H227435   0.090   3.449   0.471 -0.7673  1.1566 -1.9033
 1982TIP3   OH227436   6.663   3.690   1.134  0.4490 -0.2934  0.4476
 1982TIP3    H127437   6.703   3.609   1.102 -0.2390 -0.2067 -0.6596
 1982TIP3    H227438   6.570   3.672   1.137  0.2567  0.5401 -0.0817
 1983TIP3   OH227439   6.596   0.706   5.682 -0.7219  0.1179 -0.3445
 1983TIP3    H127440   6.672   0.655   5.709 -1.5357 -0.2174  1.4028
 1983TIP3    H227441   6.568   0.752   5.762 -4.3736 -2.4088 -0.0681
 1984TIP3   OH227442   3.369   3.060  11.205  0.3654  0.2187  0.1111
 1984TIP3    H127443   3.285   3.098  11.180  0.6444  0.2283 -0.8143
 1984TIP3    H227444   3.357   3.033  11.296  0.0780  2.2626  0.6962
 1985TIP3   OH227445   0.169   1.801  12.180 -0.0301  0.0741  0.6435
 1985TIP3    H127446   0.198   1.884  12.144 -0.0408 -0.5382 -0.8305
 1985TIP3    H227447   0.110   1.765  12.113  2.4800 -2.5991 -0.3083
 1986TIP3   OH227448   3.928   0.011  12.378 -0.0875 -0.5621 -0.4726
 1986TIP3    H127449   3.853   0.044  12.329 -0.5222 -1.9462 -0.7563
 1986TIP3    H227450   3.913  -0.083  12.385  0.9884 -0.6668  0.5730
 1987TIP3   OH227451   1.127   1.836  15.386 -0.3076  0.5532 -0.4557
 1987TIP3    H127452   1.159   1.849  15.297 -1.5676  0.9342 -0.8747
 1987TIP3    H227453   1.086   1.749  15.383 -0.1068  0.4505 -0.1753
 1988TIP3   OH227454   4.154   2.417  12.796 -0.2472 -0.6432 -0.1142
 1988TIP3    H127455   4.234   2.369  12.774 -0.0237  0.4119 -1.7023
 1988TIP3    H227456   4.088   2.350  12.809  0.1815 -1.3943 -1.8030
 1989TIP3   OH227457   5.638   6.705  10.742  0.1179 -0.0351 -1.1275
 1989TIP3    H127458   5.685   6.622  10.739  0.4271 -0.0754  2.5966
 1989TIP3    H227459   5.660   6.749  10.660  0.4071 -3.3685 -2.8926
 1990TIP3   OH227460   2.159   4.814   4.837  0.3404  0.1018  0.1130
 1990TIP3    H127461   2.226   4.752   4.868  1.0629  1.3991  1.2248
 1990TIP3    H227462   2.083   4.760   4.819  0.9920 -1.1301  0.9771
 1991TIP3   OH227463   3.002   0.208  11.832 -0.1826 -0.2786 -0.0333
 1991TIP3    H127464   3.022   0.301  11.827  0.0849 -0.4133 -1.8254
 1991TIP3    H227465   3.001   0.178  11.741 -1.1512 -1.8400  0.4609
 1992TIP3   OH227466   1.128   1.731  14.975 -0.9437 -0.2670  0.2302
 1992TIP3    H127467   1.049   1.705  15.023 -0.8373 -1.0243  0.0138
 1992TIP3    H227468   1.173   1.648  14.958  0.0989  0.2044  0.6944
 1993TIP3   OH227469   3.591   1.283  12.071 -0.5309  0.1486  0.5863
 1993TIP3    H127470   3.575   1.323  12.157 -2.7060  0.2413  0.1637
 1993TIP3    H227471   3.504   1.260  12.039  0.3594 -0.9510 -1.0945
 1994TIP3   OH227472   5.611   5.764  17.034  0.1742 -0.2011  0.0005
 1994TIP3    H127473   5.636   5.676  17.062  0.5408  0.0430  0.4423
 1994TIP3    H227474   5.560   5.798  17.107  0.0767 -0.0227 -0.1531
 1995TIP3   OH227475   6.680   4.133  14.352  0.3080  0.2162 -0.2653
 1995TIP3    H127476   6.684   4.191  14.428  0.7037  2.2213 -1.7644
 1995TIP3    H227477   6.756   4.075  14.362  0.4792  0.6015  0.7470
 1996TIP3   OH227478   1.466   1.886  15.337 -0.4273  0.3026 -0.3576
 1996TIP3    H127479   1.401   1.877  15.268  1.7035  0.1516 -2.4291
 1996TIP3    H227480   1.458   1.805  15.388 -1.2302 -0.1276 -1.1546
 1997TIP3   OH227481   0.681   1.473   2.013  0.5190 -0.9653  0.2394
 1997TIP3    H127482   0.588   1.485   1.992  0.8352  0.1297 -0.5380
 1997TIP3    H227483   0.681   1.405   2.081 -0.9543 -0.0196  1.2253
 1998TIP3   OH227484   4.679   1.219  12.181 -0.0942  0.0097  0.1594
 1998TIP3    H127485   4.609   1.154  12.175  0.2912 -0.5372  1.5664
 1998TIP3    H227486   4.640   1.299  12.147 -0.8852 -0.6899 -0.6297
 1999TIP3   OH227487   0.504   4.413  16.589  0.1177  0.0069 -0.6605
 1999TIP3    H127488   0.435   4.471  16.555  0.5025 -0.0458 -1.5448
 1999TIP3    H227489   0.582   4.438  16.539  0.9147  0.5697  0.8488
 2000TIP3   OH227490   5.369   5.498  11.224  0.5716  0.3023 -0.0420
 2000TIP3    H127491   5.451   5.526  11.266  1.8848 -1.4692 -1.3496
 2000TIP3    H227492   5.332   5.578  11.188  1.3671  1.2397  1.1879
 2001TIP3   OH227493   6.636   3.851  13.063 -0.3182 -0.1131 -0.3444
 2001TIP3    H127494   6.625   3.768  13.017 -0.5366 -0.4402  0.2916
 2001TIP3    H227495   6.548   3.889  13.067 -0.4460 -0.4945  0.5593
 2002TIP3   OH227496   6.015   6.650  10.701  0.2947 -0.0623  0.9643
 2002TIP3    H127497   6.024   6.744  10.717  2.5807  0.1186 -1.0131
 2002TIP3    H227498   6.105   6.620  10.686 -0.6589 -2.0174 -1.1810
 2003TIP3   OH227499   5.571   1.554   2.519  0.6731 -0.0393 -0.5898
 2003TIP3    H127500   5.659   1.516   2.516  0.8854  0.3829  0.2030
 2003TIP3    H227501   5.518   1.488   2.564  0.0929 -1.2318 -2.9272
 2004TIP3   OH227502   0.574   4.674  17.275 -0.6531  0.0054 -0.6545
 2004TIP3    H127503   0.607   4.736  17.210  1.3398 -0.5979 -0.2284
 2004TIP3    H227504   0.542   4.600  17.223  0.6938 -0.3649 -0.9781
 2005TIP3   OH227505   1.887   1.155  15.338 -0.2768 -0.7736 -0.3428
 2005TIP3    H127506   1.915   1.215  15.269 -0.6639 -0.5271 -0.2829
 2005TIP3    H227507   1.849   1.081  15.292 -1.3847 -0.1952 -0.3781
 2006TIP3   OH227508   5.334   5.228  13.627 -0.1820 -0.3401  0.3427
 2006TIP3    H127509   5.415   5.183  13.606  0.5810  0.8057  0.8058
 2006TIP3    H227510   5.338   5.242  13.722 -1.2298 -0.8837  0.4779
 2007TIP3   OH227511   3.013   1.393   4.411 -0.0346 -0.3395 -0.4467
 2007TIP3    H127512   2.983   1.478   4.443  0.4833 -0.6682  0.9600
 2007TIP3    H227513   2.938   1.358   4.362 -0.1568  1.0252 -1.2513
 2008TIP3   OH227514   4.129   2.899   1.441  0.1859  0.8293 -0.2125
 2008TIP3    H127515   4.134   2.891   1.537  0.9289  0.7987 -0.2509
 2008TIP3    H227516   4.111   2.810   1.411  0.1462  0.8036 -0.1149
 2009TIP3   OH227517   1.357   3.322   2.733 -0.5303  0.0558  0.1687
 2009TIP3    H127518   1.382   3.230   2.746 -1.2004  0.0390  1.3837
 2009TIP3    H227519   1.286   3.337   2.795  0.4684  1.7674  0.9457
 2010TIP3   OH227520   6.565   2.226   2.657  1.0538 -0.0436  0.4297
 2010TIP3    H127521   6.551   2.133   2.674  0.6503 -0.3707 -1.5498
 2010TIP3    H227522   6.623   2.254   2.727  1.0459 -1.7474  1.1575
 2011TIP3   OH227523   1.069   2.334   2.197  0.0731 -0.0345 -0.7153
 2011TIP3    H127524   1.047   2.242   2.185  0.8602 -0.1114 -1.5138
 2011TIP3    H227525   0.984   2.376   2.214 -0.1983 -1.0252  0.4733
 2012TIP3   OH227526   3.157   4.345  15.243 -0.3135  0.0885  0.5361
 2012TIP3    H127527   3.084   4.394  15.206 -0.2892  0.1289  0.5418
 2012TIP3    H227528   3.120   4.302  15.320 -0.6856 -1.0288 -0.2544
 2013TIP3   OH227529   0.291   1.781   6.753 -0.0755  0.0520 -0.0448
 2013TIP3    H127530   0.357   1.769   6.821 -0.4932  0.2276  0.3958
 2013TIP3    H227531   0.337   1.763   6.671  1.1143  2.4521  0.0617
 2014TIP3   OH227532   1.579   1.188   5.128 -0.3618 -0.1155 -0.5389
 2014TIP3    H127533   1.613   1.250   5.064  1.8953  1.1977  1.8169
 2014TIP3    H227534   1.499   1.229   5.160 -0.2175  0.3865 -0.8122
 2015TIP3   OH227535   1.086   6.139   4.561 -0.0840  0.0284 -0.2813
 2015TIP3    H127536   1.124   6.218   4.521  0.7977  0.6117  1.6554
 2015TIP3    H227537   1.150   6.070   4.544 -0.7494 -0.2416 -1.7800
 2016TIP3   OH227538   0.705   3.604  15.594 -0.4431 -0.5350  0.8449
 2016TIP3    H127539   0.682   3.515  15.620  2.0260 -0.5259  3.2638
 2016TIP3    H227540   0.651   3.660  15.650 -1.8802 -0.4454 -0.5692
 2017TIP3   OH227541   4.980   2.455  12.090 -0.3347  0.6234  0.2103
 2017TIP3    H127542   5.061   2.405  12.100 -0.7471  0.0375  0.6749
 2017TIP3    H227543   4.931   2.438  12.170 -0.8979  1.0133 -0.0462
 2018TIP3   OH227544   5.012   6.278   0.500 -0.3507  0.6850  0.4330
 2018TIP3    H127545   4.960   6.329   0.437 -0.4672  0.8819  0.6860
 2018TIP3    H227546   5.059   6.344   0.550  0.2481  0.4979  0.1145
 2019TIP3   OH227547   1.834   1.604   3.261 -0.4780 -0.1206  0.0684
 2019TIP3    H127548   1.915   1.629   3.216 -0.8675 -0.6352 -0.9146
 2019TIP3    H227549   1.829   1.509   3.252 -0.3916 -0.2770  1.4874
 2020TIP3   OH227550   6.081   1.838  10.826  0.4903  0.5057 -0.0055
 2020TIP3    H127551   6.079   1.794  10.741 -0.4286 -1.2130  0.8755
 2020TIP3    H227552   5.997   1.884  10.831  0.5166  0.5542 -0.0222
 2021TIP3   OH227553   5.068   6.672  16.864 -0.6723  0.4906 -0.1520
 2021TIP3    H127554   5.091   6.592  16.911 -0.9012  0.8291  0.5572
 2021TIP3    H227555   5.149   6.701  16.823 -0.1583  0.8974  1.1276
 2022TIP3   OH227556   3.158   0.534   5.032  0.0810  0.2109 -0.1901
 2022TIP3    H127557   3.204   0.543   5.116  1.5303 -0.3706 -0.9021
 2022TIP3    H227558   3.098   0.608   5.029  1.4119  1.3318  0.5081
 2023TIP3   OH227559   4.514   2.764  16.790 -0.4062  0.1028 -0.4240
 2023TIP3    H127560   4.484   2.851  16.814  0.3285  0.5572 -1.1211
 2023TIP3    H227561   4.595   2.779  16.741 -0.9480 -0.8845 -1.6673
 2024TIP3   OH227562   2.598   4.439   1.205 -0.5717  0.2278 -0.1033
 2024TIP3    H127563   2.524   4.478   1.252 -0.5539 -0.3464  0.4129
 2024TIP3    H227564   2.625   4.366   1.260  0.6766  0.7032 -0.0672
 2025TIP3   OH227565   5.384   0.256   2.685  0.4083 -0.1120 -0.4363
 2025TIP3    H127566   5.328   0.196   2.636 -0.3629 -0.6223  1.0474
 2025TIP3    H227567   5.340   0.341   2.678 -0.4791 -0.4838  0.6139
 2026TIP3   OH227568   0.375   6.176  15.228 -0.0668  0.3671  0.4465
 2026TIP3    H127569   0.380   6.272  15.232 -1.1966  0.3883  1.9236
 2026TIP3    H227570   0.375   6.148  15.320  1.6553 -1.1438  0.0106
 2027TIP3   OH227571   1.599   3.420   2.336 -0.5739 -0.6855 -0.1174
 2027TIP3    H127572   1.584   3.332   2.303 -1.2553  0.0102 -1.7181
 2027TIP3    H227573   1.579   3.415   2.430  0.0198 -2.3584 -0.0657
 2028TIP3   OH227574   4.290   2.498  14.596 -0.3006 -0.1983 -0.1244
 2028TIP3    H127575   4.370   2.475  14.644  0.8972  0.4121 -1.7879
 2028TIP3    H227576   4.319   2.512  14.506 -2.3864 -0.5402 -0.8833
 2029TIP3   OH227577   6.666   0.765  12.056 -0.0225 -0.1623 -0.1022
 2029TIP3    H127578   6.656   0.768  12.151 -1.9511  0.0017 -0.2904
 2029TIP3    H227579   6.581   0.735  12.024  0.7147 -0.5324 -1.7598
 2030TIP3   OH227580   3.322   0.182  11.847  0.2638  0.3667 -0.2424
 2030TIP3    H127581   3.308   0.274  11.865  3.6375  0.3726  2.9904
 2030TIP3    H227582   3.269   0.136  11.912 -0.0079  0.0520 -0.6798
 2031TIP3   OH227583   5.566   1.006   5.975  0.2034  0.5983 -0.1473
 2031TIP3    H127584   5.595   0.976   5.889  0.3729  1.9732 -0.5819
 2031TIP3    H227585   5.634   0.976   6.035  0.2491 -0.0838 -0.5272
 2032TIP3   OH227586   1.613   1.149   5.786  0.2181 -0.1899 -0.2785
 2032TIP3    H127587   1.701   1.180   5.803  0.0470  0.1892 -0.0967
 2032TIP3    H227588   1.559   1.187   5.855  0.2060 -1.8154  0.6280
 2033TIP3   OH227589   6.084   6.774   2.840 -0.2388  0.1634 -0.3259
 2033TIP3    H127590   6.179   6.779   2.849 -0.1192 -0.0633 -1.4376
 2033TIP3    H227591   6.069   6.755   2.748 -1.4540  2.3700 -0.6141
 2034TIP3   OH227592   3.461   6.399   6.636 -0.8524  0.1446  0.1271
 2034TIP3    H127593   3.424   6.416   6.549  1.2582  1.2529 -0.5846
 2034TIP3    H227594   3.396   6.342   6.679 -3.1105  1.6177 -1.2446
 2035TIP3   OH227595   4.257   1.223   0.150 -0.2340 -0.2072  0.6993
 2035TIP3    H127596   4.350   1.233   0.127  0.2289 -2.0878  1.5972
 2035TIP3    H227597   4.215   1.198   0.067 -0.0303  1.1074  0.1914
 2036TIP3   OH227598   3.637   5.713  13.029  0.1422 -0.3218  0.2759
 2036TIP3    H127599   3.570   5.696  13.094 -0.5091 -0.3283 -0.3947
 2036TIP3    H227600   3.718   5.680  13.069 -0.4417 -1.3738  0.6003
 2037TIP3   OH227601   3.078   6.355  16.451 -0.3002 -0.1352  0.1897
 2037TIP3    H127602   3.047   6.445  16.439  0.1966 -0.0732 -0.6085
 2037TIP3    H227603   3.127   6.358  16.533 -0.4957  0.2686  0.2949
 2038TIP3   OH227604   2.236   1.092  15.490 -0.2883  0.0637 -0.0329
 2038TIP3    H127605   2.200   1.179  15.507  1.1868  1.0724 -1.8379
 2038TIP3    H227606   2.318   1.090  15.540 -0.5923 -0.5102  0.4498
 2039TIP3   OH227607   1.277   1.691  14.557  0.2382 -0.2367 -0.0116
 2039TIP3    H127608   1.344   1.758  14.543 -0.7824  0.6609 -0.7086
 2039TIP3    H227609   1.216   1.731  14.619 -1.2386  0.1213 -1.6586
 2040TIP3   OH227610   0.253   2.900   6.558 -0.0247 -0.2719  0.0182
 2040TIP3    H127611   0.276   2.992   6.544  0.4205 -0.1334  1.5529
 2040TIP3    H227612   0.200   2.900   6.638  2.6120 -1.6695  1.8676
 2041TIP3   OH227613   0.068   3.746   3.235 -0.1855  0.5203 -0.2810
 2041TIP3    H127614   0.090   3.694   3.313 -1.0220  1.3107  0.4931
 2041TIP3    H227615  -0.012   3.706   3.202 -0.7374  1.2162  0.2180
 2042TIP3   OH227616   4.165   2.401   2.364 -0.1128  0.2109  0.7145
 2042TIP3    H127617   4.229   2.352   2.416 -1.4690 -1.1738  1.1103
 2042TIP3    H227618   4.148   2.345   2.289  0.5997  1.4665 -0.4027
 2043TIP3   OH227619   5.348   0.170  13.803  0.8491  0.0144  0.4974
 2043TIP3    H127620   5.421   0.126  13.758  2.2630  2.5606  0.1656
 2043TIP3    H227621   5.356   0.262  13.776 -2.1611  0.4377  0.9401
 2044TIP3   OH227622   1.482   3.913   2.611 -0.4861 -0.0472 -0.0149
 2044TIP3    H127623   1.478   3.824   2.576  0.4105 -0.0409 -0.1654
 2044TIP3    H227624   1.430   3.965   2.550 -1.6359 -0.5988  0.4958
 2045TIP3   OH227625   4.438   6.263   3.117 -0.0096 -0.2103 -0.2118
 2045TIP3    H127626   4.471   6.227   3.198 -0.6738 -0.5112 -0.0714
 2045TIP3    H227627   4.506   6.244   3.052  1.1943  1.3468  0.5708
 2046TIP3   OH227628   1.206   2.967  12.257 -0.0653  0.3833 -0.1972
 2046TIP3    H127629   1.181   2.996  12.344 -0.0787 -1.0687  0.3047
 2046TIP3    H227630   1.299   2.990  12.250  0.0236  0.2008  0.3383
 2047TIP3   OH227631   6.792   3.545  16.873  0.0119 -0.4290 -0.6485
 2047TIP3    H127632   6.703   3.513  16.885 -0.0432 -0.2833 -0.6788
 2047TIP3    H227633   6.840   3.469  16.839 -0.2850 -0.2776 -1.3999
 2048TIP3   OH227634   0.900   2.265  12.695 -0.5982 -0.1216 -0.0122
 2048TIP3    H127635   0.828   2.291  12.753  1.2719  2.7694  1.1231
 2048TIP3    H227636   0.872   2.293  12.608 -0.4483  1.9565  0.5825
 2049TIP3   OH227637   2.902   0.575   1.093  0.8780  0.1622  0.1637
 2049TIP3    H127638   2.997   0.583   1.083  0.7822  0.2075 -0.7709
 2049TIP3    H227639   2.874   0.659   1.128  1.2684 -0.0978  1.1117
 2050TIP3   OH227640   4.890   6.103  14.856  0.0045 -0.1609  0.1414
 2050TIP3    H127641   4.933   6.143  14.932 -2.6539  0.3072  1.4658
 2050TIP3    H227642   4.802   6.140  14.857 -0.5163 -1.2496 -2.3679
 2051TIP3   OH227643   6.534   4.944  13.054 -0.1910 -0.4960 -0.1669
 2051TIP3    H127644   6.544   4.977  12.965  1.3777  1.1603  0.5889
 2051TIP3    H227645   6.617   4.899  13.072 -0.9212 -1.7830  0.0917
 2052TIP3   OH227646   1.119   3.669  13.398  0.0530  0.5159  0.2749
 2052TIP3    H127647   1.085   3.649  13.311  2.8208  1.5055 -1.0960
 2052TIP3    H227648   1.155   3.586  13.429  0.4212  0.4992 -0.1828
 2053TIP3   OH227649   0.205   5.189  16.876  0.8644 -0.8029 -0.0168
 2053TIP3    H127650   0.124   5.139  16.868  0.0010  0.4785  0.6813
 2053TIP3    H227651   0.271   5.123  16.900  0.3497 -2.0938 -1.9698
 2054TIP3   OH227652   4.500   6.387  14.524 -0.5193 -0.7431  0.4518
 2054TIP3    H127653   4.493   6.358  14.615 -2.6095 -0.6840  0.3349
 2054TIP3    H227654   4.410   6.395  14.495  0.1038  1.2954 -0.9925
 2055TIP3   OH227655   5.782   0.662   1.924 -0.6051 -0.7623  0.0364
 2055TIP3    H127656   5.776   0.687   2.016 -0.0462 -0.1420 -0.0924
 2055TIP3    H227657   5.876   0.663   1.905 -0.8556  1.4869 -1.2019
 2056TIP3   OH227658   0.162   2.238   3.167  0.0185  0.0925  0.0099
 2056TIP3    H127659   0.160   2.144   3.148  1.2290  0.1706 -0.5228
 2056TIP3    H227660   0.128   2.245   3.256  1.4918 -1.0090  0.6757
 2057TIP3   OH227661   0.122   4.659   4.273  0.1781 -0.0465  0.7308
 2057TIP3    H127662   0.039   4.705   4.284  0.1020 -0.2222  0.8994
 2057TIP3    H227663   0.105   4.597   4.201 -0.0836 -0.6417  1.2927
 2058TIP3   OH227664   2.858   6.571   3.440  0.1598  0.2412 -0.0722
 2058TIP3    H127665   2.924   6.577   3.370 -0.0318  1.9156 -0.1409
 2058TIP3    H227666   2.907   6.543   3.517  0.3444 -1.7738 -0.9120
 2059TIP3   OH227667   1.939   1.108   3.910  0.0115 -0.4617  0.3447
 2059TIP3    H127668   1.942   1.159   3.830  1.7817 -1.1255 -0.0322
 2059TIP3    H227669   1.998   1.035   3.895  4.1154  1.8777  3.9399
 2060TIP3   OH227670   0.137   4.475  16.224 -0.0241  0.3332 -0.6637
 2060TIP3    H127671   0.156   4.494  16.132  1.2203  0.9597 -0.2844
 2060TIP3    H227672   0.042   4.483  16.231 -0.1214  0.3642 -1.8705
 2061TIP3   OH227673   0.417   1.365  12.893 -0.2182  0.0080 -0.0859
 2061TIP3    H127674   0.476   1.302  12.934 -0.3096 -0.0533 -0.0499
 2061TIP3    H227675   0.460   1.388  12.811  1.4829  2.4341  1.4355
 2062TIP3   OH227676   2.907   1.555  16.022 -0.2137 -0.0637  0.6508
 2062TIP3    H127677   2.819   1.573  15.990 -0.2274  0.8942  1.1893
 2062TIP3    H227678   2.924   1.464  15.998 -0.5338  0.3831 -1.3042
 2063TIP3   OH227679   6.532   0.401  12.886 -0.8271  0.5107  0.1849
 2063TIP3    H127680   6.627   0.397  12.897 -0.7980  0.1670 -0.1599
 2063TIP3    H227681   6.497   0.351  12.960 -0.6899 -0.4576 -0.3809
 2064TIP3   OH227682   2.563   0.080  13.986  0.5053 -0.4967  0.1014
 2064TIP3    H127683   2.488   0.036  13.947 -1.0006  1.3392  0.8581
 2064TIP3    H227684   2.635   0.064  13.925 -1.2167  0.2131 -2.1708
 2065TIP3   OH227685   0.171   4.412  11.131 -0.2774  0.6364 -0.1196
 2065TIP3    H127686   0.237   4.465  11.175  0.0360 -1.5450  2.1700
 2065TIP3    H227687   0.221   4.341  11.090 -0.9691  0.2203 -0.2528
 2066TIP3   OH227688   6.510   2.765  17.145 -0.1712  0.5988 -0.0158
 2066TIP3    H127689   6.584   2.821  17.167  1.1347 -0.7214 -0.9028
 2066TIP3    H227690   6.470   2.743  17.229  0.0295  1.8673  0.4156
 2067TIP3   OH227691   4.981   5.155   0.303 -0.5863  0.1612  0.0902
 2067TIP3    H127692   4.930   5.075   0.296 -0.6844  0.2593 -0.3186
 2067TIP3    H227693   5.041   5.152   0.229  0.7918 -0.5046  1.2009
 2068TIP3   OH227694   6.569   5.506   1.817  0.3491 -0.1467  0.7418
 2068TIP3    H127695   6.578   5.520   1.912  2.9129 -1.3856  0.7211
 2068TIP3    H227696   6.511   5.430   1.810  2.2825 -1.7431  1.4463
 2069TIP3   OH227697   1.261   1.720   4.909  0.3751 -0.0430 -0.3799
 2069TIP3    H127698   1.317   1.649   4.877  1.1251  0.4704 -0.2340
 2069TIP3    H227699   1.320   1.775   4.961  0.0682  1.2966 -1.4013
 2070TIP3   OH227700   5.653   0.349  17.168 -0.5211 -0.6636  0.1794
 2070TIP3    H127701   5.644   0.414  17.097  0.7752 -1.5892 -0.8400
 2070TIP3    H227702   5.732   0.375  17.215 -1.3419 -0.0930  1.2728
 2071TIP3   OH227703   2.874   3.304  16.305 -0.0327  0.1136  0.2950
 2071TIP3    H127704   2.782   3.326  16.288 -0.6064 -1.7942  0.8115
 2071TIP3    H227705   2.898   3.246  16.233  0.8587  0.7809  0.0417
 2072TIP3   OH227706   5.641   4.053   1.278 -0.3271 -0.0063  0.3267
 2072TIP3    H127707   5.711   4.010   1.328  0.9881  1.4325 -0.2326
 2072TIP3    H227708   5.686   4.095   1.205 -1.6702  1.6827  0.4384
 2073TIP3   OH227709   5.747   4.780  16.435 -0.2087 -0.3177 -0.3833
 2073TIP3    H127710   5.711   4.838  16.502  0.4726 -0.2363 -0.0737
 2073TIP3    H227711   5.839   4.806  16.429 -0.7154  1.0607 -2.8203
 2074TIP3   OH227712   3.391   2.339   4.653 -0.5304 -0.1117 -0.5300
 2074TIP3    H127713   3.392   2.423   4.698 -0.0337 -0.6413  0.4567
 2074TIP3    H227714   3.453   2.350   4.580  1.0376 -0.2605  0.7679
 2075TIP3   OH227715   2.620   2.407   5.220 -0.0434  1.3354  0.5045
 2075TIP3    H127716   2.649   2.438   5.306 -1.7702  1.4378  1.0545
 2075TIP3    H227717   2.629   2.312   5.225 -0.9962  1.2704  1.1257
 2076TIP3   OH227718   2.081   1.197  13.211  0.4070  0.1702  0.1073
 2076TIP3    H127719   2.127   1.258  13.154 -1.6135 -0.3028 -2.1348
 2076TIP3    H227720   1.995   1.236  13.224  0.7335  0.1129  2.6216
 2077TIP3   OH227721   6.416   2.661   6.744  0.5545  0.4494 -0.4223
 2077TIP3    H127722   6.427   2.575   6.784  1.3208  1.3014  1.2333
 2077TIP3    H227723   6.424   2.645   6.650 -2.2253 -1.7396 -0.3604
 2078TIP3   OH227724   3.963   2.604  11.886 -0.2444  0.2145 -0.0849
 2078TIP3    H127725   4.040   2.624  11.939  0.3892  0.8043 -1.1872
 2078TIP3    H227726   3.943   2.512  11.906  1.9389 -0.5568 -1.1881
 2079TIP3   OH227727   5.883   5.599  11.498  0.0202  0.3983 -0.0701
 2079TIP3    H127728   5.892   5.684  11.542 -1.0653  0.4217  0.1316
 2079TIP3    H227729   5.853   5.540  11.567 -0.5695  0.1718 -0.5143
 2080TIP3   OH227730   3.312   2.397   2.516 -0.3609 -0.1705 -0.4465
 2080TIP3    H127731   3.293   2.413   2.424 -1.4908  0.0145 -0.1940
 2080TIP3    H227732   3.237   2.435   2.563 -0.2963 -1.1504  0.4803
 2081TIP3   OH227733   1.289   2.984  11.397 -0.0560  0.0843  0.1004
 2081TIP3    H127734   1.194   2.986  11.411 -0.4266 -0.2757 -2.2331
 2081TIP3    H227735   1.304   3.042  11.323  1.5993  0.2957  0.5657
 2082TIP3   OH227736   3.619   2.414   5.881 -0.1182 -0.6924  0.5613
 2082TIP3    H127737   3.608   2.319   5.873  2.1725 -0.8868 -1.0338
 2082TIP3    H227738   3.652   2.441   5.795 -1.2927  1.6554  0.8163
 2083TIP3   OH227739   2.292   0.936   4.997  0.5297 -0.7937  0.4001
 2083TIP3    H127740   2.303   0.957   5.090 -1.2614  0.4622  0.3654
 2083TIP3    H227741   2.304   0.841   4.992 -0.1487 -0.9843  2.0608
 2084TIP3   OH227742   5.680   1.288   2.834  0.2201  0.3698 -0.4305
 2084TIP3    H127743   5.701   1.311   2.925  2.9638  0.8943 -1.1544
 2084TIP3    H227744   5.743   1.219   2.812 -0.6855 -0.0252 -1.8340
 2085TIP3   OH227745   5.872   4.565   2.438  0.2776  0.5219 -0.1539
 2085TIP3    H127746   5.785   4.596   2.462  1.1191  2.0320  1.0328
 2085TIP3    H227747   5.914   4.544   2.522  1.0121 -0.3226 -0.7240
 2086TIP3   OH227748   6.804   5.550  12.912  0.7034 -0.0912 -0.2448
 2086TIP3    H127749   6.887   5.502  12.908 -0.0905 -1.6639  1.6671
 2086TIP3    H227750   6.748   5.504  12.849  0.3354 -0.9356  0.6862
 2087TIP3   OH227751   2.290   1.282  14.446 -0.1939  0.4543 -0.4029
 2087TIP3    H127752   2.359   1.250  14.504  1.2362  0.2045 -2.1983
 2087TIP3    H227753   2.228   1.210  14.441  0.0185  0.2194  0.2663
 2088TIP3   OH227754   1.626   0.606   1.334 -0.8730  0.8735 -0.2738
 2088TIP3    H127755   1.636   0.699   1.311 -0.3470  1.1054  0.8395
 2088TIP3    H227756   1.546   0.579   1.290 -0.7557  1.7256 -1.0218
 2089TIP3   OH227757   0.132   1.914  13.224  0.1757  0.4436  0.1322
 2089TIP3    H127758   0.170   2.000  13.242  1.6495 -0.5076  1.6120
 2089TIP3    H227759   0.071   1.899  13.296  0.2234  0.0617  0.0953
 2090TIP3   OH227760   4.360   1.372   0.392 -0.0419  0.7026 -0.5176
 2090TIP3    H127761   4.322   1.400   0.475  0.0719  2.5254 -1.0616
 2090TIP3    H227762   4.288   1.330   0.346  0.2004 -1.4867  0.9930
 2091TIP3   OH227763   1.406   6.645  16.592  0.2646 -0.2670  0.3833
 2091TIP3    H127764   1.325   6.692  16.570  0.7874  0.5904  0.2604
 2091TIP3    H227765   1.415   6.655  16.687  0.5383  0.1342  0.3117
 2092TIP3   OH227766   0.183   1.521   3.080  0.0463  0.0877 -0.0419
 2092TIP3    H127767   0.182   1.530   3.175 -0.4876 -0.2175 -0.0124
 2092TIP3    H227768   0.249   1.455   3.063 -0.0376 -0.0432  0.1368
 2093TIP3   OH227769   0.684   2.684  16.544 -0.5526 -0.1152 -0.6577
 2093TIP3    H127770   0.779   2.692  16.556 -0.7226 -0.5296  1.0417
 2093TIP3    H227771   0.667   2.725  16.459  0.9385  1.4477 -0.2315
 2094TIP3   OH227772   5.101   0.673  13.615  0.2722  0.2379  0.6471
 2094TIP3    H127773   5.153   0.598  13.642  0.9605  0.6502  0.4703
 2094TIP3    H227774   5.156   0.749  13.635  0.2071  0.6140 -0.5956
 2095TIP3   OH227775   0.707   0.625   1.992 -0.4927 -0.0414 -0.2215
 2095TIP3    H127776   0.653   0.590   2.063  0.2453  0.3404  0.5228
 2095TIP3    H227777   0.793   0.641   2.031 -0.1555  0.4319 -1.1265
 2096TIP3   OH227778   5.780   2.961  12.548 -0.2837 -0.6533 -0.3317
 2096TIP3    H127779   5.792   2.952  12.454 -0.7777  0.9071 -0.5661
 2096TIP3    H227780   5.850   3.021  12.576 -2.5892  2.1985 -0.4206
 2097TIP3   OH227781   6.374   1.552  14.543  0.0438  0.3340  0.6275
 2097TIP3    H127782   6.441   1.587  14.485 -1.1866 -0.2190 -1.1866
 2097TIP3    H227783   6.388   1.457  14.541 -1.6247  0.0783 -0.9070
 2098TIP3   OH227784   5.651   4.003   5.593 -0.4931  0.0884 -0.3273
 2098TIP3    H127785   5.709   3.980   5.520  0.0389 -1.3394  0.5169
 2098TIP3    H227786   5.587   4.063   5.555 -0.8583 -1.4442 -2.2345
 2099TIP3   OH227787   3.158   1.617  12.222  0.0662 -0.0798  0.5124
 2099TIP3    H127788   3.140   1.688  12.284  1.0018 -0.3717  1.1387
 2099TIP3    H227789   3.238   1.576  12.256 -1.2846 -2.3962  1.0109
 2100TIP3   OH227790   1.524   3.997   4.386  0.1824 -0.3496 -0.3024
 2100TIP3    H127791   1.451   3.959   4.337 -1.2217 -1.8950  2.8605
 2100TIP3    H227792   1.549   3.929   4.448  0.6539  2.1677  2.3821
 2101TIP3   OH227793   2.087   5.848  12.497  0.5085 -0.0282  0.0344
 2101TIP3    H127794   2.061   5.796  12.572  2.3510 -0.0757  0.6445
 2101TIP3    H227795   2.152   5.909  12.531  2.3973 -0.9764 -1.7935
 2102TIP3   OH227796   4.085   2.894   4.292 -0.2681  0.4917 -0.2159
 2102TIP3    H127797   3.997   2.910   4.257 -0.7638  0.8335  1.1612
 2102TIP3    H227798   4.070   2.848   4.374  0.8802 -0.0721 -0.3070
 2103TIP3   OH227799   0.120   4.808  16.604 -0.0548  0.2057  0.6503
 2103TIP3    H127800   0.135   4.754  16.681 -1.8903 -1.0741  0.1560
 2103TIP3    H227801   0.062   4.755  16.549  1.7592  0.7709 -1.9332
 2104TIP3   OH227802   2.828   0.171  10.931  0.3477 -0.1674 -0.0811
 2104TIP3    H127803   2.775   0.094  10.954 -0.2450 -0.1148 -1.2572
 2104TIP3    H227804   2.918   0.142  10.945  0.1484 -1.1865 -0.8448
 2105TIP3   OH227805   5.138   4.675   3.462 -0.2683  0.3530  0.6515
 2105TIP3    H127806   5.166   4.708   3.376 -0.7252 -2.4130 -0.6108
 2105TIP3    H227807   5.189   4.726   3.525  1.5667  1.0241 -1.3163
 2106TIP3   OH227808   5.094   1.478   0.734 -0.6675  0.2634  0.4641
 2106TIP3    H127809   5.121   1.389   0.756 -2.9833 -0.4929  0.4144
 2106TIP3    H227810   5.088   1.523   0.819 -1.0658 -0.1103  0.6364
 2107TIP3   OH227811   0.625   2.167   5.295  0.7881  0.2338 -0.1510
 2107TIP3    H127812   0.590   2.247   5.255 -0.7032 -1.3757 -2.1889
 2107TIP3    H227813   0.586   2.096   5.244  0.9079 -1.8513  2.5389
 2108TIP3   OH227814   0.490   2.880  11.351 -0.2228 -0.4797 -0.0218
 2108TIP3    H127815   0.439   2.957  11.329 -1.0576 -1.5899 -2.1224
 2108TIP3    H227816   0.548   2.866  11.276  2.2058 -0.0825  1.7040
 2109TIP3   OH227817   5.982   3.263   5.006 -0.3274  0.1007 -0.4630
 2109TIP3    H127818   6.024   3.349   5.010 -0.1575 -0.0384  1.4197
 2109TIP3    H227819   5.899   3.275   5.053 -1.1741 -0.3150 -1.8062
 2110TIP3   OH227820   1.301   6.627  13.234 -0.6169  0.1254 -0.2783
 2110TIP3    H127821   1.351   6.558  13.278 -0.7281  1.3084  1.7997
 2110TIP3    H227822   1.354   6.706  13.245 -1.4443  0.7772 -0.8338
 2111TIP3   OH227823   4.759   6.381   5.700 -0.0215 -0.2488  0.3034
 2111TIP3    H127824   4.770   6.288   5.680  0.9177 -0.3488  1.2598
 2111TIP3    H227825   4.828   6.425   5.652  0.0134 -0.1222  0.4691
 2112TIP3   OH227826   0.596   2.290  13.917 -0.1054  0.1607 -0.0526
 2112TIP3    H127827   0.670   2.292  13.857 -1.1964  0.4426 -1.4185
 2112TIP3    H227828   0.544   2.367  13.894  0.5530  1.5026  2.7067
 2113TIP3   OH227829   2.621   2.760   4.855  0.0738  0.2401 -0.3874
 2113TIP3    H127830   2.570   2.748   4.776 -0.8588  2.8170 -0.2332
 2113TIP3    H227831   2.574   2.711   4.922  0.1679 -0.8929 -1.1404
 2114TIP3   OH227832   2.886   6.159  13.002 -0.1171  0.7493 -0.2479
 2114TIP3    H127833   2.878   6.151  12.907  2.1332  1.1837 -0.5029
 2114TIP3    H227834   2.804   6.123  13.036 -1.0108  0.7369 -2.3535
 2115TIP3   OH227835   3.464   4.872   2.634 -0.2295 -0.2262  0.1952
 2115TIP3    H127836   3.383   4.909   2.668 -0.6066 -2.9126  2.5322
 2115TIP3    H227837   3.530   4.895   2.700  0.2005 -0.7565 -0.0426
 2116TIP3   OH227838   0.540   5.306   3.421 -0.0694 -0.6722  0.8955
 2116TIP3    H127839   0.636   5.310   3.422 -0.0971  0.7933 -0.4125
 2116TIP3    H227840   0.517   5.305   3.329 -1.2854 -2.6307  1.1909
 2117TIP3   OH227841   6.353   3.421  15.957 -0.5534 -0.4829 -0.3210
 2117TIP3    H127842   6.329   3.369  15.881  1.5218 -1.0244 -0.6568
 2117TIP3    H227843   6.421   3.369  16.001  1.8734  2.0398 -0.8928
 2118TIP3   OH227844   6.236   6.762  16.725  0.2986 -0.2635 -0.0688
 2118TIP3    H127845   6.265   6.777  16.814  0.6379  0.1297 -0.2459
 2118TIP3    H227846   6.308   6.715  16.683  0.2893 -0.1312 -0.2358
 2119TIP3   OH227847   3.670   3.627  11.938  0.2014  0.0582 -0.0837
 2119TIP3    H127848   3.628   3.630  12.023 -0.1126 -2.7693 -0.0956
 2119TIP3    H227849   3.600   3.647  11.875 -0.1203 -0.2400  0.1803
 2120TIP3   OH227850   2.120   4.183  14.426  0.4201  0.1070 -0.1671
 2120TIP3    H127851   2.096   4.221  14.342  2.8575 -0.4586 -1.1585
 2120TIP3    H227852   2.183   4.244  14.464 -0.3218  0.1405  1.0623
 2121TIP3   OH227853   5.594   0.068  15.214  0.2962 -0.0467 -0.3823
 2121TIP3    H127854   5.519   0.121  15.186  0.1842 -0.4679 -0.8995
 2121TIP3    H227855   5.562  -0.022  15.208  0.2910 -0.1459  1.0567
 2122TIP3   OH227856   6.664   6.639  17.141  0.1463  0.5994  0.2573
 2122TIP3    H127857   6.658   6.602  17.053 -2.1652  2.1369 -0.2742
 2122TIP3    H227858   6.674   6.563  17.198 -1.9484 -0.7120 -1.0412
 2123TIP3   OH227859   5.854   1.734  17.205 -0.1526  0.4200 -0.0060
 2123TIP3    H127860   5.815   1.713  17.289  0.5294 -0.0063  0.2089
 2123TIP3    H227861   5.780   1.749  17.147 -0.6721 -2.3526 -0.1251
 2124TIP3   OH227862   5.070   5.777   1.638  0.0984  0.0160  0.1816
 2124TIP3    H127863   5.129   5.703   1.648 -0.6864 -0.7362 -0.7528
 2124TIP3    H227864   5.058   5.810   1.727 -0.5188 -1.7366  0.7690
 2125TIP3   OH227865   5.807   4.121  13.265  0.1563 -0.4577  0.1019
 2125TIP3    H127866   5.861   4.114  13.187  0.9155 -1.4671  0.7022
 2125TIP3    H227867   5.804   4.032  13.300 -1.9075 -0.4362  0.0778
 2126TIP3   OH227868   2.923   0.581   5.644  0.3408  0.0426 -0.6474
 2126TIP3    H127869   2.995   0.560   5.704  1.5778  1.0317 -1.7610
 2126TIP3    H227870   2.942   0.670   5.614 -1.9746  0.7490 -0.0744
 2127TIP3   OH227871   0.300   6.368  13.177 -0.2710 -0.1012  0.1528
 2127TIP3    H127872   0.340   6.352  13.263  0.5895  0.1837 -0.1847
 2127TIP3    H227873   0.231   6.302  13.170  0.4845 -0.9378  0.5320
 2128TIP3   OH227874   4.404   6.345  14.890 -0.0756  0.6032 -0.2062
 2128TIP3    H127875   4.311   6.334  14.874 -0.7423  2.8336  2.0131
 2128TIP3    H227876   4.424   6.434  14.861  1.2297  0.3668 -0.0786
 2129TIP3   OH227877   2.329   4.517   3.122 -0.6804  0.2227 -0.2107
 2129TIP3    H127878   2.422   4.500   3.141 -1.3092 -2.5692  0.6002
 2129TIP3    H227879   2.293   4.549   3.205 -0.6009  0.5373 -0.2993
 2130TIP3   OH227880   0.800   4.526   2.442 -0.2275 -0.1758 -0.0243
 2130TIP3    H127881   0.852   4.603   2.467  1.4200 -1.6047  1.0003
 2130TIP3    H227882   0.748   4.506   2.520  0.2538 -0.8443  0.1245
 2131TIP3   OH227883   4.533   2.451   0.259 -0.1026  0.5411  0.0126
 2131TIP3    H127884   4.558   2.488   0.343 -2.1174 -1.8529  1.7464
 2131TIP3    H227885   4.438   2.437   0.265  0.3742 -4.0799 -0.7273
 2132TIP3   OH227886   6.407   1.700  11.353  0.5404 -0.5507 -0.4516
 2132TIP3    H127887   6.338   1.728  11.293 -1.6095 -2.7515  0.9425
 2132TIP3    H227888   6.390   1.747  11.434  0.0809 -1.7916  0.1921
 2133TIP3   OH227889   0.700   6.348   1.761  0.2243  0.0875  0.0864
 2133TIP3    H127890   0.688   6.400   1.681 -0.0251  0.5057  0.3942
 2133TIP3    H227891   0.645   6.391   1.826 -0.9328 -1.3018  0.0231
 2134TIP3   OH227892   3.842   6.050   0.661 -0.1701 -0.2558 -0.2809
 2134TIP3    H127893   3.818   6.141   0.680  3.5178  0.6124  0.6534
 2134TIP3    H227894   3.882   6.054   0.574  1.5426 -0.6584  0.4710
 2135TIP3   OH227895   2.540   6.042  15.996  0.1063  0.1724  0.1750
 2135TIP3    H127896   2.624   6.019  16.036  0.8163  2.7758  0.2321
 2135TIP3    H227897   2.526   5.974  15.930  1.7012 -0.9178  0.9099
 2136TIP3   OH227898   0.946   5.580  13.730  0.0561 -0.1761  0.1377
 2136TIP3    H127899   0.904   5.549  13.809 -1.3284 -0.1861 -0.5978
 2136TIP3    H227900   0.932   5.675  13.730 -2.1619 -0.4625 -1.3503
 2137TIP3   OH227901   6.390   1.011  13.545  0.4126  0.3076  0.2463
 2137TIP3    H127902   6.484   1.003  13.529  0.6189  1.9872  0.5471
 2137TIP3    H227903   6.383   1.052  13.631 -0.5385  2.1229 -0.6520
 2138TIP3   OH227904   3.210   6.344  13.032 -0.1331 -0.4105  0.6595
 2138TIP3    H127905   3.268   6.277  12.995  1.3174  0.4554  1.2901
 2138TIP3    H227906   3.168   6.384  12.955  0.6147 -0.6094  0.1342
 2139TIP3   OH227907   3.178   0.895   1.817 -0.5424 -0.5616  0.2890
 2139TIP3    H127908   3.195   0.801   1.820 -0.5309 -0.6038 -0.8627
 2139TIP3    H227909   3.258   0.935   1.851 -0.0329 -0.9317 -0.4458
 2140TIP3   OH227910   2.898   0.069   1.903 -0.3777 -0.5368  0.3196
 2140TIP3    H127911   2.946   0.026   1.974 -0.2203  0.2133  0.6668
 2140TIP3    H227912   2.917   0.162   1.913 -0.1279 -0.4440 -0.8768
 2141TIP3   OH227913   4.995   2.544  15.024 -0.1097 -0.4915 -0.1245
 2141TIP3    H127914   4.906   2.578  15.030 -0.0619 -0.8519  3.2109
 2141TIP3    H227915   4.986   2.450  15.038  0.7749 -0.5373  0.1727
 2142TIP3   OH227916   5.717   2.106  16.224  0.0611  0.7018  0.3860
 2142TIP3    H127917   5.689   2.187  16.267 -0.4301  0.7579 -0.0400
 2142TIP3    H227918   5.773   2.063  16.289 -0.0874  1.1372  0.8060
 2143TIP3   OH227919   2.892   2.236  12.565 -0.3673 -0.4211  0.0529
 2143TIP3    H127920   2.935   2.275  12.641 -0.9804 -0.6438  0.5096
 2143TIP3    H227921   2.917   2.293  12.492 -2.6463  1.8193  0.9924
 2144TIP3   OH227922   0.678   6.352  15.875  0.9022  0.7697 -0.3214
 2144TIP3    H127923   0.605   6.330  15.816 -0.0101 -0.4328  1.2358
 2144TIP3    H227924   0.687   6.447  15.866 -0.8485  0.9444 -0.5534
 2145TIP3   OH227925   0.801   0.173  16.953  0.1223  0.0217 -0.5835
 2145TIP3    H127926   0.711   0.204  16.961 -0.6068 -1.6740 -1.9390
 2145TIP3    H227927   0.840   0.230  16.888  0.4908  1.6937  1.0477
 2146TIP3   OH227928   1.780   3.426   0.318  0.0266  0.6337  0.0603
 2146TIP3    H127929   1.861   3.384   0.290 -0.5320 -1.3918  1.4043
 2146TIP3    H227930   1.726   3.429   0.239  1.1812  1.4906 -0.7110
 2147TIP3   OH227931   6.226   2.461   2.999  0.6333 -0.5591  0.0233
 2147TIP3    H127932   6.139   2.461   3.039  0.4676 -0.0071 -0.3337
 2147TIP3    H227933   6.266   2.543   3.027  1.4685 -1.3275  1.1013
 2148TIP3   OH227934   1.491   4.074  14.092 -0.5176 -0.2311  0.4628
 2148TIP3    H127935   1.446   4.060  14.009 -0.6010  0.8958  0.3103
 2148TIP3    H227936   1.426   4.116  14.148 -0.0319  0.3098  0.6288
 2149TIP3   OH227937   1.505   5.924   4.811  1.1384 -0.2680 -0.8247
 2149TIP3    H127938   1.468   5.843   4.775  0.2800  0.7081 -2.1718
 2149TIP3    H227939   1.590   5.932   4.768  0.8267  0.0276 -1.3872
 2150TIP3   OH227940   1.663   6.790  15.733 -0.4320 -0.1984 -0.2187
 2150TIP3    H127941   1.612   6.866  15.762 -1.2329 -0.8369  0.0874
 2150TIP3    H227942   1.744   6.794  15.784 -1.0051 -0.2342  0.7233
 2151TIP3   OH227943   1.664   1.778   0.678  0.3454 -0.0321  0.2770
 2151TIP3    H127944   1.695   1.868   0.673  0.5499 -0.1289 -0.2860
 2151TIP3    H227945   1.731   1.727   0.631  0.9455 -0.6611  1.7663
 2152TIP3   OH227946   2.080   5.382  11.720 -0.5789  0.0169 -0.1774
 2152TIP3    H127947   1.998   5.399  11.672 -0.1190 -0.5869 -1.1977
 2152TIP3    H227948   2.083   5.450  11.787 -2.4344 -0.5454  0.5426
 2153TIP3   OH227949   5.682   1.977  11.549 -0.3603  0.3162 -0.3351
 2153TIP3    H127950   5.626   1.961  11.473  1.9657 -4.1409 -1.2891
 2153TIP3    H227951   5.621   1.980  11.623 -2.2805  0.2594 -1.8740
 2154TIP3   OH227952   0.205   4.984   2.716  0.3340  0.5852  1.0631
 2154TIP3    H127953   0.294   5.019   2.720  0.8045 -0.5394  0.6113
 2154TIP3    H227954   0.181   4.990   2.623  0.0425  0.6436  1.1418
 2155TIP3   OH227955   3.847   0.302   4.365 -0.3214  0.4585  0.3153
 2155TIP3    H127956   3.784   0.252   4.418 -2.0892  2.7983  0.4816
 2155TIP3    H227957   3.841   0.392   4.398  0.5101  1.4251 -2.0797
 2156TIP3   OH227958   0.063   1.788   1.068  0.1024 -0.2277  0.0723
 2156TIP3    H127959   0.072   1.711   1.012 -0.1580  0.5860 -1.1017
 2156TIP3    H227960   0.054   1.861   1.008  3.1919  1.1214  1.1229
 2157TIP3   OH227961   3.062   2.013  12.578 -0.1741 -0.4885  0.2719
 2157TIP3    H127962   3.134   2.077  12.571  0.2188 -0.9468  0.0712
 2157TIP3    H227963   2.983   2.067  12.585  0.0587  0.0350 -0.8745
 2158TIP3   OH227964   4.626   6.679   1.903 -0.2852 -0.0694 -0.6578
 2158TIP3    H127965   4.630   6.689   1.808 -1.7890  0.3144 -0.6912
 2158TIP3    H227966   4.705   6.629   1.925 -0.1446 -0.5402 -2.1545
 2159TIP3   OH227967   3.097   6.472  15.286 -0.5534  0.2753  0.5546
 2159TIP3    H127968   3.002   6.483  15.288 -0.3666  2.3633 -0.7264
 2159TIP3    H227969   3.120   6.478  15.193  0.8200 -0.3557  0.8372
 2160TIP3   OH227970   1.406   1.351  15.412  0.0574  0.3068  0.6037
 2160TIP3    H127971   1.365   1.265  15.407 -0.9485  0.6441  2.4053
 2160TIP3    H227972   1.493   1.339  15.374 -0.3230 -1.3296  0.2145
 2161TIP3   OH227973   0.241   3.863  12.212  0.2149  0.3999 -1.0755
 2161TIP3    H127974   0.317   3.820  12.250  1.0202  1.0204 -1.9537
 2161TIP3    H227975   0.174   3.858  12.280  1.5214  1.2192  0.3049
 2162TIP3   OH227976   0.254   5.413   1.173  0.2710 -0.0232 -0.4573
 2162TIP3    H127977   0.179   5.457   1.213  1.5261  0.1515  1.7543
 2162TIP3    H227978   0.265   5.457   1.088 -2.6092 -0.6195 -1.1798
 2163TIP3   OH227979   4.986   5.505  16.775  0.5370  0.4572  0.0614
 2163TIP3    H127980   4.937   5.557  16.838 -1.1916 -0.4861 -0.4719
 2163TIP3    H227981   4.924   5.488  16.704  1.3328 -1.5192 -0.1997
 2164TIP3   OH227982   3.170   6.726   3.033  0.1139 -0.5625 -0.1223
 2164TIP3    H127983   3.080   6.711   3.004  0.0006  0.0225 -0.0735
 2164TIP3    H227984   3.223   6.703   2.957 -0.1879  1.0770 -0.8367
 2165TIP3   OH227985   4.544   5.947  11.719 -0.9278  0.2059  0.5141
 2165TIP3    H127986   4.595   6.027  11.726 -0.9216  0.1421  1.3297
 2165TIP3    H227987   4.473   5.958  11.782  0.7203 -1.6098  2.8008
 2166TIP3   OH227988   1.473   4.764  15.281  0.6396 -0.1249  0.6096
 2166TIP3    H127989   1.524   4.844  15.266 -1.5129  1.4223  1.3511
 2166TIP3    H227990   1.475   4.719  15.196 -1.0453  2.4583 -0.8730
 2167TIP3   OH227991   1.582   2.446  10.605 -0.3728  0.3902 -0.5455
 2167TIP3    H127992   1.640   2.499  10.660  0.1646 -1.8223  1.0761
 2167TIP3    H227993   1.617   2.358  10.611 -2.1151 -0.4328 -2.0471
 2168TIP3   OH227994   4.636   2.445  16.953 -0.1527  0.1212 -0.4593
 2168TIP3    H127995   4.569   2.496  16.999 -0.3323 -0.7532  0.2564
 2168TIP3    H227996   4.696   2.511  16.919 -0.6864  0.8502 -0.0247
 2169TIP3   OH227997   3.827   1.895  11.750 -0.1730  0.4197 -0.0658
 2169TIP3    H127998   3.873   1.818  11.716 -0.7258  0.5184 -1.0668
 2169TIP3    H227999   3.739   1.864  11.771 -0.5744  0.8853 -1.0079
 2170TIP3   OH228000   3.167   5.078  15.509 -0.2483 -0.1434  0.3909
 2170TIP3    H128001   3.097   5.061  15.447 -0.7214 -0.2662  0.9514
 2170TIP3    H228002   3.245   5.091  15.455 -0.8610  0.7914 -0.2694
 2171TIP3   OH228003   4.511   1.680  11.522  0.2336  0.3116  0.0731
 2171TIP3    H128004   4.446   1.723  11.578  1.6324  1.0644  1.1613
 2171TIP3    H228005   4.566   1.751  11.490  0.0646 -0.2288 -1.4794
 2172TIP3   OH228006   5.274   5.805   1.116  0.1988 -0.2036 -0.8149
 2172TIP3    H128007   5.195   5.841   1.076  0.0979 -1.3607 -1.6654
 2172TIP3    H228008   5.310   5.746   1.050  1.2369 -0.4479 -0.0487
 2173TIP3   OH228009   6.779   1.277  13.773  0.3044 -0.0788 -0.0953
 2173TIP3    H128010   6.851   1.339  13.771 -1.3012  1.8115 -0.6947
 2173TIP3    H228011   6.785   1.229  13.690  0.5065  0.4808 -0.3993
 2174TIP3   OH228012   6.052   6.665   4.028  0.7498  0.2052 -0.6187
 2174TIP3    H128013   6.068   6.756   4.051  1.9847  0.2289 -1.5099
 2174TIP3    H228014   6.098   6.653   3.945 -2.8364 -0.0988 -2.6718
 2175TIP3   OH228015   1.700   3.895  14.169  0.2652 -0.3786 -0.4441
 2175TIP3    H128016   1.666   3.807  14.151  0.0917 -0.4348  0.1192
 2175TIP3    H228017   1.625   3.953  14.154  0.6473 -0.2185 -1.7717
 2176TIP3   OH228018   6.447   1.888  12.710 -0.1291 -0.0346 -0.0479
 2176TIP3    H128019   6.446   1.932  12.625  0.1365 -0.2041 -0.1422
 2176TIP3    H228020   6.534   1.848  12.714 -0.5047 -0.8546 -0.1197
 2177TIP3   OH228021   4.435   4.519   1.312  0.1558  0.9039  0.2567
 2177TIP3    H128022   4.406   4.575   1.383 -1.7244  1.6115 -1.0249
 2177TIP3    H228023   4.506   4.568   1.270 -0.6596  1.7833 -0.1075
 2178TIP3   OH228024   6.746   6.256   0.694  0.0605 -0.0865  0.1020
 2178TIP3    H128025   6.654   6.238   0.714 -0.3575  0.9567 -0.8614
 2178TIP3    H228026   6.767   6.196   0.622 -0.2185  0.5430 -0.5034
 2179TIP3   OH228027   2.768   0.247   3.730  0.1894 -1.0697 -0.9729
 2179TIP3    H128028   2.792   0.327   3.777 -1.6168 -0.5528 -0.9042
 2179TIP3    H228029   2.817   0.178   3.774  0.8689 -0.1610 -0.2840
 2180TIP3   OH228030   2.379   4.246   3.456 -0.2651  0.7296  0.3315
 2180TIP3    H128031   2.292   4.273   3.487  0.7341  2.6046  1.5731
 2180TIP3    H228032   2.415   4.194   3.528 -0.2020  0.2510 -0.0386
 2181TIP3   OH228033   5.003   0.431  15.019 -0.3727 -0.1909 -0.0288
 2181TIP3    H128034   5.006   0.483  14.938 -0.6056  0.9949  0.7039
 2181TIP3    H228035   5.042   0.489  15.085 -0.7616 -0.9116  0.8323
 2182TIP3   OH228036   1.376   4.289   0.809  0.1453  0.4456 -0.4501
 2182TIP3    H128037   1.334   4.347   0.745 -1.6495  1.8934  1.9107
 2182TIP3    H228038   1.470   4.301   0.794 -0.2271  1.6923 -1.9942
 2183TIP3   OH228039   3.592   4.484   4.906 -0.2908  0.5711 -0.3940
 2183TIP3    H128040   3.578   4.567   4.952 -2.3577  0.7445 -1.2380
 2183TIP3    H228041   3.528   4.424   4.945  2.4022 -1.1724  1.4448
 2184TIP3   OH228042   6.150   5.578   4.602 -1.0268 -0.4152 -0.5331
 2184TIP3    H128043   6.131   5.619   4.517 -0.6511  0.3862 -0.2374
 2184TIP3    H228044   6.245   5.572   4.605 -1.0404 -0.4231 -0.1587
 2185TIP3   OH228045   1.655   5.219   0.636  0.4922 -0.6923  0.1972
 2185TIP3    H128046   1.633   5.129   0.658 -0.8265 -0.4670 -0.2160
 2185TIP3    H228047   1.739   5.234   0.680 -0.2882 -1.4618  1.9895
 2186TIP3   OH228048   4.003   5.495  12.101 -0.4913 -0.0916  0.2619
 2186TIP3    H128049   4.033   5.404  12.109  0.0528  0.1618  1.1082
 2186TIP3    H228050   3.983   5.522  12.190  2.2561  1.6104  0.4241
 2187TIP3   OH228051   5.147   6.442  16.269  0.2226 -0.4133  0.3977
 2187TIP3    H128052   5.224   6.416  16.320 -0.8057 -0.1217  2.1215
 2187TIP3    H228053   5.145   6.538  16.276 -0.7405 -0.4737  1.0085
 2188TIP3   OH228054   1.013   0.909   6.450  0.4325  0.0478  0.5529
 2188TIP3    H128055   1.023   0.817   6.423  0.9576 -0.0035  0.9153
 2188TIP3    H228056   0.919   0.919   6.465  0.3767 -0.4425  0.5430
 2189TIP3   OH228057   1.793   2.191  13.163 -0.3535 -0.2027  0.2797
 2189TIP3    H128058   1.799   2.144  13.080 -0.0129 -0.0541  0.2209
 2189TIP3    H228059   1.739   2.268  13.143  0.3156  0.2041  0.0276
 2190TIP3   OH228060   5.315   4.537   5.197  0.0271  0.3449  0.8381
 2190TIP3    H128061   5.362   4.483   5.133 -1.4552 -2.8820  2.3500
 2190TIP3    H228062   5.350   4.510   5.282 -1.9395  0.4970  1.7321
 2191TIP3   OH228063   0.746   6.193  16.090 -0.5594 -0.7568 -0.0039
 2191TIP3    H128064   0.696   6.221  16.167 -0.4922 -2.6968  0.7814
 2191TIP3    H228065   0.718   6.252  16.020 -3.6733 -1.5343  0.4999
 2192TIP3   OH228066   1.426   6.534   3.101  0.0846  0.4669 -0.4649
 2192TIP3    H128067   1.516   6.518   3.073 -0.2805 -1.5223 -0.6096
 2192TIP3    H228068   1.418   6.629   3.102  2.2942  0.6805 -0.0620
 2193TIP3   OH228069   0.626   2.071   2.173 -0.1267 -0.1777  0.0638
 2193TIP3    H128070   0.685   2.104   2.241 -0.4249 -0.5450  0.5089
 2193TIP3    H228071   0.580   2.148   2.142 -1.6740 -0.3090  1.9267
 2194TIP3   OH228072   1.762   2.382  11.704  0.1436  0.3372 -0.3425
 2194TIP3    H128073   1.823   2.316  11.669  0.7912  1.0969 -0.6593
 2194TIP3    H228074   1.812   2.426  11.774 -0.6207 -0.1542  0.5308
 2195TIP3   OH228075   2.885   0.745   4.397 -0.2608  0.1797  0.6225
 2195TIP3    H128076   2.947   0.817   4.397 -0.3908  0.3385  2.4922
 2195TIP3    H228077   2.936   0.669   4.370  0.1580  0.7552 -0.2102
 2196TIP3   OH228078   4.449   1.640  13.690 -0.0417 -0.9686 -0.3501
 2196TIP3    H128079   4.456   1.686  13.606  0.9468 -1.0864 -0.3386
 2196TIP3    H228080   4.471   1.549  13.669  0.6551 -0.9053  0.1276
 2197TIP3   OH228081   3.895   5.368   4.011  0.1954 -0.0475  0.0166
 2197TIP3    H128082   3.868   5.284   4.048 -1.9638  0.6904  0.1928
 2197TIP3    H228083   3.893   5.428   4.085 -0.5911  0.6615 -0.5731
 2198TIP3   OH228084   2.355   3.032  14.056 -0.1731  0.2920 -0.3278
 2198TIP3    H128085   2.365   3.118  14.097 -1.2492  0.4742 -0.4499
 2198TIP3    H228086   2.341   2.972  14.129  1.9406 -0.0017 -0.1335
 2199TIP3   OH228087   0.319   6.773  15.810 -0.0165 -0.4654  0.0070
 2199TIP3    H128088   0.255   6.713  15.772  0.4772  0.1477 -1.8130
 2199TIP3    H228089   0.401   6.753  15.764  0.3764  0.9215  0.0876
 2200TIP3   OH228090   5.467   6.299  14.652  0.5413  0.0472 -0.0659
 2200TIP3    H128091   5.508   6.329  14.733 -1.6429  2.6137  0.1592
 2200TIP3    H228092   5.411   6.226  14.679  0.6213  0.2250  0.5890
 2201TIP3   OH228093   6.032   3.719   6.079 -1.1335 -0.1343  0.5257
 2201TIP3    H128094   5.990   3.801   6.106  0.2178  1.7440 -2.7585
 2201TIP3    H228095   6.089   3.696   6.153 -2.1115  1.4313  1.8091
 2202TIP3   OH228096   3.367   0.675  17.190  0.1197 -0.1398  0.1553
 2202TIP3    H128097   3.445   0.624  17.169 -0.8765 -1.7944  0.3447
 2202TIP3    H228098   3.298   0.610  17.202 -1.3021  1.2875 -0.0083
 2203TIP3   OH228099   1.355   6.801   4.464  0.3230  0.3828  0.3246
 2203TIP3    H128100   1.443   6.809   4.427 -0.0667  0.0622 -0.6772
 2203TIP3    H228101   1.306   6.874   4.426 -0.4227 -0.6832 -0.7820
 2204TIP3   OH228102   4.149   3.590  16.886 -0.5624 -0.2825 -0.0885
 2204TIP3    H128103   4.194   3.572  16.968 -1.5370  0.2414  0.5710
 2204TIP3    H228104   4.070   3.536  16.889  0.1281 -1.4081 -1.3621
 2205TIP3   OH228105   1.150   6.501   3.955  0.4718 -0.1663 -0.0884
 2205TIP3    H128106   1.073   6.445   3.941 -0.1709  0.6634  0.1315
 2205TIP3    H228107   1.174   6.486   4.046  0.0286  0.2561  0.0977
 2206TIP3   OH228108   2.706   4.891   2.162  0.0799 -0.3699 -0.7107
 2206TIP3    H128109   2.690   4.947   2.086 -0.2420 -0.5869 -0.8002
 2206TIP3    H228110   2.649   4.816   2.150  0.4013 -0.6499 -0.5119
 2207TIP3   OH228111   4.470   2.221  13.670 -0.4432  0.0068  0.2349
 2207TIP3    H128112   4.426   2.232  13.755 -0.1019 -0.2076  0.4382
 2207TIP3    H228113   4.522   2.142  13.680  1.1754  1.0776  0.5033
 2208TIP3   OH228114   3.226   5.406   3.612  0.0036  0.4114  0.4221
 2208TIP3    H128115   3.317   5.383   3.595 -0.1286 -0.7908  1.2201
 2208TIP3    H228116   3.196   5.338   3.673 -0.8742  1.8517  1.6231
 2209TIP3   OH228117   4.112   2.235   2.099  0.2462  0.1103 -0.4343
 2209TIP3    H128118   4.154   2.317   2.073  0.7357  0.1612  0.5155
 2209TIP3    H228119   4.018   2.253   2.090  0.3539  0.7464 -0.3239
 2210TIP3   OH228120   6.792   4.780   1.825 -0.3759 -0.0910 -0.1902
 2210TIP3    H128121   6.811   4.707   1.766  0.6607  0.5036 -0.6096
 2210TIP3    H228122   6.833   4.754   1.908 -1.6056 -0.8082  0.2116
 2211TIP3   OH228123   2.950   4.246  14.127  0.1706 -0.1362  0.5443
 2211TIP3    H128124   2.859   4.245  14.159 -0.3683 -1.9865 -1.0146
 2211TIP3    H228125   2.952   4.317  14.063 -0.9433 -1.9284 -1.5304
 2212TIP3   OH228126   2.919   0.346   2.163  0.0057  0.2707 -0.3063
 2212TIP3    H128127   2.849   0.336   2.099  1.4778 -1.4650 -1.6950
 2212TIP3    H228128   2.992   0.381   2.113 -0.0355  2.8038  1.2811
 2213TIP3   OH228129   0.437   2.902   2.097  0.2007  0.0582 -0.2279
 2213TIP3    H128130   0.507   2.901   2.032 -1.3504  1.0443 -1.9908
 2213TIP3    H228131   0.381   2.827   2.073 -0.3967  0.4518 -0.0780
 2214TIP3   OH228132   1.748   2.033   0.641 -0.3411 -0.3944 -0.2020
 2214TIP3    H128133   1.840   2.059   0.648 -0.4930  0.3783 -0.9937
 2214TIP3    H228134   1.707   2.104   0.591 -1.7487  0.2428  1.7855
 2215TIP3   OH228135   1.276   1.890  15.129 -0.0231 -0.6510  0.1270
 2215TIP3    H128136   1.263   1.969  15.076 -0.3534 -0.7762  0.0224
 2215TIP3    H228137   1.237   1.820  15.078  0.6179 -0.9512  0.0395
 2216TIP3   OH228138   6.238   2.865   1.795  0.3130 -0.5266  0.0172
 2216TIP3    H128139   6.288   2.795   1.755  0.3076 -0.0666 -0.8089
 2216TIP3    H228140   6.288   2.890   1.872  0.1986 -1.5827  0.4443
 2217TIP3   OH228141   3.977   3.673  13.316 -0.3601 -0.3261 -0.1049
 2217TIP3    H128142   4.037   3.600  13.301 -0.9271 -0.5476 -1.3404
 2217TIP3    H228143   3.937   3.654  13.401  0.3814 -0.8200  0.1452
 2218TIP3   OH228144   0.184   6.774   4.682 -0.3996 -0.1375  0.3856
 2218TIP3    H128145   0.199   6.683   4.710 -0.4058 -0.2491  0.0230
 2218TIP3    H228146   0.121   6.767   4.611 -2.3227  0.3383  1.9859
 2219TIP3   OH228147   0.270   3.911   3.854 -0.7105  0.4236  0.5649
 2219TIP3    H128148   0.320   3.858   3.917  0.6752 -1.3262 -1.9416
 2219TIP3    H228149   0.198   3.854   3.828 -0.8557  0.8614  0.0166
 2220TIP3   OH228150   1.031   2.091  11.521  0.0539  0.1509  0.4585
 2220TIP3    H128151   1.052   2.114  11.431 -1.0470 -1.0509 -0.1141
 2220TIP3    H228152   1.057   2.168  11.572  0.7225  0.8153 -0.8660
 2221TIP3   OH228153   2.048   3.502  12.253  0.2217  0.5201 -0.1948
 2221TIP3    H128154   2.074   3.550  12.175 -0.3257  1.1728  0.0253
 2221TIP3    H228155   1.984   3.438  12.222  0.2992  0.5150 -0.3446
 2222TIP3   OH228156   4.816   1.869  14.711 -0.7205 -0.1689  0.0496
 2222TIP3    H128157   4.776   1.865  14.625 -1.7279 -0.3888  0.5270
 2222TIP3    H228158   4.744   1.889  14.771  0.3585  2.4661  0.5345
 2223TIP3   OH228159   3.403   5.490  11.441  0.5724 -0.3504 -0.1686
 2223TIP3    H128160   3.409   5.542  11.521  1.9702  1.8141 -1.6346
 2223TIP3    H228161   3.358   5.410  11.468 -0.4691  1.0502  2.4064
 2224TIP3   OH228162   0.507   3.726  15.758  0.5377  0.5687  0.0961
 2224TIP3    H128163   0.525   3.816  15.784  0.8265  1.0917 -1.8092
 2224TIP3    H228164   0.428   3.732  15.705 -0.1591 -0.4838  1.0008
 2225TIP3   OH228165   1.536   2.504  15.934 -0.3248 -0.2928 -0.3088
 2225TIP3    H128166   1.612   2.447  15.937  0.1438  0.4050  2.1824
 2225TIP3    H228167   1.472   2.462  15.992  0.1050  1.8016  1.7184
 2226TIP3   OH228168   5.737   2.878   1.355 -0.4470 -0.8566 -0.0487
 2226TIP3    H128169   5.777   2.913   1.275 -2.1663  0.9331 -0.1472
 2226TIP3    H228170   5.649   2.853   1.328 -0.5610 -1.6060  0.9757
 2227TIP3   OH228171   3.763   1.258  17.180 -0.3461  0.2860 -0.0327
 2227TIP3    H128172   3.757   1.214  17.264  0.6605  1.0265  0.4342
 2227TIP3    H228173   3.676   1.247  17.141 -1.0876  0.7014  1.4840
 2228TIP3   OH228174   2.048   2.083   2.379 -0.2520 -0.5815  0.5306
 2228TIP3    H128175   1.996   2.005   2.394  0.4147 -1.1363 -0.0319
 2228TIP3    H228176   2.053   2.125   2.465  1.0678 -2.1963  1.2643
 2229TIP3   OH228177   2.955   6.103  16.397  0.0789  0.2068  0.5878
 2229TIP3    H128178   3.018   6.174  16.413 -1.4544  1.4231  1.3816
 2229TIP3    H228179   2.884   6.121  16.459 -1.8382 -0.1794 -1.4666
 2230TIP3   OH228180   4.313   6.659   1.300  0.0281  0.2163  0.4268
 2230TIP3    H128181   4.341   6.706   1.222 -0.5094  1.1096  0.7596
 2230TIP3    H228182   4.393   6.622   1.336  0.4290  0.6961  0.0361
 2231TIP3   OH228183   6.735   4.272   1.382  0.0346 -1.0030 -0.3651
 2231TIP3    H128184   6.670   4.258   1.313 -0.9773 -1.1751  0.6059
 2231TIP3    H228185   6.687   4.258   1.463  1.0868 -0.2797  0.3953
 2232TIP3   OH228186   5.543   3.695  11.887  0.2199 -0.6462 -0.9764
 2232TIP3    H128187   5.597   3.759  11.841  3.0573 -3.5399 -1.8038
 2232TIP3    H228188   5.599   3.662  11.957 -2.2854 -0.0275  1.4144
 2233TIP3   OH228189   5.335   1.686   6.700  0.1013  0.0550  0.3960
 2233TIP3    H128190   5.421   1.652   6.677  0.3944  0.6343  0.6465
 2233TIP3    H228191   5.299   1.718   6.617  0.4984  0.6504  0.4528
 2234TIP3   OH228192   2.401   3.997  10.985 -0.1056  0.5944  0.4173
 2234TIP3    H128193   2.315   3.991  10.943 -0.4328  2.4639  0.7464
 2234TIP3    H228194   2.464   3.985  10.913 -0.6422 -0.0747  0.0543
 2235TIP3   OH228195   1.210   0.604  12.186 -0.3417  0.3981 -0.5079
 2235TIP3    H128196   1.198   0.532  12.124 -0.4696  0.9869 -1.1671
 2235TIP3    H228197   1.174   0.571  12.268 -1.6998  0.2299 -1.1534
 2236TIP3   OH228198   3.490   3.430   1.148 -0.4877  0.5837 -0.1547
 2236TIP3    H128199   3.511   3.438   1.055  2.7417 -0.4475  0.4353
 2236TIP3    H228200   3.480   3.336   1.163  1.5378  0.5222  1.0155
 2237TIP3   OH228201   4.496   4.343   5.253  0.5870  0.1906  0.1763
 2237TIP3    H128202   4.498   4.260   5.206 -1.0690  0.2903 -0.0978
 2237TIP3    H228203   4.586   4.355   5.284  1.1034 -1.1376 -0.7450
 2238TIP3   OH228204   4.877   2.530  14.283 -0.6056  0.0550  0.3947
 2238TIP3    H128205   4.929   2.598  14.325  0.6183 -0.7575  0.2234
 2238TIP3    H228206   4.795   2.528  14.333 -0.2814  1.0078  0.9758
 2239TIP3   OH228207   1.743   5.863  11.343 -0.7156 -0.4210 -0.5853
 2239TIP3    H128208   1.835   5.889  11.351 -1.5619  2.4355  0.6432
 2239TIP3    H228209   1.740   5.806  11.267  2.0357 -0.3497 -0.7835
 2240TIP3   OH228210   3.700   0.638   5.256  0.0638  0.6228 -0.4094
 2240TIP3    H128211   3.673   0.572   5.320 -0.0603 -0.4156 -1.5142
 2240TIP3    H228212   3.673   0.722   5.294  0.2294  0.0359  1.0036
 2241TIP3   OH228213   0.461   4.858   3.837  0.1355 -0.1051  0.2319
 2241TIP3    H128214   0.443   4.937   3.785 -0.8443 -0.1241  0.5390
 2241TIP3    H228215   0.536   4.818   3.793 -1.5007 -0.8423 -2.0232
 2242TIP3   OH228216   5.837   2.012   6.234  0.2868 -0.2590  0.8171
 2242TIP3    H128217   5.811   2.055   6.315 -0.4673  0.2047  0.3438
 2242TIP3    H228218   5.768   2.036   6.171  1.6560  0.6664 -0.3789
 2243TIP3   OH228219   2.495   3.910   1.772  0.3454 -0.1717  0.0805
 2243TIP3    H128220   2.511   3.995   1.730 -1.5940 -0.2414 -0.8517
 2243TIP3    H228221   2.490   3.930   1.866 -3.8176  1.4452 -0.3539
 2244TIP3   OH228222   6.420   3.875  13.329 -0.0332 -0.2772  0.0886
 2244TIP3    H128223   6.430   3.907  13.240  0.2848 -0.1119  0.1854
 2244TIP3    H228224   6.391   3.952  13.379 -1.8658 -0.7474 -0.1952
 2245TIP3   OH228225   0.194   2.577   4.281 -0.1861  0.3643  0.3962
 2245TIP3    H128226   0.191   2.482   4.276  0.2257  0.3448  0.5293
 2245TIP3    H228227   0.242   2.596   4.361  1.5171  0.6866 -0.6738
 2246TIP3   OH228228   1.129   2.996  13.964  0.4019 -0.6788  0.6122
 2246TIP3    H128229   1.165   3.019  13.878  1.8074 -0.7167  1.1822
 2246TIP3    H228230   1.193   2.934  14.001 -1.1050 -2.0958  0.9290
 2247TIP3   OH228231   2.719   0.656   3.334 -0.0291 -0.2496 -0.2427
 2247TIP3    H128232   2.778   0.697   3.271  1.1174  0.2653  1.1449
 2247TIP3    H228233   2.736   0.702   3.417  0.0587 -2.3736  0.9492
 2248TIP3   OH228234   1.973   2.664  12.161  0.7723 -0.6128 -0.1724
 2248TIP3    H128235   2.060   2.634  12.133  0.2310 -1.9817 -0.3982
 2248TIP3    H228236   1.949   2.604  12.231 -0.2258 -0.5699 -0.4825
 2249TIP3   OH228237   1.708   1.792   4.784 -0.2377  0.1099 -0.0396
 2249TIP3    H128238   1.692   1.706   4.822 -1.2363  0.0289 -0.6363
 2249TIP3    H228239   1.622   1.825   4.760  0.1531  1.1994 -0.0048
 2250TIP3   OH228240   5.443   6.103  12.350 -0.7136 -0.2240 -0.5015
 2250TIP3    H128241   5.508   6.032  12.345 -0.4196 -0.0429  0.5959
 2250TIP3    H228242   5.445   6.143  12.263  2.0551  1.0210  0.0893
 2251TIP3   OH228243   6.212   2.998  14.956  0.0127  1.2893  0.5353
 2251TIP3    H128244   6.199   3.022  14.864 -2.0778  0.7625  0.6716
 2251TIP3    H228245   6.127   3.014  14.997  0.4161 -0.2085  1.9886
 2252TIP3   OH228246   3.781   1.877  12.526 -0.6311  0.2764  0.2939
 2252TIP3    H128247   3.781   1.966  12.491 -2.0251  0.3790  0.4999
 2252TIP3    H228248   3.698   1.840  12.497 -0.6197 -0.5336  1.2552
 2253TIP3   OH228249   2.776   0.159   5.271  0.1167 -0.1077  0.3868
 2253TIP3    H128250   2.764   0.110   5.352  0.2415 -0.5803  0.1249
 2253TIP3    H228251   2.851   0.217   5.288 -0.0257 -0.0164  0.6947
 2254TIP3   OH228252   3.825   0.260   2.406 -0.4384 -0.0111  0.8812
 2254TIP3    H128253   3.777   0.246   2.325  1.8245  1.8081 -0.8541
 2254TIP3    H228254   3.886   0.187   2.412 -0.2513  0.1259  0.6595
 2255TIP3   OH228255   4.613   5.628   4.811  0.0510  0.4526  0.3066
 2255TIP3    H128256   4.665   5.606   4.888  1.6846 -2.8579 -1.6373
 2255TIP3    H228257   4.570   5.546   4.787  0.0686  1.2517 -2.6595
 2256TIP3   OH228258   5.281   5.502   6.728 -0.2448  0.1116 -0.0075
 2256TIP3    H128259   5.272   5.596   6.711  0.2354  0.0260 -0.7401
 2256TIP3    H228260   5.331   5.468   6.653  3.7439  0.1169  2.4576
 2257TIP3   OH228261   1.034   4.078  14.380 -0.0220 -0.1221  0.2416
 2257TIP3    H128262   0.947   4.056  14.413 -0.5896  0.4667 -0.8576
 2257TIP3    H228263   1.050   4.167  14.412 -1.0097  0.8554 -1.9123
 2258TIP3   OH228264   3.606   6.039  16.477 -0.2838  0.6873 -0.0556
 2258TIP3    H128265   3.659   6.024  16.555 -0.9267  1.6203  0.5893
 2258TIP3    H228266   3.517   6.018  16.504 -0.3415 -0.1986 -0.9176
 2259TIP3   OH228267   4.064   4.973   2.222 -0.4531 -0.3003 -0.1566
 2259TIP3    H128268   4.148   4.928   2.209  1.1198  2.2844  0.7397
 2259TIP3    H228269   4.029   4.933   2.302  1.2535  0.4869  1.0216
 2260TIP3   OH228270   2.878   2.615  16.988 -0.3151 -0.1141 -0.1954
 2260TIP3    H128271   2.883   2.598  17.082 -1.4481 -0.3083 -0.1702
 2260TIP3    H228272   2.836   2.536  16.952 -0.9757  0.4683 -0.7140
 2261TIP3   OH228273   5.455   4.308   2.881 -0.6682 -0.0746  0.2205
 2261TIP3    H128274   5.523   4.355   2.833 -1.6388  1.8987  0.7379
 2261TIP3    H228275   5.403   4.265   2.813 -0.5949  0.7451 -0.3685
 2262TIP3   OH228276   5.040   4.027   3.608  0.5495  0.0067  0.6202
 2262TIP3    H128277   4.970   4.056   3.550  1.1638 -0.6623 -0.4766
 2262TIP3    H228278   4.996   3.969   3.671  0.1047 -0.3806 -0.0374
 2263TIP3   OH228279   5.966   3.019   5.913  0.5920  0.0467 -0.0912
 2263TIP3    H128280   6.032   2.965   5.956  0.1695 -0.2860  0.1422
 2263TIP3    H228281   5.997   3.027   5.822  2.2293  1.9414  0.5991
 2264TIP3   OH228282   6.065   3.888   0.477 -0.3939 -0.4408 -0.2433
 2264TIP3    H128283   6.109   3.914   0.397  0.9333 -0.2950  0.5145
 2264TIP3    H228284   6.123   3.823   0.516  0.6170  1.8101  2.1962
 2265TIP3   OH228285   6.103   0.520  10.742 -0.2004  0.0856  0.4471
 2265TIP3    H128286   6.070   0.602  10.705 -1.5730 -0.1410  1.1402
 2265TIP3    H228287   6.067   0.452  10.685  0.6058 -0.0623  0.1118
 2266TIP3   OH228288   1.761   2.198   3.782 -0.9608 -0.2815  0.0363
 2266TIP3    H128289   1.789   2.119   3.737 -0.1881 -0.4175  0.7548
 2266TIP3    H228290   1.744   2.171   3.872 -0.7681  0.3410  0.2668
 2267TIP3   OH228291   1.807   4.620  14.406 -0.1786  0.0409 -0.5038
 2267TIP3    H128292   1.824   4.624  14.312  2.3087  1.7720 -0.0074
 2267TIP3    H228293   1.778   4.708  14.429  1.8657  0.4108  0.7984
 2268TIP3   OH228294   4.395   4.139  11.095 -0.1577 -0.1840 -0.2175
 2268TIP3    H128295   4.371   4.169  11.183  0.9526  1.2546 -0.3895
 2268TIP3    H228296   4.312   4.113  11.055 -0.7974  0.1094  0.8986
 2269TIP3   OH228297   0.254   4.044   6.547 -0.6435 -0.0306 -0.0645
 2269TIP3    H128298   0.176   4.026   6.600  0.1771 -0.8554  0.8937
 2269TIP3    H228299   0.322   3.989   6.586  0.1698 -0.0599 -1.5041
 2270TIP3   OH228300   4.365   4.592  12.864  0.3327 -0.1321 -0.3126
 2270TIP3    H128301   4.317   4.568  12.943 -1.7160  1.0659 -1.1327
 2270TIP3    H228302   4.442   4.638  12.896 -1.7703  2.6670  1.0384
 2271TIP3   OH228303   1.512   4.782   3.263  0.7073  0.4495 -0.9369
 2271TIP3    H128304   1.451   4.854   3.274 -0.7299 -0.7322 -1.0178
 2271TIP3    H228305   1.565   4.807   3.187 -1.0882  0.5298 -2.1870
 2272TIP3   OH228306   1.902   6.812  17.136  0.4273  0.2419  0.3641
 2272TIP3    H128307   1.915   6.769  17.221  0.1986 -0.6581 -0.0492
 2272TIP3    H228308   1.914   6.742  17.072 -2.1408  0.3120 -0.2338
 2273TIP3   OH228309   2.814   6.630   1.110 -0.3461 -0.2242 -0.3563
 2273TIP3    H128310   2.856   6.660   1.030  0.7920 -0.4210  0.1438
 2273TIP3    H228311   2.846   6.689   1.178 -1.0891 -0.2216 -0.0052
 2274TIP3   OH228312   0.484   3.425  13.557 -0.0136 -0.9088 -0.5999
 2274TIP3    H128313   0.488   3.427  13.462  1.2544  0.6006 -0.5370
 2274TIP3    H228314   0.395   3.457  13.578 -0.2103 -1.0256 -1.2653
 2275TIP3   OH228315   1.065   3.219  15.872 -0.2355  0.1939 -0.2061
 2275TIP3    H128316   1.004   3.159  15.916  0.3298  0.0156  0.3328
 2275TIP3    H228317   1.117   3.256  15.943  1.2244 -0.6935 -0.8084
 2276TIP3   OH228318   5.093   5.400   1.484 -0.4530 -0.0460 -0.1651
 2276TIP3    H128319   5.125   5.419   1.397 -1.1389  0.3512 -0.3345
 2276TIP3    H228320   5.142   5.458   1.542 -0.9396  0.6366 -0.4334
 2277TIP3   OH228321   2.815   2.053  11.599  0.4823  0.4852 -0.0595
 2277TIP3    H128322   2.868   2.117  11.551  1.5311  0.1716  0.6836
 2277TIP3    H228323   2.730   2.096  11.609  1.6212  2.4071  1.7609
 2278TIP3   OH228324   4.428   1.112  14.587  0.4965  0.2562  0.1892
 2278TIP3    H128325   4.354   1.152  14.541 -0.3403 -0.1148  1.1818
 2278TIP3    H228326   4.400   1.021  14.602  1.6042 -0.1853 -0.3977
 2279TIP3   OH228327   4.800   4.263  11.731  0.6316 -0.5271 -0.1073
 2279TIP3    H128328   4.773   4.354  11.740 -0.1730 -0.8761  1.2639
 2279TIP3    H228329   4.745   4.216  11.794  0.2674 -2.1125 -1.5671
 2280TIP3   OH228330   0.089   3.582  12.187  0.1229 -0.2972  0.0775
 2280TIP3    H128331   0.019   3.558  12.248  0.2917  0.0110  0.3995
 2280TIP3    H228332   0.107   3.673  12.208 -0.9219  0.2942 -1.5368
 2281TIP3   OH228333   3.953   0.006  13.982 -0.4490 -0.3334  0.2417
 2281TIP3    H128334   3.934  -0.082  13.949  0.5055 -0.8982  1.1859
 2281TIP3    H228335   4.030  -0.005  14.037 -0.5814  1.0290  0.7119
 2282TIP3   OH228336   4.451   5.378   1.801 -0.1548 -0.3598 -0.1296
 2282TIP3    H128337   4.465   5.348   1.891 -1.8525 -1.4709 -0.2219
 2282TIP3    H228338   4.476   5.303   1.746 -2.0319 -0.7819 -0.4501
 2283TIP3   OH228339   2.744   5.768   1.609  0.0658  0.0604  0.0631
 2283TIP3    H128340   2.737   5.724   1.694  0.3799 -0.8667 -0.3779
 2283TIP3    H228341   2.813   5.719   1.563  0.5937  1.1854 -0.3485
 2284TIP3   OH228342   5.037   2.233   4.228  0.1668  0.1934  0.6442
 2284TIP3    H128343   5.029   2.169   4.157  1.6598  0.0129  0.6061
 2284TIP3    H228344   5.046   2.179   4.307 -0.3873  0.3772  0.8289
 2285TIP3   OH228345   2.334   1.007  11.165 -0.6335 -0.0922  0.1653
 2285TIP3    H128346   2.279   0.981  11.092  0.1945  0.2050 -0.5807
 2285TIP3    H228347   2.285   0.981  11.243 -2.8737  2.2449 -0.4135
 2286TIP3   OH228348   5.079   4.921   2.190  0.3827 -0.0006 -0.0359
 2286TIP3    H128349   4.983   4.914   2.197  0.3281 -0.1925 -0.9095
 2286TIP3    H228350   5.111   4.832   2.204  0.2537 -0.4367 -2.4512
 2287TIP3   OH228351   2.302   4.347  14.514  0.2868 -0.2833  0.1225
 2287TIP3    H128352   2.340   4.353  14.602 -0.4140 -0.8807  0.4701
 2287TIP3    H228353   2.361   4.287  14.467 -1.1138 -2.5365  1.1600
 2288TIP3   OH228354   3.774   5.503  13.405  0.1458 -1.0279 -0.2002
 2288TIP3    H128355   3.757   5.481  13.313  2.8233  0.7443 -1.1959
 2288TIP3    H228356   3.849   5.448  13.429 -0.1149 -0.9955  0.6963
 2289TIP3   OH228357   5.003   3.368  14.830 -0.4597 -0.1533  0.2669
 2289TIP3    H128358   5.038   3.282  14.851 -0.3725  0.5554  3.2273
 2289TIP3    H228359   4.926   3.377  14.885  0.0667  2.0342  0.6764
 2290TIP3   OH228360   5.844   6.309  14.786  0.8947 -0.7270  0.5682
 2290TIP3    H128361   5.802   6.383  14.741  1.3058  0.0716  1.4665
 2290TIP3    H228362   5.870   6.345  14.871  1.7809 -1.7065  0.7171
 2291TIP3   OH228363   3.495   3.575   5.526  0.3873 -0.6479  0.2814
 2291TIP3    H128364   3.510   3.667   5.547 -1.6251 -0.1491 -0.3336
 2291TIP3    H228365   3.544   3.527   5.593 -0.4074  0.8930  2.0323
 2292TIP3   OH228366   6.513   1.906   5.798 -0.5974 -0.1457  0.0062
 2292TIP3    H128367   6.507   1.992   5.838 -0.9834 -0.5791  0.8884
 2292TIP3    H228368   6.561   1.853   5.861  1.9885  0.0969 -1.6903
 2293TIP3   OH228369   5.674   3.629   5.698  0.3271 -0.1116  0.3417
 2293TIP3    H128370   5.590   3.606   5.659  1.0609 -1.6999 -0.3596
 2293TIP3    H228371   5.725   3.665   5.626  0.3967  0.4439  0.6666
 2294TIP3   OH228372   1.794   2.691   2.509 -0.5933 -0.0987  0.9826
 2294TIP3    H128373   1.740   2.758   2.466  0.6403 -0.1209 -0.6499
 2294TIP3    H228374   1.811   2.626   2.440  0.3242 -0.8161  1.8706
 2295TIP3   OH228375   5.298   0.726   2.106 -0.5342 -0.2668 -0.2587
 2295TIP3    H128376   5.330   0.794   2.165  0.7391 -1.0140 -0.0692
 2295TIP3    H228377   5.229   0.682   2.155  0.0018 -0.3896  0.3881
 2296TIP3   OH228378   6.551   2.314  14.854  0.2571  0.2702 -0.2936
 2296TIP3    H128379   6.556   2.409  14.866 -0.3606  0.2146  0.3782
 2296TIP3    H228380   6.487   2.303  14.783  0.1855  0.3418 -0.2406
 2297TIP3   OH228381   4.733   0.679  14.092 -0.5019  0.4255  0.2741
 2297TIP3    H128382   4.785   0.749  14.053 -1.4886  1.8279  1.4156
 2297TIP3    H228383   4.682   0.723  14.160 -3.3173 -0.8573 -0.9396
 2298TIP3   OH228384   4.589   2.836   6.505 -0.0125 -0.0333 -0.4602
 2298TIP3    H128385   4.600   2.866   6.415 -1.7422  0.0814 -0.6515
 2298TIP3    H228386   4.498   2.807   6.510 -0.5282  1.7757  1.7604
 2299TIP3   OH228387   5.880   5.087   4.542 -0.5399 -0.7814  0.7477
 2299TIP3    H128388   5.847   5.100   4.453  2.9945 -1.7969 -0.8062
 2299TIP3    H228389   5.832   5.010   4.574  0.0871 -2.0947 -1.3328
 2300TIP3   OH228390   3.042   2.892  17.021  0.6014  0.3076  0.7754
 2300TIP3    H128391   2.984   2.909  17.095  0.7202  0.2137  0.8910
 2300TIP3    H228392   3.034   2.798  17.006 -1.0937  0.6475 -0.7136
 2301TIP3   OH228393   2.376   6.245   5.693  0.5885 -0.1863  0.2118
 2301TIP3    H128394   2.415   6.210   5.774 -1.7493 -1.8484  0.6412
 2301TIP3    H228395   2.340   6.330   5.719  0.8801 -0.1904  0.6375
 2302TIP3   OH228396   3.171   2.302  16.557  0.0506 -0.0004 -0.1557
 2302TIP3    H128397   3.240   2.359  16.591  0.2402  0.8188 -1.8776
 2302TIP3    H228398   3.215   2.218  16.544  1.0371  0.8128 -2.2959
 2303TIP3   OH228399   4.889   6.165   0.150  0.2139 -0.0957 -0.2328
 2303TIP3    H128400   4.908   6.138   0.060  0.7911 -0.3856 -0.0279
 2303TIP3    H228401   4.975   6.179   0.189 -0.0445  0.3276  0.1843
 2304TIP3   OH228402   3.448   2.439   3.193 -0.2273  0.2047 -0.3127
 2304TIP3    H128403   3.443   2.421   3.099  2.0380 -0.0944 -0.4135
 2304TIP3    H228404   3.447   2.535   3.199  1.4332  0.2770 -0.8058
 2305TIP3   OH228405   3.591   3.350   0.630  0.3280 -0.4479 -0.1933
 2305TIP3    H128406   3.516   3.401   0.661 -0.4123 -3.4973  3.3856
 2305TIP3    H228407   3.557   3.300   0.556 -0.4531  0.1142 -0.2248
 2306TIP3   OH228408   2.535   1.268  12.623  0.2019 -0.4253 -1.3260
 2306TIP3    H128409   2.528   1.356  12.660  0.3985 -0.6585 -0.7351
 2306TIP3    H228410   2.495   1.276  12.536 -0.4345  0.0664 -0.9911
 2307TIP3   OH228411   5.425   6.635  10.925  0.5714  0.2791  0.3364
 2307TIP3    H128412   5.375   6.650  10.844 -1.0978  0.2912  1.3470
 2307TIP3    H228413   5.516   6.644  10.898 -0.0113  2.4427 -1.1181
 2308TIP3   OH228414   6.646   0.935  16.709  0.2800 -0.2879  0.0038
 2308TIP3    H128415   6.738   0.960  16.697 -0.1987  1.3801 -0.1748
 2308TIP3    H228416   6.598   0.984  16.643 -0.8575 -0.4420  0.7004
 2309TIP3   OH228417   5.000   4.239  14.963 -0.1154  0.2808  0.3691
 2309TIP3    H128418   5.093   4.259  14.972 -0.1275  0.6484 -0.3065
 2309TIP3    H228419   4.990   4.212  14.872 -0.7205  0.5117  0.3650
 2310TIP3   OH228420   1.674   0.038   5.211 -1.4260 -0.2299  0.1587
 2310TIP3    H128421   1.746  -0.015   5.246  0.6098  0.1231 -3.2807
 2310TIP3    H228422   1.627  -0.021   5.152 -0.8649  0.9399 -1.4959
 2311TIP3   OH228423   1.762   1.721   5.940  0.6151  0.2154 -0.2484
 2311TIP3    H128424   1.736   1.794   5.996 -0.7890 -0.4357 -0.0372
 2311TIP3    H228425   1.761   1.757   5.851 -1.8040  0.0041 -0.3294
 2312TIP3   OH228426   3.298   0.379  14.016  0.4336  0.2189 -0.3524
 2312TIP3    H128427   3.327   0.384  14.107 -0.2374 -1.1657 -0.0557
 2312TIP3    H228428   3.273   0.288  14.003 -2.2638  0.9898 -1.0340
 2313TIP3   OH228429   4.517   0.547   6.055  0.1504 -0.2079 -0.2258
 2313TIP3    H128430   4.568   0.620   6.021 -1.2004 -0.8271 -3.7742
 2313TIP3    H228431   4.442   0.588   6.098  1.1023  0.5539  0.7303
 2314TIP3   OH228432   3.257   4.838   1.750  0.1447  0.2852 -0.1413
 2314TIP3    H128433   3.296   4.877   1.672  0.6696  1.6996  0.8121
 2314TIP3    H228434   3.227   4.912   1.802 -0.5396 -0.6614  0.8410
 2315TIP3   OH228435   3.765   4.280   3.178  0.2005  0.1880  0.2643
 2315TIP3    H128436   3.681   4.235   3.188  1.5531 -2.1995  1.3227
 2315TIP3    H228437   3.743   4.362   3.134 -2.3880 -1.3575 -1.4599
 2316TIP3   OH228438   2.711   0.763   1.810 -0.0266 -0.1191 -0.0786
 2316TIP3    H128439   2.770   0.809   1.870  1.1096 -1.1947 -0.3503
 2316TIP3    H228440   2.736   0.671   1.817  0.4078 -0.2392 -2.4517
 2317TIP3   OH228441   3.231   0.211   3.081 -0.3262  0.1754  0.1684
 2317TIP3    H128442   3.205   0.162   3.159 -0.8300  0.0818 -0.0575
 2317TIP3    H228443   3.183   0.169   3.010  0.7967 -0.2968 -0.3184
 2318TIP3   OH228444   2.720   0.097   6.496 -0.5507  0.4316 -0.4227
 2318TIP3    H128445   2.763   0.183   6.490 -0.7968  0.6154  0.3107
 2318TIP3    H228446   2.630   0.118   6.521 -0.0239 -0.1503  2.1162
 2319TIP3   OH228447   3.834   5.822  12.682  0.7439  0.1621 -0.4652
 2319TIP3    H128448   3.805   5.903  12.724 -0.0302  0.0903 -0.8535
 2319TIP3    H228449   3.810   5.753  12.743  3.0793  0.3422  0.7424
 2320TIP3   OH228450   2.367   1.476   4.801 -0.2262  0.0677  0.1710
 2320TIP3    H128451   2.338   1.563   4.829 -0.1516  0.1271  0.0671
 2320TIP3    H228452   2.349   1.419   4.875 -1.8218 -0.1531 -0.3749
 2321TIP3   OH228453   3.858   2.235   3.127  0.0008  0.3301  0.0146
 2321TIP3    H128454   3.827   2.318   3.162 -0.0169 -0.2423  1.3979
 2321TIP3    H228455   3.860   2.176   3.203 -0.6227 -1.1157 -1.0716
 2322TIP3   OH228456   3.739   0.847   5.859  0.4091  0.1055 -0.0010
 2322TIP3    H128457   3.834   0.835   5.854  0.2441 -1.9221  1.2993
 2322TIP3    H228458   3.724   0.893   5.941  0.1173 -1.4106  0.8045
 2323TIP3   OH228459   0.002   4.797  13.153  0.4518 -0.3342 -0.0809
 2323TIP3    H128460   0.070   4.777  13.217  0.8502  0.8904 -0.0963
 2323TIP3    H228461   0.047   4.849  13.086 -0.8748  2.1724  0.9070
 2324TIP3   OH228462   5.702   4.510  12.602 -0.4452 -0.0978  0.0589
 2324TIP3    H128463   5.665   4.451  12.536  0.0986  0.3720 -0.6727
 2324TIP3    H228464   5.794   4.485  12.607 -0.4145  0.0870  0.4076
 2325TIP3   OH228465   0.432   4.428   0.564  0.7205 -0.0528  0.2284
 2325TIP3    H128466   0.408   4.509   0.610 -0.0842 -0.6397  0.8705
 2325TIP3    H228467   0.522   4.410   0.590  0.7096  0.3399  0.5319
 2326TIP3   OH228468   5.925   2.411  15.925  0.3712  0.3489  0.0846
 2326TIP3    H128469   5.885   2.476  15.867 -0.8972 -1.9521 -1.6994
 2326TIP3    H228470   6.011   2.395  15.887  1.6958  2.6625  1.9013
 2327TIP3   OH228471   1.727   3.685   4.301 -0.4089 -0.5904 -0.0810
 2327TIP3    H128472   1.813   3.647   4.322  0.2486  0.7160 -0.3543
 2327TIP3    H228473   1.747   3.771   4.264 -1.8901  0.4501  1.4170
 2328TIP3   OH228474   4.408   1.272  16.366  0.5883  0.1458  0.6439
 2328TIP3    H128475   4.495   1.264  16.329  0.6646  2.9231  0.1691
 2328TIP3    H228476   4.415   1.343  16.430 -1.2337  0.1128  0.9139
 2329TIP3   OH228477   5.113   3.605  11.553 -0.2643 -0.1338  0.1141
 2329TIP3    H128478   5.188   3.642  11.599  0.3260 -0.8672 -0.2324
 2329TIP3    H228479   5.048   3.588  11.621  0.8458 -1.8276  0.8079
 2330TIP3   OH228480   3.965   5.629   4.166  0.4951 -0.2556  0.2802
 2330TIP3    H128481   3.985   5.637   4.259  0.5992  1.8343  0.0999
 2330TIP3    H228482   4.041   5.665   4.121 -0.4875  0.8466 -0.5513
 2331TIP3   OH228483   5.173   3.611  15.773 -0.2687  0.5996 -0.5631
 2331TIP3    H128484   5.228   3.614  15.695  1.8213  0.4243  0.8632
 2331TIP3    H228485   5.100   3.553  15.749 -0.2010  1.3662 -2.6990
 2332TIP3   OH228486   2.251   1.856  12.695 -0.8567  0.0431 -0.3454
 2332TIP3    H128487   2.253   1.940  12.647 -0.5189  0.5290  0.5139
 2332TIP3    H228488   2.337   1.850  12.735 -0.8501 -0.7741 -0.4813
 2333TIP3   OH228489   0.445   1.083   0.260 -0.1161  0.3548 -0.2454
 2333TIP3    H128490   0.364   1.116   0.298  0.6852  0.1378  1.6629
 2333TIP3    H228491   0.499   1.160   0.246  0.4740  0.2077  1.1756
 2334TIP3   OH228492   0.329   4.259   0.875 -0.3207  0.2829  0.1487
 2334TIP3    H128493   0.357   4.294   0.791  0.7833  0.6876  0.6782
 2334TIP3    H228494   0.234   4.252   0.868 -0.2730  0.7509 -0.9623
 2335TIP3   OH228495   1.707   3.225  15.669 -0.4770 -0.5160  0.0713
 2335TIP3    H128496   1.637   3.256  15.726 -0.1579 -1.0602  0.7820
 2335TIP3    H228497   1.708   3.285  15.595 -1.5577 -0.3875  0.1603
 2336TIP3   OH228498   6.423   1.839   4.518 -0.3229  0.1049 -0.2693
 2336TIP3    H128499   6.386   1.753   4.538 -1.7559  0.4037 -1.5761
 2336TIP3    H228500   6.394   1.894   4.591 -2.5330  0.3437 -1.2912
 2337TIP3   OH228501   1.004   3.643  11.712  0.0216  0.1343  0.3610
 2337TIP3    H128502   1.041   3.668  11.627  1.1201 -0.5299  0.6441
 2337TIP3    H228503   1.037   3.555  11.728 -0.2575  0.2262  1.4446
 2338TIP3   OH228504   0.740   5.028  13.336 -0.0959  0.3962  0.2403
 2338TIP3    H128505   0.770   5.090  13.270  0.9209  0.8159  1.0605
 2338TIP3    H228506   0.665   5.070  13.377 -1.7345 -0.5589 -1.6869
 2339TIP3   OH228507   2.390   6.608  15.939  0.2722 -0.5019  0.4498
 2339TIP3    H128508   2.437   6.551  15.878  2.5052  0.5226  1.1689
 2339TIP3    H228509   2.459   6.653  15.988 -1.4685  0.8997  1.6788
 2340TIP3   OH228510   2.284   6.554   5.090 -0.2263 -0.0016  0.5327
 2340TIP3    H128511   2.271   6.465   5.123 -0.5998 -0.3332 -0.4843
 2340TIP3    H228512   2.197   6.580   5.058  0.3368 -0.0730 -1.1052
 2341TIP3   OH228513   3.736   4.580   1.932  0.0368 -0.1872  0.2732
 2341TIP3    H128514   3.664   4.587   1.870  0.3625 -3.1257 -0.5547
 2341TIP3    H228515   3.805   4.635   1.896 -1.2573  1.4879  0.3107
 2342TIP3   OH228516   2.410   4.369  13.635  0.5481  0.1992 -0.0412
 2342TIP3    H128517   2.430   4.411  13.551 -0.2388 -0.4808 -0.5871
 2342TIP3    H228518   2.491   4.323  13.658  1.7022  2.7066  1.0175
 2343TIP3   OH228519   4.479   6.088  12.692  1.2646 -0.0803  0.2901
 2343TIP3    H128520   4.391   6.084  12.654  1.6839 -0.1630 -0.6976
 2343TIP3    H228521   4.530   6.137  12.627  1.4147  1.9942  1.9112
 2344TIP3   OH228522   1.160   5.171   4.121 -0.0034  0.1978  0.0561
 2344TIP3    H128523   1.199   5.146   4.205  2.1139  2.0924 -0.3078
 2344TIP3    H228524   1.233   5.166   4.059 -1.1864  0.3615 -1.3612
 2345TIP3   OH228525   5.152   6.434  17.065 -0.1926  0.0916 -0.2176
 2345TIP3    H128526   5.079   6.462  17.120  0.0681  0.3788 -0.0177
 2345TIP3    H228527   5.226   6.486  17.095  0.4478 -1.2444  0.5790
 2346TIP3   OH228528   5.103   5.462  14.086  0.4257  0.0793  0.2532
 2346TIP3    H128529   5.127   5.551  14.113  1.1372 -0.1753  0.4664
 2346TIP3    H228530   5.053   5.428  14.161 -0.0142  0.3643  0.0923
 2347TIP3   OH228531   6.185   5.320   3.513  0.6894 -0.5793  0.1275
 2347TIP3    H128532   6.138   5.348   3.592 -0.4103  0.8543 -0.9950
 2347TIP3    H228533   6.210   5.230   3.530  0.8555 -0.1513  2.2919
 2348TIP3   OH228534   6.739   5.111   2.571 -0.4034  0.2314  0.0146
 2348TIP3    H128535   6.698   5.025   2.575  1.5358 -0.7562 -0.6265
 2348TIP3    H228536   6.704   5.158   2.647 -1.0646 -1.3076  0.6815
 2349TIP3   OH228537   1.815   1.855  15.259 -0.0829 -0.8629  0.2908
 2349TIP3    H128538   1.760   1.780  15.238  0.5352 -1.5103  0.9704
 2349TIP3    H228539   1.764   1.931  15.230 -0.6546 -1.5404 -0.5126
 2350TIP3   OH228540   0.936   0.978  14.821 -0.4383  0.4749  0.3344
 2350TIP3    H128541   1.027   0.957  14.802 -0.3741  0.3722  0.7468
 2350TIP3    H228542   0.914   0.923  14.896 -1.4260 -0.9654 -0.9799
 2351TIP3   OH228543   1.222   5.269   6.637 -0.1053  0.1455 -0.2099
 2351TIP3    H128544   1.156   5.201   6.649 -0.5559  0.6077 -0.0505
 2351TIP3    H228545   1.264   5.247   6.553 -0.4338 -0.1679 -0.2939
 2352TIP3   OH228546   1.851   6.770  13.410 -0.4018 -0.1496 -0.7174
 2352TIP3    H128547   1.881   6.771  13.319  0.6371 -2.1332 -0.4290
 2352TIP3    H228548   1.870   6.858  13.443 -1.1679  0.7027 -2.5395
 2353TIP3   OH228549   0.439   3.050   3.829 -0.1667  0.2549  0.2827
 2353TIP3    H128550   0.526   3.061   3.866  1.0635  0.7526 -2.6294
 2353TIP3    H228551   0.432   2.956   3.812 -0.6623  0.0520  1.5376
 2354TIP3   OH228552   6.393   4.040  14.534 -0.0876  0.3186 -0.5743
 2354TIP3    H128553   6.473   4.077  14.571 -0.2078 -1.1682  1.2304
 2354TIP3    H228554   6.381   4.088  14.451  1.8690  1.5429 -0.1941
 2355TIP3   OH228555   5.940   0.125   5.859  0.4056  0.0744 -0.0831
 2355TIP3    H128556   5.997   0.090   5.927  1.3728  2.6215  0.4708
 2355TIP3    H228557   5.968   0.081   5.779  1.2864 -0.7396  0.6643
 2356TIP3   OH228558   6.152   0.354   0.103  0.0822 -0.3077 -0.2820
 2356TIP3    H128559   6.118   0.325   0.188 -0.5854  0.0127 -0.4412
 2356TIP3    H228560   6.232   0.302   0.091  2.0343  2.0009  2.0598
 2357TIP3   OH228561   1.646   3.531  15.068 -0.5423  0.1071 -0.7574
 2357TIP3    H128562   1.588   3.578  15.129  0.8614  0.7223  0.1237
 2357TIP3    H228563   1.589   3.466  15.026 -1.2053 -1.4192  2.3593
 2358TIP3   OH228564   0.211   3.632   2.126 -0.2046 -0.1374 -0.3903
 2358TIP3    H128565   0.287   3.600   2.174  1.1158 -1.4764 -3.2021
 2358TIP3    H228566   0.240   3.715   2.089 -0.9450  0.5208  0.5112
 2359TIP3   OH228567   3.672   2.602   5.062  1.4287 -0.1958  0.2006
 2359TIP3    H128568   3.706   2.691   5.052  0.1493  0.1297 -1.4016
 2359TIP3    H228569   3.606   2.610   5.132  0.2642  0.4368 -0.9422
 2360TIP3   OH228570   5.570   6.504  16.575 -0.3327  0.3958 -0.0485
 2360TIP3    H128571   5.576   6.559  16.653  1.9490  0.9306 -0.5897
 2360TIP3    H228572   5.631   6.542  16.513 -0.5339 -1.3078 -1.3419
 2361TIP3   OH228573   2.801   2.633  16.660 -1.0050  0.2840 -0.1055
 2361TIP3    H128574   2.841   2.552  16.627 -0.1256  0.0378  1.5324
 2361TIP3    H228575   2.722   2.605  16.705  0.4185  0.0589  2.3638
 2362TIP3   OH228576   5.110   5.961  12.145  0.0982  0.5431  0.3377
 2362TIP3    H128577   5.148   5.948  12.058 -0.2021 -0.1109  0.3065
 2362TIP3    H228578   5.135   6.050  12.169  2.2741 -0.1388  0.6368
 2363TIP3   OH228579   2.021   6.152  17.142  0.5722  0.1871 -0.0692
 2363TIP3    H128580   2.007   6.090  17.213 -1.9784 -0.6110 -1.2335
 2363TIP3    H228581   2.040   6.098  17.065  0.0559  0.8969 -0.7077
 2364TIP3   OH228582   4.687   1.007  14.603 -0.1307  0.6167  0.2755
 2364TIP3    H128583   4.680   0.913  14.588 -0.5902  0.6012  0.5788
 2364TIP3    H228584   4.598   1.035  14.622 -0.1482  1.2704 -0.7014
 2365TIP3   OH228585   0.313   3.279   0.821  0.4355  0.4811 -0.1920
 2365TIP3    H128586   0.345   3.263   0.910  1.3533  3.3563  0.0310
 2365TIP3    H228587   0.386   3.321   0.777 -1.2352  2.3571 -1.2365
 2366TIP3   OH228588   4.092   1.695   2.381 -0.6622  0.0601 -0.2678
 2366TIP3    H128589   4.137   1.679   2.298  1.7922  0.9619  0.8385
 2366TIP3    H228590   4.032   1.767   2.362  0.7876  1.1204 -0.9770
 2367TIP3   OH228591   1.469   3.608   4.218 -0.2241  0.3571 -0.0553
 2367TIP3    H128592   1.501   3.609   4.128  1.1888 -3.0850  0.3156
 2367TIP3    H228593   1.542   3.643   4.269  0.9713 -2.4239  0.2237
 2368TIP3   OH228594   2.269   0.187   3.477 -0.1044  0.5032  0.0052
 2368TIP3    H128595   2.291   0.225   3.392  1.0014 -0.3578 -0.1009
 2368TIP3    H228596   2.269   0.263   3.537 -2.2182  1.3020 -0.9908
 2369TIP3   OH228597   4.609   6.720   6.019  0.4003  0.2444 -0.3261
 2369TIP3    H128598   4.567   6.805   6.007  1.5682  0.7431 -0.9740
 2369TIP3    H228599   4.646   6.723   6.108 -2.8079 -1.0446  1.1176
 2370TIP3   OH228600   3.211   2.858  15.196 -0.0683  0.3152 -0.2506
 2370TIP3    H128601   3.226   2.943  15.238  1.5038  0.1265 -0.4209
 2370TIP3    H228602   3.175   2.803  15.266 -1.2131  1.1539 -0.1771
 2371TIP3   OH228603   6.759   1.900   2.667  0.1204 -0.0340 -0.0823
 2371TIP3    H128604   6.834   1.846   2.693  0.7464  1.6770  1.7963
 2371TIP3    H228605   6.789   1.948   2.590  0.6258 -0.0799  0.0842
 2372TIP3   OH228606   0.329   6.579   3.844 -0.0950 -0.6659  0.2666
 2372TIP3    H128607   0.298   6.658   3.799  1.0470 -0.4263 -0.1194
 2372TIP3    H228608   0.365   6.611   3.926  0.1065 -0.8217  0.2380
 2373TIP3   OH228609   3.855   6.277  11.188 -0.6817  0.6806 -0.3305
 2373TIP3    H128610   3.929   6.217  11.196  0.9527  2.7014  0.3723
 2373TIP3    H228611   3.831   6.273  11.096  1.0498  0.8126 -0.8117
 2374TIP3   OH228612   4.336   6.287   0.556 -0.9746 -0.0582 -0.3943
 2374TIP3    H128613   4.360   6.195   0.555 -0.8636 -0.0600  1.1029
 2374TIP3    H228614   4.419   6.333   0.540 -1.1367 -0.2240 -1.7526
 2375TIP3   OH228615   1.892   1.978   3.696 -0.3111  0.4402 -0.0233
 2375TIP3    H128616   1.947   1.990   3.774 -3.4370 -0.5403  2.4333
 2375TIP3    H228617   1.900   1.885   3.675 -1.9338  0.0203  1.1088
 2376TIP3   OH228618   4.287   5.029   0.062  0.3358 -0.6091 -0.5111
 2376TIP3    H128619   4.229   5.105   0.058  0.9512 -0.0176  1.3665
 2376TIP3    H228620   4.270   4.982  -0.019 -2.0788  0.0496 -0.4201
 2377TIP3   OH228621   5.431   5.899  17.198  0.6840  0.3552  0.1471
 2377TIP3    H128622   5.454   5.958  17.270  0.1550 -0.4654  0.9953
 2377TIP3    H228623   5.342   5.871  17.218  0.8846 -0.6259 -0.3290
 2378TIP3   OH228624   5.173   2.336   5.703 -0.3531 -0.0490  0.0270
 2378TIP3    H128625   5.159   2.319   5.609 -0.5309 -1.2243  0.2524
 2378TIP3    H228626   5.175   2.431   5.710 -0.2323  0.0535 -1.1928
 2379TIP3   OH228627   0.487   6.052  11.656 -1.1163 -0.1054 -0.0432
 2379TIP3    H128628   0.567   6.043  11.708 -1.3264  1.3736  0.5678
 2379TIP3    H228629   0.501   6.133  11.606 -1.7477 -0.4729 -0.8266
 2380TIP3   OH228630   1.905   5.404  14.077  0.1510 -0.2380  0.2763
 2380TIP3    H128631   1.845   5.331  14.089  1.6875 -1.5926 -0.0289
 2380TIP3    H228632   1.934   5.426  14.166 -0.3472  0.0507  0.3717
 2381TIP3   OH228633   3.501   1.979   4.544  0.3799 -0.2290 -0.0339
 2381TIP3    H128634   3.586   1.985   4.589  0.8235 -1.2523 -0.7205
 2381TIP3    H228635   3.452   1.913   4.594  0.1799 -0.0118  0.0557
 2382TIP3   OH228636   4.447   1.774  13.439 -0.0481  0.0658  0.3779
 2382TIP3    H128637   4.393   1.734  13.370  0.3905 -1.0105  0.6473
 2382TIP3    H228638   4.410   1.861  13.450  1.1062  0.9823 -2.5739
 2383TIP3   OH228639   2.227   3.615   3.291 -0.4288  0.0630  1.0439
 2383TIP3    H128640   2.173   3.590   3.216 -0.2601 -1.5773  1.4681
 2383TIP3    H228641   2.183   3.575   3.366  1.1225 -0.8780  1.4497
 2384TIP3   OH228642   5.561   5.093   1.524  0.0385 -0.5429 -0.0229
 2384TIP3    H128643   5.494   5.041   1.569  1.9798 -1.7566  1.5514
 2384TIP3    H228644   5.639   5.038   1.524  1.1934  1.0172 -1.4282
 2385TIP3   OH228645   2.256   1.933   3.136  0.2252 -0.6126 -0.4632
 2385TIP3    H128646   2.265   1.864   3.202 -0.6635  0.3883  0.7474
 2385TIP3    H228647   2.314   1.906   3.065  0.8902 -1.9364  0.5453
 2386TIP3   OH228648   4.266   0.255   2.387 -0.1285 -0.5475  0.6301
 2386TIP3    H128649   4.226   0.253   2.474  0.8165  0.6793  1.1060
 2386TIP3    H228650   4.346   0.305   2.398 -0.4807  0.4678 -1.1668
 2387TIP3   OH228651   4.400   5.063  15.991 -0.2205 -0.3506  0.0050
 2387TIP3    H128652   4.390   5.108  15.907  1.3018 -0.4987 -0.2741
 2387TIP3    H228653   4.321   5.085  16.039 -1.0602 -0.1717 -1.4243
 2388TIP3   OH228654   3.061   2.572  15.093 -0.3716  1.2213 -0.5046
 2388TIP3    H128655   3.019   2.659  15.090 -0.4903  1.1959  0.3293
 2388TIP3    H228656   3.136   2.580  15.035  0.4882  2.3628  0.7205
 2389TIP3   OH228657   2.189   1.674   1.411  0.0594 -0.1752  0.1734
 2389TIP3    H128658   2.107   1.664   1.363 -0.5168  0.9336  0.8954
 2389TIP3    H228659   2.187   1.606   1.477  0.2672 -0.8924 -0.5467
 2390TIP3   OH228660   0.049   4.527  13.029  0.5503 -1.0658  0.4324
 2390TIP3    H128661  -0.040   4.505  13.058  0.1622  1.5594  1.3659
 2390TIP3    H228662   0.104   4.456  13.063 -1.0041 -2.0113  1.0032
 2391TIP3   OH228663   5.412   0.827  14.400  0.3934  0.2875  0.8822
 2391TIP3    H128664   5.375   0.853  14.484 -1.4185  0.3617  0.0685
 2391TIP3    H228665   5.355   0.757  14.369  1.0344  0.2796 -0.3144
 2392TIP3   OH228666   6.319   5.609   2.489  0.4548 -0.2787  0.0908
 2392TIP3    H128667   6.233   5.639   2.516 -0.2185 -0.8006 -1.4267
 2392TIP3    H228668   6.376   5.685   2.498 -0.1348  0.0439  1.1684
 2393TIP3   OH228669   6.439   6.018  14.694  0.3001 -0.0312 -0.7042
 2393TIP3    H128670   6.495   5.949  14.658  1.0953  0.6377 -0.7494
 2393TIP3    H228671   6.371   6.030  14.628  0.3978 -0.4804 -0.8879
 2394TIP3   OH228672   3.291   1.576   2.150 -0.0574  0.0031 -0.0376
 2394TIP3    H128673   3.208   1.592   2.195  0.8194 -0.9086  1.9908
 2394TIP3    H228674   3.325   1.495   2.190  0.5435 -1.1382 -2.7005
 2395TIP3   OH228675   4.660   0.375   2.851 -0.1847  0.0855  0.2925
 2395TIP3    H128676   4.659   0.354   2.758 -0.3650  0.6023  0.1746
 2395TIP3    H228677   4.683   0.293   2.894 -0.4217 -0.2347 -0.1868
 2396TIP3   OH228678   3.822   4.030   5.697  0.3462 -0.4038  0.0045
 2396TIP3    H128679   3.828   4.124   5.681  0.3102 -0.0098  2.1658
 2396TIP3    H228680   3.912   4.002   5.712  0.3427 -0.6972 -0.5042
 2397TIP3   OH228681   1.678   3.031   2.192 -0.1298 -0.0628  0.5628
 2397TIP3    H128682   1.705   3.001   2.105 -0.3365 -1.0269  0.8256
 2397TIP3    H228683   1.756   3.019   2.247 -0.2523 -0.2439  0.6975
 2398TIP3   OH228684   4.857   6.453   0.324  0.1186 -0.0378  0.4658
 2398TIP3    H128685   4.838   6.524   0.385 -0.1561  1.2620 -1.0909
 2398TIP3    H228686   4.777   6.444   0.272  0.3869 -1.0378  0.2178
 2399TIP3   OH228687   5.229   2.661   5.692  0.1242 -0.2758 -0.2315
 2399TIP3    H128688   5.156   2.722   5.684 -0.9642 -1.4265  0.6302
 2399TIP3    H228689   5.233   2.640   5.785  1.3116 -0.5350 -0.3290
 2400TIP3   OH228690   0.861   4.136  10.405  0.1332 -0.2128 -0.2119
 2400TIP3    H128691   0.765   4.145  10.404  0.1264 -0.0667  1.1377
 2400TIP3    H228692   0.886   4.140  10.313 -1.0694  0.7797 -0.5055
 2401TIP3   OH228693   6.059   3.518  15.069  0.1479 -0.1083  0.1376
 2401TIP3    H128694   6.148   3.550  15.086  0.3714 -0.4063 -0.4401
 2401TIP3    H228695   6.003   3.594  15.082  0.4162 -0.0935  1.1889
 2402TIP3   OH228696   6.680   2.703  11.453  0.2404  0.0605  0.5246
 2402TIP3    H128697   6.734   2.749  11.389 -0.7458  2.2822  1.2364
 2402TIP3    H228698   6.597   2.688  11.407  0.0956  0.2212  0.7296
 2403TIP3   OH228699   0.735   6.220  15.124  0.0425 -0.2219 -0.5333
 2403TIP3    H128700   0.749   6.126  15.129  0.5871 -0.1690 -1.0326
 2403TIP3    H228701   0.735   6.250  15.215 -0.4536 -0.7465 -0.3583
 2404TIP3   OH228702   2.882   2.216   1.725  0.6589 -0.1578  0.0108
 2404TIP3    H128703   2.846   2.255   1.805 -0.3765 -2.8572  0.9341
 2404TIP3    H228704   2.935   2.285   1.686 -0.8147  2.0212  1.7342
 2405TIP3   OH228705   0.623   2.962   2.312  0.4782 -0.4347 -0.2834
 2405TIP3    H128706   0.559   2.933   2.247  0.8932 -0.4191 -0.7032
 2405TIP3    H228707   0.574   2.966   2.394 -0.0101 -0.6108 -0.5646
 2406TIP3   OH228708   5.535   0.264   2.025  0.0156  0.1045  0.1429
 2406TIP3    H128709   5.445   0.233   2.039 -0.0121 -0.3703 -1.1043
 2406TIP3    H228710   5.570   0.208   1.956  1.1327  0.5777  0.3154
 2407TIP3   OH228711   3.608   6.410   6.001  0.7228 -0.4777  0.7842
 2407TIP3    H128712   3.692   6.442   5.967 -1.0122  0.6482 -2.6487
 2407TIP3    H228713   3.630   6.328   6.045  3.7957  0.3952  1.0353
 2408TIP3   OH228714   4.870   4.748  15.402 -0.0860  0.1898  0.5012
 2408TIP3    H128715   4.867   4.749  15.307 -0.4315 -0.1943  0.5071
 2408TIP3    H228716   4.846   4.658  15.426 -1.6204  0.7211  0.9973
 2409TIP3   OH228717   0.270   4.986  11.352  0.1566  0.0591 -1.0277
 2409TIP3    H128718   0.321   4.995  11.272  0.2906  1.9938 -0.7402
 2409TIP3    H228719   0.181   4.965  11.322  0.4858 -0.4800 -1.6241
 2410TIP3   OH228720   2.305   1.378  15.562  0.4790 -0.0931  0.4008
 2410TIP3    H128721   2.376   1.366  15.625 -0.5766 -1.4368  1.3750
 2410TIP3    H228722   2.229   1.398  15.616 -0.3461 -0.8152 -0.4860
 2411TIP3   OH228723   5.375   6.687   6.129  0.2635  0.4728 -0.5501
 2411TIP3    H128724   5.376   6.595   6.100 -6.0497 -0.2293  0.7026
 2411TIP3    H228725   5.375   6.682   6.224 -0.5972  1.7169 -0.4719
 2412TIP3   OH228726   5.420   5.604   4.994  0.3410  0.4818  0.6666
 2412TIP3    H128727   5.481   5.676   4.979  1.9572 -0.5391  2.0679
 2412TIP3    H228728   5.376   5.627   5.076  1.8556 -0.7495  1.8526
 2413TIP3   OH228729   4.276   5.860  15.805 -0.4706 -0.2697  0.5881
 2413TIP3    H128730   4.266   5.946  15.845 -1.1074 -0.3684  0.6558
 2413TIP3    H228731   4.201   5.851  15.747  1.1286  0.3860 -1.6370
 2414TIP3   OH228732   3.694   3.723  12.533 -0.0048  0.2037  0.2690
 2414TIP3    H128733   3.624   3.730  12.468 -1.8652  1.5506  2.3312
 2414TIP3    H228734   3.649   3.700  12.615  2.0218  0.4998  1.5151
 2415TIP3   OH228735   2.626   5.553  16.046 -0.1051  0.4807  0.0267
 2415TIP3    H128736   2.648   5.624  16.107 -1.0298  1.1653 -0.4211
 2415TIP3    H228737   2.608   5.478  16.103  0.2405  0.7721  0.5313
 2416TIP3   OH228738   4.927   2.864   5.250 -0.2379 -0.5509 -0.7611
 2416TIP3    H128739   4.833   2.867   5.236 -0.0904  0.6982 -1.5831
 2416TIP3    H228740   4.943   2.927   5.320  0.1783  0.6245 -1.8798
 2417TIP3   OH228741   5.519   2.219  11.473 -0.0341 -0.2729 -0.2553
 2417TIP3    H128742   5.596   2.254  11.427 -0.0727 -0.3150 -0.3517
 2417TIP3    H228743   5.542   2.226  11.566  0.5924 -1.4678 -0.3193
 2418TIP3   OH228744   2.917   4.054   5.235 -0.3139 -0.3453 -0.1058
 2418TIP3    H128745   2.829   4.084   5.257 -0.6231 -1.7773  0.6694
 2418TIP3    H228746   2.974   4.129   5.254 -1.0804 -0.2045  1.6499
 2419TIP3   OH228747   1.325   4.258   2.630  0.0149 -0.0847 -0.4496
 2419TIP3    H128748   1.311   4.166   2.653 -2.2787 -0.1605 -1.9934
 2419TIP3    H228749   1.308   4.263   2.536  1.2863  1.7179 -0.6216
 2420TIP3   OH228750   4.194   4.382  11.254  0.2311 -0.2731  0.4684
 2420TIP3    H128751   4.231   4.448  11.194  0.6199  0.6035  1.6588
 2420TIP3    H228752   4.116   4.425  11.291  0.4111 -0.5349  1.1523
 2421TIP3   OH228753   3.782   0.620   4.982 -0.4441 -0.0102  0.0529
 2421TIP3    H128754   3.846   0.686   4.957 -0.5022  0.0496  0.0630
 2421TIP3    H228755   3.779   0.624   5.078  1.8760 -2.1822  0.2798
 2422TIP3   OH228756   5.502   0.614   4.320  0.2280 -0.0847  0.5828
 2422TIP3    H128757   5.421   0.659   4.299  0.1232 -0.2323  0.6665
 2422TIP3    H228758   5.519   0.637   4.411 -0.1251 -0.6681  0.7980
 2423TIP3   OH228759   6.242   1.531  15.615  0.2983  0.2951  0.7196
 2423TIP3    H128760   6.159   1.559  15.575  0.0491  0.4321  1.3211
 2423TIP3    H228761   6.300   1.607  15.605  0.7359 -0.2351 -0.7842
 2424TIP3   OH228762   4.803   1.846   2.847  0.7626  0.3575  0.2420
 2424TIP3    H128763   4.715   1.808   2.841  1.5088 -2.0033  3.2210
 2424TIP3    H228764   4.810   1.877   2.937  3.5663 -0.9686  0.5217
 2425TIP3   OH228765   0.831   1.823  11.969  0.1913 -0.4126 -0.3379
 2425TIP3    H128766   0.879   1.818  12.052  0.6755  0.0857 -0.5806
 2425TIP3    H228767   0.889   1.781  11.905  1.0068  1.5368 -0.9298
 2426TIP3   OH228768   5.683   1.037  13.929 -0.1890  0.1119  0.2850
 2426TIP3    H128769   5.619   1.028  13.858 -0.5310  2.8086  0.1959
 2426TIP3    H228770   5.765   1.004  13.892 -0.9866 -1.1378 -0.4005
 2427TIP3   OH228771   3.287   0.147  10.919  0.2196 -0.4490 -0.5895
 2427TIP3    H128772   3.304   0.222  10.861 -0.5208  0.8079  0.7848
 2427TIP3    H228773   3.367   0.095  10.915  1.3079  1.1810 -0.4313
 2428TIP3   OH228774   4.850   4.104   4.983  0.1106 -0.2315  0.0221
 2428TIP3    H128775   4.912   4.174   5.001  0.5205 -0.5839 -0.0220
 2428TIP3    H228776   4.903   4.024   4.983 -0.2716 -0.4833 -0.4392
 2429TIP3   OH228777   1.957   1.364  14.244 -0.4184 -0.2451  0.1834
 2429TIP3    H128778   1.992   1.277  14.225  0.9480  0.1277  0.9446
 2429TIP3    H228779   2.023   1.425  14.212 -0.7844  0.4912  0.8122
 2430TIP3   OH228780   5.362   6.170   2.264 -0.1383 -0.0229  0.0559
 2430TIP3    H128781   5.441   6.120   2.243  0.3708  0.8922 -0.2720
 2430TIP3    H228782   5.298   6.105   2.290  0.5377 -0.8326 -0.2826
 2431TIP3   OH228783   5.254   6.665  12.507  0.3784 -0.5849  0.2178
 2431TIP3    H128784   5.349   6.668  12.509  0.3567  0.1743  0.3418
 2431TIP3    H228785   5.230   6.705  12.423  0.1129  1.1330  1.0866
 2432TIP3   OH228786   0.182   1.439  16.570  0.0218 -0.0985 -0.4123
 2432TIP3    H128787   0.263   1.489  16.573 -0.2529  0.2681  1.6320
 2432TIP3    H228788   0.184   1.394  16.486  1.2622  1.7097 -1.3712
 2433TIP3   OH228789   3.409   1.786  13.029  0.8757  0.2499 -0.3110
 2433TIP3    H128790   3.406   1.706  13.082  2.4380  0.3279 -0.0795
 2433TIP3    H228791   3.438   1.757  12.943  0.4985  0.4360 -0.5011
 2434TIP3   OH228792   4.940   0.400   2.121  0.1250 -0.1579 -0.0079
 2434TIP3    H128793   4.903   0.314   2.136 -0.7347  0.0700 -0.7826
 2434TIP3    H228794   4.922   0.449   2.202  1.0520 -0.8429  0.6239
 2435TIP3   OH228795   0.030   1.949  13.588 -0.0323  0.3099  0.5496
 2435TIP3    H128796   0.046   1.940  13.682  0.3348  0.3191  0.4891
 2435TIP3    H228797  -0.064   1.931  13.577  0.0994 -0.5547  0.8044
 2436TIP3   OH228798   6.074   6.258   3.463 -0.5798 -0.0335  0.6298
 2436TIP3    H128799   6.004   6.304   3.418  0.4695 -0.2175 -1.2480
 2436TIP3    H228800   6.149   6.317   3.459 -0.0848 -0.6242  0.9262
 2437TIP3   OH228801   3.861   0.136   0.590  0.3215 -0.1989 -0.3938
 2437TIP3    H128802   3.925   0.106   0.655 -0.3263 -0.0361  0.3364
 2437TIP3    H228803   3.839   0.225   0.618 -0.1362 -0.2134 -0.6952
 2438TIP3   OH228804   3.197   5.336   1.220  0.3438 -0.0604  0.9851
 2438TIP3    H128805   3.189   5.419   1.174 -0.0978  0.1711  1.4791
 2438TIP3    H228806   3.118   5.330   1.274 -1.1986 -2.2917 -1.4321
 2439TIP3   OH228807   6.214   4.493   6.805 -0.7424 -0.0231  0.1989
 2439TIP3    H128808   6.240   4.412   6.850  0.8680  0.4138  0.0769
 2439TIP3    H228809   6.262   4.491   6.723 -0.9456  0.9081  0.0514
 2440TIP3   OH228810   3.876   5.149  11.636  0.3095  0.4372 -0.4371
 2440TIP3    H128811   3.810   5.185  11.695  0.7539  1.0137 -0.2914
 2440TIP3    H228812   3.918   5.225  11.597  2.3017  0.1251  1.0301
 2441TIP3   OH228813   5.459   3.081  16.538 -0.5804 -0.2421  0.0682
 2441TIP3    H128814   5.442   3.173  16.522 -0.7308 -0.1872  0.5575
 2441TIP3    H228815   5.402   3.057  16.611  1.1126 -0.1371  1.4844
 2442TIP3   OH228816   2.651   5.509  12.615 -0.3141 -0.5370  0.5048
 2442TIP3    H128817   2.675   5.586  12.563  0.8025 -1.3997 -0.2802
 2442TIP3    H228818   2.559   5.522  12.636 -0.5431  0.2441 -0.9465
 2443TIP3   OH228819   5.526   3.241   1.860 -0.0542  0.3110 -0.5240
 2443TIP3    H128820   5.617   3.219   1.837  0.4317  0.9468  0.7456
 2443TIP3    H228821   5.478   3.160   1.843  0.6095  0.2116 -1.9792
 2444TIP3   OH228822   5.432   1.326  15.530  0.2194  0.2583 -0.3540
 2444TIP3    H128823   5.518   1.368  15.532  0.5855 -0.4988 -0.1619
 2444TIP3    H228824   5.382   1.371  15.599 -0.2568  2.1756 -1.8673
 2445TIP3   OH228825   5.396   0.092   4.184 -0.4374  1.0850  0.3173
 2445TIP3    H128826   5.359   0.009   4.216 -1.4553  1.5542  0.3846
 2445TIP3    H228827   5.346   0.160   4.230 -0.0544  1.7394 -0.2244
 2446TIP3   OH228828   3.499   2.206   3.388 -0.1140  0.0712  0.6670
 2446TIP3    H128829   3.572   2.207   3.449  1.7740  1.2160 -1.5127
 2446TIP3    H228830   3.479   2.298   3.372 -0.0351 -0.1776 -1.0106
 2447TIP3   OH228831   5.486   5.292  16.469  0.2339 -0.4750  0.2282
 2447TIP3    H128832   5.397   5.313  16.497  0.3691  2.2338 -1.2967
 2447TIP3    H228833   5.474   5.239  16.390 -0.0742  2.6353 -1.9041
 2448TIP3   OH228834   1.948   6.289  12.896  0.0737  0.3830 -0.2165
 2448TIP3    H128835   1.926   6.362  12.838 -0.3184 -0.1664 -0.7708
 2448TIP3    H228836   1.934   6.211  12.842  0.4882 -0.1004  0.3686
 2449TIP3   OH228837   2.673   2.846  14.001  0.1225 -0.1499 -0.0961
 2449TIP3    H128838   2.629   2.762  14.012  0.8776 -0.5160  0.1912
 2449TIP3    H228839   2.659   2.892  14.084  0.1248 -0.1867 -0.0753
 2450TIP3   OH228840   0.945   4.053   3.789 -0.5797  0.2787 -0.5677
 2450TIP3    H128841   1.021   4.060   3.731  0.4172 -0.2557  0.6509
 2450TIP3    H228842   0.980   4.070   3.877 -1.6734 -0.9945  0.1344
 2451TIP3   OH228843   4.504   5.591   0.592  0.0603  0.3187 -0.6564
 2451TIP3    H128844   4.583   5.608   0.644 -0.7812 -1.4540  1.2853
 2451TIP3    H228845   4.443   5.660   0.617 -0.9581 -1.4919  2.1207
 2452TIP3   OH228846   2.145   3.702   2.986 -0.6540  0.2432  0.3437
 2452TIP3    H128847   2.073   3.667   2.933  0.3935 -0.4361 -0.6508
 2452TIP3    H228848   2.127   3.796   2.992 -0.4067  0.4495 -1.8214
 2453TIP3   OH228849   0.434   4.982  12.028 -0.6712 -0.0313 -0.2575
 2453TIP3    H128850   0.374   4.921  12.072 -1.3488  0.8087  0.0040
 2453TIP3    H228851   0.489   5.015  12.099 -1.6618  1.2063 -0.0319
 2454TIP3   OH228852   6.624   5.307   4.526  0.1498 -0.8761  0.3377
 2454TIP3    H128853   6.673   5.361   4.588  1.6608 -0.5452 -1.1068
 2454TIP3    H228854   6.532   5.320   4.549  0.4346  2.6768 -0.2468
 2455TIP3   OH228855   1.728   5.104  13.763 -0.2265 -0.4249  0.0846
 2455TIP3    H128856   1.788   5.117  13.690  0.9522 -0.3442  1.0568
 2455TIP3    H228857   1.678   5.186  13.767  1.0497  0.3317  0.5955
 2456TIP3   OH228858   5.697   3.422   2.177  0.5540  0.2663 -0.2563
 2456TIP3    H128859   5.682   3.417   2.272  0.4849  0.5157 -0.2535
 2456TIP3    H228860   5.750   3.345   2.157 -0.7185 -0.6190 -0.2624
 2457TIP3   OH228861   4.944   0.922   5.900  0.1205  0.1912  0.0891
 2457TIP3    H128862   5.031   0.885   5.914  0.9740  2.1933  0.1902
 2457TIP3    H228863   4.932   0.984   5.971 -2.5126 -1.9504  1.6091
 2458TIP3   OH228864   0.739   1.070  16.381 -0.5712  0.2154 -0.0913
 2458TIP3    H128865   0.659   1.020  16.394 -0.5223 -0.1173 -1.0346
 2458TIP3    H228866   0.809   1.005  16.382 -0.4324  0.3554 -0.5024
 2459TIP3   OH228867   5.047   6.758   3.336  0.0844 -0.3333  0.0319
 2459TIP3    H128868   5.084   6.828   3.282  1.1756 -0.8664  0.0581
 2459TIP3    H228869   5.068   6.677   3.288  1.5187 -0.8524  1.4693
 2460TIP3   OH228870   5.384   6.113  16.225 -0.8340 -0.6955 -0.1710
 2460TIP3    H128871   5.394   6.044  16.290 -0.3864 -0.2940  0.1847
 2460TIP3    H228872   5.289   6.128  16.220 -0.9402 -1.3961 -0.3173
 2461TIP3   OH228873   3.705   5.722  17.255 -0.1782  0.2007  0.0051
 2461TIP3    H128874   3.706   5.803  17.306  0.9243  0.1720  0.0567
 2461TIP3    H228875   3.790   5.721  17.212 -0.7442 -0.2389 -1.1057
 2462TIP3   OH228876   5.176   0.299   1.978 -0.0022 -0.1091 -0.8187
 2462TIP3    H128877   5.098   0.332   2.022  1.3575  3.3146 -0.8736
 2462TIP3    H228878   5.213   0.236   2.041 -1.0116  0.6801  0.6016
 2463TIP3   OH228879   6.467   0.150  14.302 -0.6860  0.2942 -0.3441
 2463TIP3    H128880   6.549   0.114  14.337  0.7171  1.8918 -1.8855
 2463TIP3    H228881   6.434   0.080  14.245 -0.1383 -0.1727 -0.0975
 2464TIP3   OH228882   0.946   4.550  16.938 -0.2881  0.0357 -0.5073
 2464TIP3    H128883   1.027   4.507  16.912  0.6800  0.2406  2.0447
 2464TIP3    H228884   0.878   4.485  16.920  0.8672 -1.6068  0.8393
 2465TIP3   OH228885   6.582   0.705  17.108  0.2761 -0.0260  0.2987
 2465TIP3    H128886   6.663   0.662  17.080  0.3566 -0.0251  0.5333
 2465TIP3    H228887   6.577   0.784  17.054 -0.1577 -0.6166 -0.5312
 2466TIP3   OH228888   4.585   2.214   5.442  0.7107 -0.0809 -0.3928
 2466TIP3    H128889   4.564   2.171   5.525  0.0567 -1.5474 -1.3076
 2466TIP3    H228890   4.679   2.201   5.431  0.6290 -0.7135 -0.3465
 2467TIP3   OH228891   5.267   1.819  13.813  0.1546 -0.4632  0.2645
 2467TIP3    H128892   5.284   1.901  13.767  1.8692  0.3793  2.3016
 2467TIP3    H228893   5.177   1.796  13.790  0.1182  1.2685 -1.4111
 2468TIP3   OH228894   5.071   2.736   1.144 -0.1091  0.3448 -0.3510
 2468TIP3    H128895   4.992   2.712   1.193 -1.1424  4.9994  0.5211
 2468TIP3    H228896   5.141   2.738   1.209  0.4475 -2.2596 -0.8331
 2469TIP3   OH228897   1.444   6.419  15.437 -0.7000 -0.3909  0.8119
 2469TIP3    H128898   1.402   6.339  15.468  0.5914 -2.3885 -2.3795
 2469TIP3    H228899   1.374   6.467  15.392 -0.2755 -2.4932 -2.2449
 2470TIP3   OH228900   5.078   2.564   3.595  0.1630 -1.0316  0.3156
 2470TIP3    H128901   5.066   2.480   3.639 -0.0677 -1.9165 -1.4129
 2470TIP3    H228902   4.999   2.575   3.542  0.1257  0.3517  0.6308
 2471TIP3   OH228903   0.236   2.149   0.808  0.2840  0.0418  0.4073
 2471TIP3    H128904   0.198   2.192   0.731 -1.7018  0.5701  1.6323
 2471TIP3    H228905   0.272   2.067   0.774 -1.9712 -0.4767 -0.8704
 2472TIP3   OH228906   5.304   0.065  11.459  0.1351  0.0402  0.1909
 2472TIP3    H128907   5.327   0.129  11.392 -0.2692 -0.0900 -0.0725
 2472TIP3    H228908   5.384   0.014  11.472  0.1514 -0.0706 -0.3421
 2473TIP3   OH228909   3.664   2.463  11.641 -0.1325  0.4437  0.2723
 2473TIP3    H128910   3.645   2.470  11.548  0.4823  1.1357  0.1931
 2473TIP3    H228911   3.599   2.519  11.683 -0.5013  0.0182  0.2756
 2474TIP3   OH228912   6.113   3.819  11.506 -0.0984 -0.1486 -0.4305
 2474TIP3    H128913   6.155   3.899  11.538  0.5362  0.0463 -1.7142
 2474TIP3    H228914   6.183   3.753  11.507 -0.5228 -0.5986  0.2549
 2475TIP3   OH228915   3.411   2.006  15.511  0.1053  0.3028  0.0127
 2475TIP3    H128916   3.393   1.998  15.604  1.8368  0.0861  0.3433
 2475TIP3    H228917   3.462   1.929  15.489 -1.8144 -0.5823 -1.5307
 2476TIP3   OH228918   6.543   4.555  12.558  0.1569 -0.3409 -0.2631
 2476TIP3    H128919   6.470   4.592  12.507  0.5035 -0.1237 -0.6038
 2476TIP3    H228920   6.618   4.561  12.499  0.7213  0.6163  0.5636
 2477TIP3   OH228921   0.493   5.230  14.591 -0.1906  0.7649 -0.0812
 2477TIP3    H128922   0.506   5.282  14.670 -0.5830  0.5338  0.1434
 2477TIP3    H228923   0.403   5.251  14.563 -2.3887 -3.6725  2.9982
 2478TIP3   OH228924   2.520   2.178   3.115  0.1572 -0.2634  0.0908
 2478TIP3    H128925   2.612   2.168   3.139  0.2866  0.9332  0.0905
 2478TIP3    H228926   2.478   2.213   3.194 -0.1864 -0.2378 -0.1011
 2479TIP3   OH228927   1.513   4.031   3.554  0.2233  0.3232 -0.2240
 2479TIP3    H128928   1.495   4.005   3.464  3.5976  0.5082 -1.0027
 2479TIP3    H228929   1.553   4.118   3.547  1.9360 -0.3071  1.2913
 2480TIP3   OH228930   0.049   6.789   4.020  0.5350 -0.1783 -0.3145
 2480TIP3    H128931   0.019   6.862   3.965  1.6293 -1.3012 -2.4524
 2480TIP3    H228932   0.129   6.822   4.062 -1.3048  1.3523  2.1873
 2481TIP3   OH228933   3.283   2.594  17.035  0.2266 -0.7560  1.0196
 2481TIP3    H128934   3.377   2.577  17.042  0.3712 -0.6952 -0.6033
 2481TIP3    H228935   3.275   2.655  16.962 -1.1184 -1.1306  0.8383
 2482TIP3   OH228936   4.815   6.489   2.006  0.3820 -0.1400 -0.3610
 2482TIP3    H128937   4.818   6.416   1.943  1.2295 -0.1413 -0.3134
 2482TIP3    H228938   4.887   6.472   2.066  0.0001  0.2391  0.2105
 2483TIP3   OH228939   4.532   0.308  13.042  0.2711  0.7009 -0.0491
 2483TIP3    H128940   4.515   0.314  12.948  0.4868 -1.9521 -0.3046
 2483TIP3    H228941   4.450   0.274  13.079  0.8405 -0.1601  0.4386
 2484TIP3   OH228942   2.170   6.558  13.095 -0.3635  0.4084  0.2490
 2484TIP3    H128943   2.188   6.642  13.053 -0.1119  0.2802  0.1041
 2484TIP3    H228944   2.250   6.507  13.084  0.3520  1.0210  2.4588
 2485TIP3   OH228945   3.710   2.477   3.583 -0.4998  0.3715 -0.4373
 2485TIP3    H128946   3.639   2.437   3.633 -2.2262  2.3228 -1.2883
 2485TIP3    H228947   3.671   2.553   3.541  2.0161  1.3216 -1.1791
 2486TIP3   OH228948   3.858   6.506  11.353  0.4346 -0.7107  0.2653
 2486TIP3    H128949   3.856   6.527  11.260 -0.5411  0.5124  0.5503
 2486TIP3    H228950   3.881   6.413  11.356  0.1564 -0.8402 -1.2079
 2487TIP3   OH228951   2.291   0.323   5.906 -0.2305 -0.2317  0.1959
 2487TIP3    H128952   2.378   0.341   5.870 -1.3835 -0.4438 -2.8212
 2487TIP3    H228953   2.307   0.305   5.999  2.2216  6.1427  1.2910
 2488TIP3   OH228954   2.694   6.193  16.817 -0.6525 -0.0942  0.2348
 2488TIP3    H128955   2.711   6.205  16.911 -2.7771 -2.8817  1.0406
 2488TIP3    H228956   2.604   6.159  16.814 -0.1825 -1.1488 -2.7486
 2489TIP3   OH228957   2.224   4.788  14.280 -0.5150  0.2254  0.1888
 2489TIP3    H128958   2.312   4.796  14.319 -0.7380  1.4652  0.4464
 2489TIP3    H228959   2.199   4.697  14.299  0.1256  0.2744  1.3842
 2490TIP3   OH228960   4.823   5.630  11.353 -0.2677  0.0601 -0.2334
 2490TIP3    H128961   4.918   5.630  11.358 -0.1689  2.9902 -1.2289
 2490TIP3    H228962   4.795   5.701  11.411 -1.7063  0.3925 -1.2735
 2491TIP3   OH228963   3.684   2.536   5.623  0.4704  0.3917  0.2377
 2491TIP3    H128964   3.637   2.619   5.615  1.4339  0.8085 -1.3897
 2491TIP3    H228965   3.632   2.474   5.572  0.4616  0.3129  0.3430
 2492TIP3   OH228966   5.905   4.710   0.557 -0.6282 -0.6086  0.0703
 2492TIP3    H128967   5.908   4.692   0.463 -2.5358 -0.7583  0.0162
 2492TIP3    H228968   5.850   4.640   0.593 -2.2669  1.0625  0.8695
 2493TIP3   OH228969   3.323   3.515  16.404 -0.1274 -0.1579 -0.3504
 2493TIP3    H128970   3.410   3.487  16.374  0.4830  0.8857  0.4140
 2493TIP3    H228971   3.275   3.433  16.415  1.6532 -0.9608  1.8810
 2494TIP3   OH228972   0.381   4.526   4.121 -0.1590 -0.1312 -0.1240
 2494TIP3    H128973   0.394   4.619   4.139 -0.4349 -0.1278  0.0435
 2494TIP3    H228974   0.287   4.516   4.107 -0.4288 -0.7564  1.9446
 2495TIP3   OH228975   5.415   1.836   2.259  0.0223 -0.0702  0.5088
 2495TIP3    H128976   5.352   1.766   2.243 -1.2734  1.2865 -0.4751
 2495TIP3    H228977   5.407   1.855   2.352 -0.1029 -0.7671  0.6386
 2496TIP3   OH228978   1.557   6.110   2.916 -0.9186  0.0335 -0.3365
 2496TIP3    H128979   1.480   6.133   2.968 -0.2235 -0.8099  1.0890
 2496TIP3    H228980   1.630   6.123   2.976  0.2226  2.3146 -2.1195
 2497TIP3   OH228981   1.759   1.226   0.024 -0.0338 -0.3856  0.6053
 2497TIP3    H128982   1.748   1.319   0.003 -0.7690 -0.8750 -1.2656
 2497TIP3    H228983   1.819   1.193  -0.042 -0.8132 -1.5272  0.4513
 2498TIP3   OH228984   2.071   4.723  11.068 -0.7985  0.1511  0.3009
 2498TIP3    H128985   2.034   4.758  11.150 -1.6814 -0.7449  0.2870
 2498TIP3    H228986   2.015   4.760  10.999 -1.8412 -1.3975  0.2960
 2499TIP3   OH228987   0.792   0.056  14.779 -0.2368  0.6282  0.1566
 2499TIP3    H128988   0.857   0.116  14.815  1.3242 -0.1719 -1.2925
 2499TIP3    H228989   0.711   0.107  14.777  0.6012  2.0128  0.8682
 2500TIP3   OH228990   5.257   3.433   4.133 -0.0556  0.2729  0.0144
 2500TIP3    H128991   5.161   3.438   4.125  0.0257 -0.3437 -1.6014
 2500TIP3    H228992   5.285   3.525   4.130 -0.5724  0.4400  0.1337
 2501TIP3   OH228993   6.605   6.178  12.111 -0.0820 -0.4380 -0.0037
 2501TIP3    H128994   6.539   6.181  12.180 -0.3364  1.7133 -0.3233
 2501TIP3    H228995   6.681   6.223  12.149  0.7413 -1.6733 -0.1439
 2502TIP3   OH228996   2.472   2.632   5.805  0.4676 -0.6386  0.1286
 2502TIP3    H128997   2.387   2.606   5.841  1.8852 -3.4370  1.5125
 2502TIP3    H228998   2.501   2.556   5.754  1.8437  0.5549 -0.9177
 2503TIP3   OH228999   0.315   0.569  16.585 -0.0433  0.2694 -0.2294
 2503TIP3    H129000   0.383   0.559  16.519  1.7900  1.8587  1.3446
 2503TIP3    H229001   0.328   0.657  16.620 -0.8523 -0.6028  2.3671
 2504TIP3   OH229002   1.332   6.236   0.033 -0.1731 -0.7634 -0.0681
 2504TIP3    H129003   1.292   6.188  -0.039  0.2749  0.1827 -0.9674
 2504TIP3    H229004   1.282   6.211   0.110 -1.1996 -1.1347 -0.8508
 2505TIP3   OH229005   5.482   3.455   0.547 -0.1010  0.2100  0.1674
 2505TIP3    H129006   5.518   3.495   0.626 -1.4365  1.3892  0.1929
 2505TIP3    H229007   5.447   3.370   0.576 -1.9807  1.3052  1.1602
 2506TIP3   OH229008   6.243   2.414   2.343 -0.3942  0.2351  0.0634
 2506TIP3    H129009   6.158   2.392   2.382 -1.2494 -0.3280 -1.9982
 2506TIP3    H229010   6.300   2.340   2.365 -0.6463  0.2693  0.8389
 2507TIP3   OH229011   4.414   2.690   4.070  0.3257  0.2052  0.6711
 2507TIP3    H129012   4.439   2.598   4.070 -1.7191 -0.3738  0.8451
 2507TIP3    H229013   4.393   2.709   4.162 -1.9611  0.0402  0.2295
 2508TIP3   OH229014   1.104   2.367  15.672 -0.4068  0.4055 -0.6144
 2508TIP3    H129015   1.063   2.442  15.630 -0.4818 -0.7028 -2.5934
 2508TIP3    H229016   1.197   2.375  15.651 -0.4397 -0.1539 -0.9808
 2509TIP3   OH229017   4.833   6.819  12.513 -0.6437 -0.3763 -0.5635
 2509TIP3    H129018   4.840   6.915  12.518 -1.3209 -0.3377 -0.4091
 2509TIP3    H229019   4.868   6.789  12.597  1.1684 -0.3502 -1.2717
 2510TIP3   OH229020   5.036   6.036   1.471 -0.0524  0.0779 -0.4872
 2510TIP3    H129021   4.951   6.016   1.509  0.2203  0.4641  0.3350
 2510TIP3    H229022   5.080   6.091   1.536 -0.0930  1.8569 -1.9123
 2511TIP3   OH229023   0.728   5.955  16.782  0.2160 -0.4294  0.1208
 2511TIP3    H129024   0.801   6.014  16.769 -0.7733  0.7148 -0.3676
 2511TIP3    H229025   0.681   5.955  16.698 -1.9179  1.0567  1.2665
 2512TIP3   OH229026   0.173   6.645   6.141 -0.0746 -0.0016  0.2163
 2512TIP3    H129027   0.112   6.713   6.111  0.7370  1.0053  0.8123
 2512TIP3    H229028   0.161   6.641   6.236  0.2451 -0.3273  0.2457
 2513TIP3   OH229029   1.588   4.680  12.012 -0.0153 -0.0014 -0.2078
 2513TIP3    H129030   1.642   4.697  12.090  0.1062 -0.6873 -0.1365
 2513TIP3    H229031   1.578   4.585  12.011 -1.5229  0.1396 -0.0216
 2514TIP3   OH229032   2.621   3.489   1.216  0.2626  0.4248  0.1639
 2514TIP3    H129033   2.551   3.540   1.176 -0.4810  1.0908  2.3024
 2514TIP3    H229034   2.577   3.414   1.255  0.8509  0.3993  0.7790
 2515TIP3   OH229035   3.719   1.018   1.162 -0.3019 -0.2979  0.3784
 2515TIP3    H129036   3.628   1.046   1.168 -0.4940 -0.8423 -0.0651
 2515TIP3    H229037   3.727   0.949   1.228 -0.4316 -0.8665 -0.2076
 2516TIP3   OH229038   0.112   4.491  12.492  0.7308 -0.6843 -0.2206
 2516TIP3    H129039   0.114   4.585  12.510  0.1304 -0.8093  0.4671
 2516TIP3    H229040   0.201   4.461  12.512  1.4923  0.0791 -2.2996
 2517TIP3   OH229041   3.749   1.113   4.806 -0.4399 -0.2882 -0.0724
 2517TIP3    H129042   3.730   1.199   4.844  2.0960 -0.1311  0.9387
 2517TIP3    H229043   3.779   1.131   4.718  2.1926  0.0874  0.8588
 2518TIP3   OH229044   1.315   2.403  17.117  0.2837  0.1343  0.0340
 2518TIP3    H129045   1.386   2.458  17.151 -0.4038  1.3669 -0.4867
 2518TIP3    H229046   1.360   2.328  17.078  1.1430 -0.8100  2.6949
 2519TIP3   OH229047   3.831   1.884  15.425  0.6765  0.2099 -0.4286
 2519TIP3    H129048   3.764   1.831  15.470  0.4497  0.8358 -0.0237
 2519TIP3    H229049   3.869   1.825  15.360  1.1660 -0.7902  0.7469
 2520TIP3   OH229050   4.434   0.586   5.057  0.1253  0.0358 -0.1648
 2520TIP3    H129051   4.348   0.544   5.051  0.8287 -1.4315 -0.1143
 2520TIP3    H229052   4.469   0.558   5.141  1.0628 -0.1633 -0.6189
 2521TIP3   OH229053   4.632   0.132  13.975 -0.3244 -0.5772  0.6183
 2521TIP3    H129054   4.621   0.151  13.881  0.8063 -1.5338  0.2709
 2521TIP3    H229055   4.665   0.213  14.012 -0.2245 -0.3674  0.0751
 2522TIP3   OH229056   5.736   1.395  14.340  0.2552 -0.3862 -0.0446
 2522TIP3    H129057   5.781   1.351  14.268  0.6665 -0.5267  0.2948
 2522TIP3    H229058   5.652   1.350  14.348  0.9022 -1.4888  0.6730
 2523TIP3   OH229059   4.986   0.230   5.357  0.4201  0.5458 -0.0612
 2523TIP3    H129060   4.919   0.197   5.297  0.6762  1.8401 -1.1107
 2523TIP3    H229061   5.069   0.206   5.316  0.5950  1.3432 -0.2020
 2524TIP3   OH229062   1.461   5.634   5.696 -0.0337 -0.2486 -0.1877
 2524TIP3    H129063   1.459   5.565   5.763  2.5776 -1.5330 -1.3771
 2524TIP3    H229064   1.477   5.588   5.614  1.6529  1.7475 -1.0249
 2525TIP3   OH229065   5.334   6.785  13.582  0.3729 -0.1806 -0.6130
 2525TIP3    H129066   5.260   6.828  13.539  1.3791 -1.3518 -3.6636
 2525TIP3    H229067   5.296   6.744  13.660 -1.5369  1.9033 -0.3886
 2526TIP3   OH229068   1.674   0.802  14.610 -0.2120  0.0122 -0.0974
 2526TIP3    H129069   1.752   0.750  14.631  0.4740  0.2596 -1.9126
 2526TIP3    H229070   1.681   0.879  14.665 -0.3514 -1.0019  1.3763
 2527TIP3   OH229071   6.360   2.852   0.105 -0.4666 -0.0858  0.1930
 2527TIP3    H129072   6.424   2.809   0.162  1.2365  0.8395 -0.9987
 2527TIP3    H229073   6.338   2.934   0.150 -4.1627 -2.2979  2.7673
 2528TIP3   OH229074   3.005   6.049   4.566 -0.0863 -0.4129  0.3923
 2528TIP3    H129075   3.066   5.980   4.591 -0.6292 -0.8664  0.4840
 2528TIP3    H229076   3.008   6.112   4.638  0.2182 -0.4654  0.4258
 2529TIP3   OH229077   1.097   6.127   1.579  0.2619 -0.4115 -0.6585
 2529TIP3    H129078   1.158   6.201   1.576  0.4778 -0.5853 -0.5057
 2529TIP3    H229079   1.152   6.050   1.589 -0.0523 -0.4613  0.8201
 2530TIP3   OH229080   1.307   1.856  13.268  0.3784  0.0869  0.2440
 2530TIP3    H129081   1.339   1.775  13.308 -1.0823 -0.4683  0.3218
 2530TIP3    H229082   1.370   1.922  13.294  2.4188 -1.3028 -1.0219
 2531TIP3   OH229083   5.363   0.719  15.811  0.1344  0.0570  0.9723
 2531TIP3    H129084   5.411   0.777  15.870 -0.8630 -0.1665  2.0206
 2531TIP3    H229085   5.426   0.698  15.742  0.5569  2.2200  0.6802
 2532TIP3   OH229086   5.992   0.012  16.225 -0.3341 -0.4167  0.0392
 2532TIP3    H129087   5.981  -0.062  16.284  1.1841 -0.4230  0.3410
 2532TIP3    H229088   5.944  -0.013  16.146 -1.3988 -0.9056  0.8261
 2533TIP3   OH229089   0.133   4.635  15.937 -0.3129  0.6297  0.9153
 2533TIP3    H129090   0.204   4.699  15.932 -0.8989  1.2446  0.3895
 2533TIP3    H229091   0.111   4.617  15.845  1.1811 -1.8245  0.9983
 2534TIP3   OH229092   0.433   4.344   6.678 -1.2335 -0.3144  0.0828
 2534TIP3    H129093   0.362   4.405   6.657 -0.5859 -0.3240 -2.3832
 2534TIP3    H229094   0.499   4.360   6.610  1.5466  0.2876  2.8077
 2535TIP3   OH229095   0.569   4.872   0.671 -1.2025 -0.0553  0.3307
 2535TIP3    H129096   0.578   4.889   0.764 -0.8946 -3.0584  0.9017
 2535TIP3    H229097   0.511   4.941   0.639 -0.8409  1.3445  2.6027
 2536TIP3   OH229098   4.025   5.264  14.340 -0.0049 -0.1894  0.0479
 2536TIP3    H129099   3.945   5.229  14.300  0.3702 -0.8007 -0.1771
 2536TIP3    H229100   4.016   5.241  14.433 -0.6324  0.7784  0.2406
 2537TIP3   OH229101   5.939   5.684  16.317 -0.4903  0.0394  0.8713
 2537TIP3    H129102   5.982   5.599  16.332  0.3236  0.5978  1.7369
 2537TIP3    H229103   5.851   5.672  16.353 -0.0683 -0.1348  1.8547
 2538TIP3   OH229104   5.176   6.097  13.019 -0.4459 -0.1470 -0.4377
 2538TIP3    H129105   5.236   6.096  12.945  1.1132  1.4426  0.7798
 2538TIP3    H229106   5.144   6.187  13.024 -0.5427 -0.2371  0.8000
 2539TIP3   OH229107   1.907   0.241   5.745  0.0586  0.1766  0.1026
 2539TIP3    H129108   1.991   0.270   5.709 -0.2760 -0.5361 -1.2689
 2539TIP3    H229109   1.879   0.170   5.688 -1.8332  0.8832  0.1046
 2540TIP3   OH229110   6.812   5.054   0.348 -0.1053 -0.3266 -0.1176
 2540TIP3    H129111   6.788   5.051   0.440  0.9574  1.4571  0.2523
 2540TIP3    H229112   6.836   5.145   0.333 -0.9238 -0.4592 -2.3344
 2541TIP3   OH229113   1.767   0.530  11.718  0.4776 -0.5050 -0.1043
 2541TIP3    H129114   1.770   0.440  11.687  0.3986 -1.0968  1.5525
 2541TIP3    H229115   1.780   0.583  11.640 -1.9967 -1.8964 -1.5391
 2542TIP3   OH229116   5.322   3.944   5.905  0.4321 -0.3183 -0.1248
 2542TIP3    H129117   5.408   3.963   5.867 -0.2095  0.3288 -1.2863
 2542TIP3    H229118   5.304   4.018   5.962 -0.4063  0.7670 -1.7516
 2543TIP3   OH229119   5.583   2.294   1.170 -0.2688 -0.3982  0.0935
 2543TIP3    H129120   5.511   2.328   1.222  0.9300 -1.3751  2.4868
 2543TIP3    H229121   5.659   2.347   1.195  0.3854 -1.0383 -0.4764
 2544TIP3   OH229122   2.641   3.552  14.910  0.1460 -0.4160  0.2200
 2544TIP3    H129123   2.599   3.616  14.852 -0.2752  0.6172  1.6403
 2544TIP3    H229124   2.734   3.561  14.892  0.1117  0.8187  0.6145
 2545TIP3   OH229125   6.795   6.288   1.446  0.1573 -0.2465  0.4830
 2545TIP3    H129126   6.728   6.336   1.494  0.3630 -0.7245  1.2547
 2545TIP3    H229127   6.857   6.355   1.417 -0.3282  0.1228  0.2850
 2546TIP3   OH229128   3.501   1.478   5.571  0.3222 -0.5798 -0.1720
 2546TIP3    H129129   3.418   1.476   5.523 -1.2495 -3.0017  2.4998
 2546TIP3    H229130   3.516   1.570   5.589 -1.8816 -0.0958 -0.6137
 2547TIP3   OH229131   5.759   4.337  15.162 -0.2887  0.3034 -0.0728
 2547TIP3    H129132   5.689   4.402  15.163 -1.0009 -0.4258  3.1055
 2547TIP3    H229133   5.827   4.375  15.216 -0.2531 -1.1123  0.8827
 2548TIP3   OH229134   1.671   3.001   1.920  0.1973  0.0048  0.3259
 2548TIP3    H129135   1.616   3.003   1.842 -1.1008 -1.5222  1.1590
 2548TIP3    H229136   1.755   2.965   1.890  0.2914  1.0458 -0.6861
 2549TIP3   OH229137   4.656   6.220  11.732  0.0232 -0.0262 -0.1536
 2549TIP3    H129138   4.701   6.303  11.716 -0.3311  0.1680 -0.1434
 2549TIP3    H229139   4.694   6.188  11.814  0.2006  0.0961 -0.1866
 2550TIP3   OH229140   3.248   5.162  11.761  0.1097  0.1537  0.5068
 2550TIP3    H129141   3.162   5.124  11.743  0.5454 -1.8389  2.3581
 2550TIP3    H229142   3.259   5.229  11.694 -1.9049 -1.1009 -1.1684
 2551TIP3   OH229143   2.073   5.316   3.095  0.0584 -0.1550  0.7000
 2551TIP3    H129144   2.073   5.385   3.029 -0.2939 -0.0608  0.7981
 2551TIP3    H229145   2.159   5.275   3.087  0.4624  0.6170  0.9775
 2552TIP3   OH229146   5.961   3.389   1.841 -0.6582 -0.0936 -0.4962
 2552TIP3    H129147   5.914   3.470   1.861 -1.9204 -0.8510 -0.3152
 2552TIP3    H229148   5.935   3.328   1.910 -2.5899 -1.7630 -2.6211
 2553TIP3   OH229149   0.543   6.288  16.238  0.8558 -0.4313 -0.4268
 2553TIP3    H129150   0.507   6.258  16.155 -1.8998  0.4967  0.3954
 2553TIP3    H229151   0.540   6.384  16.233  1.6607 -0.3507  0.3484
 2554TIP3   OH229152   3.524   3.083  15.303  0.5694  0.5795 -0.1860
 2554TIP3    H129153   3.497   3.021  15.234  2.1751 -0.2383 -0.0969
 2554TIP3    H229154   3.471   3.161  15.286 -1.6450 -0.8575 -0.1999
 2555TIP3   OH229155   6.412   2.685  15.826  0.2736 -0.4825  0.2453
 2555TIP3    H129156   6.403   2.603  15.779  0.8743 -0.1728 -0.4211
 2555TIP3    H229157   6.332   2.691  15.880 -1.1738 -0.1021 -1.8832
 2556TIP3   OH229158   1.267   0.230   2.822 -0.0555 -0.3154  0.1890
 2556TIP3    H129159   1.185   0.217   2.870 -0.5486 -0.9412 -0.8179
 2556TIP3    H229160   1.335   0.212   2.887 -0.7198 -1.2958  0.6196
 2557TIP3   OH229161   4.596   0.068   2.558 -0.1293 -0.5819 -0.2810
 2557TIP3    H129162   4.609   0.163   2.557 -1.8422 -0.3318 -1.7286
 2557TIP3    H229163   4.642   0.038   2.636 -2.5096  1.8536  2.1258
 2558TIP3   OH229164   2.008   6.068  16.358 -0.0481 -0.3531  0.0043
 2558TIP3    H129165   1.973   5.981  16.376 -1.1754  0.3774  1.3979
 2558TIP3    H229166   1.934   6.127  16.368  0.1754  0.5609 -3.1500
 2559TIP3   OH229167   2.158   6.692   3.899  0.2450 -0.1277  0.1561
 2559TIP3    H129168   2.161   6.747   3.820 -1.7812  0.4128  0.4274
 2559TIP3    H229169   2.215   6.737   3.962  1.8629 -0.5511 -0.9642
 2560TIP3   OH229170   2.850   5.548   2.144 -0.0485  0.3305 -0.2870
 2560TIP3    H129171   2.815   5.477   2.198 -1.8633  0.4840 -1.2384
 2560TIP3    H229172   2.940   5.560   2.176  0.3130 -2.4149 -0.1403
 2561TIP3   OH229173   2.637   4.554  10.479  0.5998  0.4105 -0.4328
 2561TIP3    H129174   2.659   4.515  10.394  0.8149  1.3452 -0.8046
 2561TIP3    H229175   2.719   4.549  10.529  0.5940  0.2780 -0.4353
 2562TIP3   OH229176   5.905   3.392   2.459  0.0995  0.7425 -0.7055
 2562TIP3    H129177   5.852   3.472   2.464 -0.6827  0.2112 -0.5625
 2562TIP3    H229178   5.988   3.417   2.500 -0.4349  1.2412  0.0923
 2563TIP3   OH229179   3.906   5.662   2.560  0.1928  0.5662  0.2218
 2563TIP3    H129180   3.984   5.606   2.570  0.8922  1.1335 -1.8234
 2563TIP3    H229181   3.863   5.628   2.481 -1.6827  0.2335  1.3560
 2564TIP3   OH229182   3.934   6.480   4.304 -0.1312 -0.2308  0.7264
 2564TIP3    H129183   3.880   6.402   4.294 -0.6313  0.1728  0.2710
 2564TIP3    H229184   3.888   6.534   4.368  0.0681 -0.1816  0.8289
 2565TIP3   OH229185   4.120   4.214   5.469 -0.3090 -0.1535 -0.2635
 2565TIP3    H129186   4.031   4.187   5.446 -0.3165 -0.9107  0.6544
 2565TIP3    H229187   4.112   4.254   5.555  0.3008 -0.5615 -0.0173
 2566TIP3   OH229188   6.302   6.785   4.601  0.0707 -0.3176 -0.1940
 2566TIP3    H129189   6.221   6.738   4.583  0.3179 -1.0597  0.5452
 2566TIP3    H229190   6.369   6.716   4.607  0.6413  0.2285 -0.2155
 2567TIP3   OH229191   0.779   6.597   4.640  0.0975  0.6807  0.0734
 2567TIP3    H129192   0.789   6.691   4.625 -0.6758  0.6580 -0.6207
 2567TIP3    H229193   0.718   6.569   4.572 -1.8837  0.1856  1.9979
 2568TIP3   OH229194   2.035   2.118   3.026  0.7842 -0.4399 -0.3461
 2568TIP3    H129195   2.049   2.186   2.961 -2.4686 -0.0154 -0.7237
 2568TIP3    H229196   2.122   2.095   3.057  2.0724  2.5812 -1.5382
 2569TIP3   OH229197   6.372   6.713   2.817 -0.3327 -0.1912 -0.2832
 2569TIP3    H129198   6.368   6.742   2.726 -2.8484 -0.1000 -0.1779
 2569TIP3    H229199   6.429   6.776   2.860  0.5885 -0.0290 -1.7317
 2570TIP3   OH229200   4.991   1.936  14.299  0.0886  0.2713  0.0763
 2570TIP3    H129201   4.937   1.857  14.298 -0.7573  0.8236  1.3079
 2570TIP3    H229202   4.931   2.006  14.275  0.7187  0.6317 -0.4886
 2571TIP3   OH229203   6.013   0.699   1.062  0.3307 -0.1122  0.0710
 2571TIP3    H129204   6.061   0.632   1.015  1.9756  0.6625  0.6226
 2571TIP3    H229205   5.951   0.734   0.998  0.4409 -1.1681 -0.6216
 2572TIP3   OH229206   1.053   4.067   2.169  0.2887 -0.5946 -0.0807
 2572TIP3    H129207   1.032   4.070   2.262  0.9292 -0.4716  0.0630
 2572TIP3    H229208   0.969   4.055   2.125  0.0014 -0.7717  0.5211
 2573TIP3   OH229209   0.765   5.449  14.875  0.5812 -0.1585 -0.1151
 2573TIP3    H129210   0.690   5.407  14.833  0.6251 -0.4245  0.0695
 2573TIP3    H229211   0.800   5.381  14.933 -0.9470  0.9632  2.1935
 2574TIP3   OH229212   4.515   6.039   0.651 -0.4675  0.4059 -0.2040
 2574TIP3    H129213   4.494   6.121   0.696 -2.6555  0.5917 -1.5057
 2574TIP3    H229214   4.587   6.061   0.592 -0.7048  1.2720 -0.1775
 2575TIP3   OH229215   0.385   0.306   0.701 -0.2281 -0.1086  0.6469
 2575TIP3    H129216   0.427   0.252   0.768  3.0051  0.0010 -1.1677
 2575TIP3    H229217   0.443   0.382   0.691 -1.9613  1.1161 -0.5133
 2576TIP3   OH229218   4.947   2.037   5.385  0.1325  0.3557  0.3430
 2576TIP3    H129219   4.940   1.942   5.382  2.5375  0.1161  1.2596
 2576TIP3    H229220   5.017   2.057   5.323 -1.1587  1.6417 -0.7297
 2577TIP3   OH229221   4.116   6.521  15.672 -0.0410 -0.1465 -0.4896
 2577TIP3    H129222   4.160   6.512  15.588 -0.0317 -0.0800 -0.4926
 2577TIP3    H229223   4.175   6.575  15.725  0.4691 -1.0913 -0.0675
 2578TIP3   OH229224   0.300   1.919   4.618  0.0192 -0.2906 -0.1131
 2578TIP3    H129225   0.270   1.840   4.572 -0.9939  0.3875 -0.6320
 2578TIP3    H229226   0.245   1.989   4.584  2.1772  0.9924 -1.0702
 2579TIP3   OH229227   3.549   5.169   1.385  0.2417 -0.6515 -0.2950
 2579TIP3    H129228   3.563   5.260   1.413 -2.6351 -0.2059 -0.2020
 2579TIP3    H229229   3.523   5.177   1.293 -2.1226 -1.1664  0.2919
 2580TIP3   OH229230   3.064   2.444  13.519 -0.4994  0.4459  0.1218
 2580TIP3    H129231   3.073   2.492  13.601 -1.4995  0.7329  0.0698
 2580TIP3    H229232   2.969   2.434  13.507 -0.3518  0.1407 -0.8378
 2581TIP3   OH229233   3.611   3.329  13.414  0.3138 -0.2242 -0.1593
 2581TIP3    H129234   3.593   3.291  13.500  0.5578  0.0698  0.0227
 2581TIP3    H229235   3.701   3.360  13.421 -0.0069  0.7073 -0.1922
 2582TIP3   OH229236   6.191   4.185  15.888  0.2737  0.2463  0.2430
 2582TIP3    H129237   6.257   4.254  15.897 -0.8378  1.0567  2.5347
 2582TIP3    H229238   6.235   4.106  15.919  1.1478  0.1382 -1.2113
 2583TIP3   OH229239   5.852   3.163  12.018 -0.1789 -0.5567 -0.2045
 2583TIP3    H129240   5.758   3.156  12.033  0.0564 -1.1624  1.0351
 2583TIP3    H229241   5.875   3.251  12.047 -0.7242  0.3902 -2.5581
 2584TIP3   OH229242   4.768   0.527  17.232 -0.3473 -0.5089 -0.3740
 2584TIP3    H129243   4.775   0.514  17.326 -2.8926 -0.2863 -0.1204
 2584TIP3    H229244   4.786   0.621  17.219  1.8759 -0.9143 -0.3502
 2585TIP3   OH229245   2.660   3.171   3.924  0.7121 -0.0722 -0.1370
 2585TIP3    H129246   2.700   3.193   4.008 -0.2800  0.1759  0.2676
 2585TIP3    H229247   2.695   3.236   3.863  0.2642  0.6626  0.3923
 2586TIP3   OH229248   6.487   6.807  16.434 -0.3175 -0.4214 -0.2886
 2586TIP3    H129249   6.479   6.738  16.368  0.3411  1.9925 -2.9997
 2586TIP3    H229250   6.423   6.873  16.408  0.3096  0.7970  1.1933
 2587TIP3   OH229251   5.853   2.365   1.873 -0.4490  0.1268 -0.0842
 2587TIP3    H129252   5.834   2.279   1.835 -0.5998  0.8161 -1.6179
 2587TIP3    H229253   5.932   2.351   1.925  0.9779 -0.4535 -2.3067
 2588TIP3   OH229254   1.144   0.092  13.989  0.0660  0.5164 -0.1622
 2588TIP3    H129255   1.129   0.144  13.910 -0.7757 -0.9274 -0.9747
 2588TIP3    H229256   1.058   0.055  14.011  0.5062  0.0225  0.7962
 2589TIP3   OH229257   3.167   5.380   5.231  0.6194 -0.5390 -0.4638
 2589TIP3    H129258   3.222   5.346   5.302  1.3264  1.6123  0.0567
 2589TIP3    H229259   3.146   5.469   5.258 -3.4893 -1.4253 -0.4756
 2590TIP3   OH229260   1.141   4.845  15.636 -0.2751 -0.0598 -0.7776
 2590TIP3    H129261   1.108   4.817  15.721  0.0522  1.2555 -0.1988
 2590TIP3    H229262   1.073   4.903  15.602 -0.0780 -0.0112 -1.0913
 2591TIP3   OH229263   0.210   1.011   2.043  0.0295 -0.6361  0.0797
 2591TIP3    H129264   0.149   0.955   1.995 -0.0753 -1.0123  0.6473
 2591TIP3    H229265   0.297   0.978   2.019 -0.0742 -3.2919  3.0307
 2592TIP3   OH229266   0.306   0.215   5.381  0.1284  0.5976  0.0526
 2592TIP3    H129267   0.240   0.172   5.327  0.0941 -0.4035  0.8744
 2592TIP3    H229268   0.306   0.306   5.352 -1.3304  0.5157 -0.2182
 2593TIP3   OH229269   6.469   4.024   3.008  0.3429 -0.5822  0.3397
 2593TIP3    H129270   6.521   4.103   2.994  0.4654 -0.5357  1.0600
 2593TIP3    H229271   6.403   4.026   2.938  0.6727 -0.1181  0.0405
 2594TIP3   OH229272   1.009   0.724  11.980 -0.4416 -0.0990  0.2656
 2594TIP3    H129273   0.978   0.655  12.038 -2.0479  1.2095  1.0157
 2594TIP3    H229274   1.092   0.691  11.946 -0.9900 -2.2241  0.8849
 2595TIP3   OH229275   1.196   0.885  14.710 -0.0268 -0.0042 -0.0560
 2595TIP3    H129276   1.276   0.847  14.747 -0.7129  0.6033  2.1240
 2595TIP3    H229277   1.222   0.915  14.623  1.7938 -0.9437  0.1379
 2596TIP3   OH229278   4.705   1.954  12.368 -0.0298 -0.2757  0.4264
 2596TIP3    H129279   4.752   2.028  12.331 -0.1808  0.4537  1.6743
 2596TIP3    H229280   4.772   1.901  12.412 -0.1002 -0.2172  0.6064
 2597TIP3   OH229281   6.109   6.413  15.981  0.1410  0.5186  0.1383
 2597TIP3    H129282   6.025   6.376  16.008  0.6030 -0.3037  0.4753
 2597TIP3    H229283   6.162   6.337  15.959 -0.3724  1.1627 -3.6434
 2598TIP3   OH229284   1.833   3.301  13.672  0.1377 -0.6931 -0.3723
 2598TIP3    H129285   1.865   3.212  13.687  0.7412 -0.6225 -1.2444
 2598TIP3    H229286   1.884   3.333  13.598 -0.7146  0.0548 -0.6436
 2599TIP3   OH229287   3.559   6.458   0.252 -0.3070 -0.1951  0.2765
 2599TIP3    H129288   3.597   6.391   0.309 -0.6940 -0.4049  0.2933
 2599TIP3    H229289   3.522   6.408   0.179  1.1968  0.1497 -0.7425
 2600TIP3   OH229290   4.976   4.451  16.037  0.0368 -0.2618  0.0153
 2600TIP3    H129291   4.926   4.378  16.074  1.5594 -1.0159  0.6363
 2600TIP3    H229292   4.958   4.525  16.095 -0.7189 -0.4093 -0.0349
 2601TIP3   OH229293   1.073   4.554   5.187 -0.4910 -0.4421  0.4581
 2601TIP3    H129294   1.120   4.477   5.155  1.2573  1.2205 -1.1970
 2601TIP3    H229295   1.142   4.608   5.227 -0.9466  1.9604 -1.8257
 2602TIP3   OH229296   6.160   5.882  12.459  0.3434 -0.2906  0.3099
 2602TIP3    H129297   6.122   5.808  12.506 -0.4531  0.1429  0.3560
 2602TIP3    H229298   6.105   5.956  12.483 -0.1188 -0.0823 -1.3582
 2603TIP3   OH229299   6.511   5.979  14.255 -0.3144  0.2420  0.2510
 2603TIP3    H129300   6.444   5.919  14.224 -0.6143 -0.5506  2.3461
 2603TIP3    H229301   6.466   6.036  14.318  0.6572  0.5810  0.6638
 2604TIP3   OH229302   0.971   0.692   3.591 -0.4597  0.1373 -0.4602
 2604TIP3    H129303   1.062   0.711   3.611 -0.5582  1.4754 -1.2162
 2604TIP3    H229304   0.924   0.773   3.610 -1.2682 -0.0770 -1.4601
 2605TIP3   OH229305   0.327   4.504  13.219 -0.2357 -0.1613 -0.3844
 2605TIP3    H129306   0.258   4.568  13.237 -1.3626 -0.7796 -2.3905
 2605TIP3    H229307   0.350   4.469  13.305 -0.8712  1.6138  0.5421
 2606TIP3   OH229308   1.546   2.932   5.681 -0.3167  0.0318  0.4003
 2606TIP3    H129309   1.524   2.964   5.768  0.5521 -0.2856  0.7434
 2606TIP3    H229310   1.556   2.838   5.692  0.4002  0.0645  0.0945
 2607TIP3   OH229311   0.449   2.603  11.362 -0.1847 -0.6723 -0.3246
 2607TIP3    H129312   0.489   2.690  11.361 -0.4739 -0.5273  0.6179
 2607TIP3    H229313   0.362   2.616  11.400  0.4794 -1.6667  1.5746
 2608TIP3   OH229314   1.261   1.111  14.885  0.4785  0.4869  0.2306
 2608TIP3    H129315   1.196   1.142  14.823  1.1375 -1.5342 -1.5221
 2608TIP3    H229316   1.338   1.092  14.832  1.3999 -0.3189  1.8028
 2609TIP3   OH229317   2.960   6.411   3.659  0.1550 -0.4057  0.3473
 2609TIP3    H129318   3.049   6.443   3.647 -0.1766  0.2929 -0.3228
 2609TIP3    H229319   2.943   6.421   3.752  0.2459  0.8966  0.2347
 2610TIP3   OH229320   3.878   3.163  15.430 -0.6114  0.3125 -0.0583
 2610TIP3    H129321   3.818   3.183  15.358  0.0510  0.1209 -0.6808
 2610TIP3    H229322   3.960   3.207  15.406  0.4117 -1.8415 -0.7207
 2611TIP3   OH229323   3.915   3.709  11.646 -0.3912  0.2559  0.0465
 2611TIP3    H129324   3.900   3.696  11.739 -0.2120 -0.1127  0.0245
 2611TIP3    H229325   3.935   3.621  11.613 -2.5499 -0.0056 -0.7076
 2612TIP3   OH229326   3.802   5.963  16.689  0.1759  0.1689 -0.0361
 2612TIP3    H129327   3.891   5.940  16.718  0.2887  0.8116  0.1334
 2612TIP3    H229328   3.778   5.892  16.630 -0.0480 -1.1696  1.6036
 2613TIP3   OH229329   4.784   0.652   1.236 -0.2689 -0.2167  0.1209
 2613TIP3    H129330   4.747   0.618   1.155  1.3053 -2.0655  0.1442
 2613TIP3    H229331   4.806   0.743   1.216  0.4514 -0.7688 -1.6450
 2614TIP3   OH229332   3.515   2.918  11.794 -0.4347  0.5872  0.0745
 2614TIP3    H129333   3.576   2.991  11.784 -0.7505  0.8364 -0.0625
 2614TIP3    H229334   3.464   2.940  11.872 -0.7985  0.7175 -0.1925
 2615TIP3   OH229335   2.589   5.816   0.109 -0.3420 -0.1898  0.3892
 2615TIP3    H129336   2.673   5.771   0.097 -0.6927 -0.5571 -0.6967
 2615TIP3    H229337   2.523   5.751   0.084 -0.8501  0.9361 -1.2932
 2616TIP3   OH229338   3.333   0.178   1.988 -0.1481 -0.2057 -0.0288
 2616TIP3    H129339   3.376   0.128   2.057 -0.0158 -1.7007 -1.1730
 2616TIP3    H229340   3.284   0.113   1.938 -0.4388  0.8910 -1.1944
 2617TIP3   OH229341   5.351   1.680  11.834  0.1221  0.2119 -0.4446
 2617TIP3    H129342   5.284   1.669  11.901 -1.1983 -0.3156 -1.8384
 2617TIP3    H229343   5.428   1.637  11.870 -0.7309 -0.5260  0.5239
 2618TIP3   OH229344   2.578   5.534   1.335  0.3986  0.1101 -0.1563
 2618TIP3    H129345   2.568   5.483   1.255 -0.1402  0.2134 -0.1582
 2618TIP3    H229346   2.627   5.612   1.308 -0.4693  0.5243 -0.5494
 2619TIP3   OH229347   6.256   0.558   3.005 -0.3889 -0.2565 -0.4051
 2619TIP3    H129348   6.243   0.564   2.910  2.7293  0.4066 -0.8563
 2619TIP3    H229349   6.281   0.646   3.031 -2.0148 -0.2500  1.1917
 2620TIP3   OH229350   5.186   5.779  10.242  0.4935  0.2361  0.0234
 2620TIP3    H129351   5.201   5.778  10.336  0.8221 -1.0187 -0.0349
 2620TIP3    H229352   5.163   5.689  10.220  0.8507  0.4235 -1.1659
 2621TIP3   OH229353   5.994   5.550   0.585  0.3028  0.5044  0.2774
 2621TIP3    H129354   6.084   5.518   0.581  0.4638  1.0967 -1.2276
 2621TIP3    H229355   5.966   5.532   0.675  2.0128  0.5583  0.8458
 2622TIP3   OH229356   0.313   1.100  14.591  0.5263  0.0107  0.0261
 2622TIP3    H129357   0.408   1.099  14.580  0.4292 -1.1020 -0.7802
 2622TIP3    H229358   0.296   1.182  14.638  1.6955  1.2131 -1.5637
 2623TIP3   OH229359   2.016   5.829   3.415  0.0597  0.1244 -0.6564
 2623TIP3    H129360   2.011   5.747   3.367  0.3695 -1.4485  1.9042
 2623TIP3    H229361   1.926   5.862   3.416 -0.2195 -0.6259 -0.9030
 2624TIP3   OH229362   6.001   4.863  14.929  0.0618 -0.5326 -0.2927
 2624TIP3    H129363   6.046   4.871  15.013 -1.7823 -0.4593  0.7301
 2624TIP3    H229364   6.052   4.918  14.869 -0.9464  2.8839  1.8028
 2625TIP3   OH229365   0.139   2.649  15.403 -0.1535  0.2598  0.0311
 2625TIP3    H129366   0.051   2.674  15.430 -0.3646  1.3527 -1.6401
 2625TIP3    H229367   0.191   2.655  15.483 -0.9213  2.7657  0.3912
 2626TIP3   OH229368   4.144   5.346  13.044 -0.1580  0.9281  0.1605
 2626TIP3    H129369   4.113   5.290  13.116  0.1989  1.3703  0.6553
 2626TIP3    H229370   4.091   5.318  12.969  2.5841 -2.6985 -0.5498
 2627TIP3   OH229371   1.880   4.708   6.031  0.0691  0.1686 -0.2037
 2627TIP3    H129372   1.816   4.719   5.961  0.3132 -1.7758 -0.7761
 2627TIP3    H229373   1.853   4.769   6.099 -1.5264  0.4123 -1.0466
 2628TIP3   OH229374   1.885   5.741   3.035 -0.8872 -0.2967  0.6577
 2628TIP3    H129375   1.928   5.689   3.103  0.5764  2.4924  1.9367
 2628TIP3    H229376   1.954   5.755   2.970 -0.6363  1.8080  1.3557
 2629TIP3   OH229377   2.759   5.611   0.766  0.2976 -0.4133 -0.1959
 2629TIP3    H129378   2.844   5.570   0.752  0.8717 -0.1399  2.2604
 2629TIP3    H229379   2.772   5.703   0.741  0.5603 -0.4924 -0.3477
 2630TIP3   OH229380   1.710   4.363   1.940  0.3384  0.1578  0.3251
 2630TIP3    H129381   1.740   4.418   2.012  2.2859  1.0590 -1.1479
 2630TIP3    H229382   1.771   4.289   1.939 -1.0419 -1.0109  1.0046
 2631TIP3   OH229383   1.740   1.527   0.521  0.4971 -0.1108  0.3724
 2631TIP3    H129384   1.779   1.440   0.513  1.5794  0.5253 -1.6234
 2631TIP3    H229385   1.647   1.511   0.536  0.5833 -1.6180 -0.6316
 2632TIP3   OH229386   6.302   2.287  12.939 -0.2501  0.5798 -0.3462
 2632TIP3    H129387   6.378   2.267  12.883  0.6266  0.7775  0.7553
 2632TIP3    H229388   6.322   2.244  13.022 -1.9360 -0.4159 -0.4313
 2633TIP3   OH229389   3.755   0.083  12.185 -0.5297 -0.0331  0.1241
 2633TIP3    H129390   3.701   0.136  12.244 -1.0386 -1.5878  1.0739
 2633TIP3    H229391   3.732   0.114  12.097  0.4923  2.5433  0.7145
 2634TIP3   OH229392   1.888   1.897  14.544  0.0400  0.1918 -0.2318
 2634TIP3    H129393   1.794   1.885  14.530 -0.5094  0.5691  2.7398
 2634TIP3    H229394   1.910   1.975  14.492 -1.4321  0.4462 -0.4981
 2635TIP3   OH229395   5.762   6.657   0.960  0.0357 -0.2649  0.6147
 2635TIP3    H129396   5.796   6.659   1.049  0.6643 -1.3487  0.4095
 2635TIP3    H229397   5.746   6.564   0.942  1.0287 -0.1769 -0.8100
 2636TIP3   OH229398   2.443   4.828   1.881 -0.8951  0.2194  0.0715
 2636TIP3    H129399   2.403   4.889   1.820 -1.4855  0.3531  0.5830
 2636TIP3    H229400   2.520   4.794   1.835 -1.1236  0.5980 -0.5937
 2637TIP3   OH229401   2.645   2.125  13.736 -0.3831  0.2256  0.5396
 2637TIP3    H129402   2.670   2.217  13.746  4.7447 -0.8270 -1.3461
 2637TIP3    H229403   2.678   2.082  13.815 -0.3003 -0.4416  0.1472
 2638TIP3   OH229404   6.563   1.640  16.214  0.0989  0.5157 -1.2090
 2638TIP3    H129405   6.508   1.718  16.220 -0.3113  0.2924 -2.0605
 2638TIP3    H229406   6.652   1.673  16.230 -0.4002  0.6733  1.5078
 2639TIP3   OH229407   4.285   6.372  13.674  0.2222  0.3735  0.3773
 2639TIP3    H129408   4.231   6.445  13.704  1.6984  1.2087  1.0525
 2639TIP3    H229409   4.261   6.299  13.731  0.7921  1.1167  1.5820
 2640TIP3   OH229410   2.568   2.096  11.659  0.3580 -0.1025  0.4702
 2640TIP3    H129411   2.572   2.005  11.691  0.1457 -0.3124 -0.1011
 2640TIP3    H229412   2.493   2.097  11.600  1.0706  0.1547 -0.4391
 2641TIP3   OH229413   3.608   5.695  16.337 -0.4063  0.0990  0.0950
 2641TIP3    H129414   3.554   5.692  16.258 -2.0899  2.1212  1.1344
 2641TIP3    H229415   3.689   5.739  16.310 -0.5375 -0.1479 -0.7136
 2642TIP3   OH229416   6.513   4.575   5.493 -0.0872  0.0706 -0.0945
 2642TIP3    H129417   6.534   4.493   5.540  0.7367  1.4581  2.0361
 2642TIP3    H229418   6.429   4.602   5.530 -1.2102 -0.6848 -2.0435
 2643TIP3   OH229419   2.054   1.967  14.859  0.0036  0.6539 -0.2737
 2643TIP3    H129420   1.960   1.954  14.854  0.1535  0.5625 -3.7956
 2643TIP3    H229421   2.065   2.062  14.864 -0.2517  0.7600 -1.5363
 2644TIP3   OH229422   0.247   0.998  12.483 -0.6696  0.1655 -0.3409
 2644TIP3    H129423   0.166   1.047  12.473 -2.5716 -2.8638 -0.4827
 2644TIP3    H229424   0.293   1.042  12.554 -3.3697  0.7729  1.1081
 2645TIP3   OH229425   6.257   0.762  12.127 -0.0228 -0.8118 -0.8480
 2645TIP3    H129426   6.213   0.786  12.208 -1.7738 -0.6199 -1.8263
 2645TIP3    H229427   6.206   0.806  12.058  2.1019 -0.0522 -1.9589
 2646TIP3   OH229428   3.327   5.573   4.691  0.3975 -0.6160  0.1608
 2646TIP3    H129429   3.312   5.556   4.598 -1.5697 -3.1891  0.9022
 2646TIP3    H229430   3.411   5.533   4.710 -0.8367 -3.2897  0.2367
 2647TIP3   OH229431   5.992   4.663   6.732 -0.1400 -0.3698 -0.4024
 2647TIP3    H129432   6.069   4.606   6.729 -0.5600 -1.0042  0.6690
 2647TIP3    H229433   5.980   4.683   6.824 -1.8811 -1.1481 -0.4316
 2648TIP3   OH229434   1.861   5.522   1.167  0.2693  0.4530 -0.3534
 2648TIP3    H129435   1.944   5.517   1.216 -0.3236  0.4239  0.6611
 2648TIP3    H229436   1.807   5.582   1.218 -0.1471  0.8987 -1.3107
 2649TIP3   OH229437   4.171   4.720   0.068 -0.4312  0.4310  0.1792
 2649TIP3    H129438   4.249   4.665   0.065 -1.5463 -1.2019  0.5795
 2649TIP3    H229439   4.194   4.797   0.016  1.1367 -0.4346 -0.4348
 2650TIP3   OH229440   3.822   4.749   4.091  0.3592  0.3560 -0.3025
 2650TIP3    H129441   3.901   4.804   4.090 -0.6637  1.8429 -0.9610
 2650TIP3    H229442   3.794   4.745   3.999 -0.0673 -0.5717 -0.1414
 2651TIP3   OH229443   2.390   0.010   5.159  0.0663  0.0209 -0.4357
 2651TIP3    H129444   2.369  -0.067   5.106  0.1830  0.8687 -1.7537
 2651TIP3    H229445   2.459  -0.019   5.218 -0.0890 -0.9538 -0.7260
 2652TIP3   OH229446   1.234   4.570   1.735  0.2094 -0.0440 -0.4971
 2652TIP3    H129447   1.319   4.614   1.732  0.2655  0.0637  1.7903
 2652TIP3    H229448   1.190   4.597   1.655  1.3558  1.9329 -0.4799
 2653TIP3   OH229449   1.750   0.344  13.085 -0.1058 -0.5623  0.2277
 2653TIP3    H129450   1.659   0.350  13.111 -0.2464 -1.6502  0.0070
 2653TIP3    H229451   1.794   0.412  13.135 -1.0168 -0.0983  0.4071
 2654TIP3   OH229452   6.461   6.710   4.316 -0.1829 -0.3491  0.2725
 2654TIP3    H129453   6.536   6.703   4.257 -1.3638  0.2447 -1.3342
 2654TIP3    H229454   6.440   6.804   4.317 -0.6899 -0.4641  0.9805
 2655TIP3   OH229455   6.759   2.052  16.320  0.0976  0.1397  0.4012
 2655TIP3    H129456   6.813   2.110  16.373 -0.6574  0.3960  0.8859
 2655TIP3    H229457   6.669   2.080  16.336 -0.1799 -0.1913 -0.5198
 2656TIP3   OH229458   6.254   3.123   6.797 -0.0172  0.0050 -0.6082
 2656TIP3    H129459   6.251   3.200   6.739 -2.9981  0.5207  0.1902
 2656TIP3    H229460   6.333   3.136   6.850 -0.6332  2.6763 -0.2880
 2657TIP3   OH229461   1.186   1.210   5.465  0.1018  0.1277  0.1134
 2657TIP3    H129462   1.272   1.169   5.469  0.0222  0.0789  1.5778
 2657TIP3    H229463   1.204   1.303   5.459  0.2588  0.0692 -0.3456
 2658TIP3   OH229464   6.506   2.821   2.557 -0.3309  0.2427 -0.4644
 2658TIP3    H129465   6.441   2.757   2.527 -0.4582  0.3686 -0.4579
 2658TIP3    H229466   6.457   2.882   2.612  0.1298 -0.6377  0.9292
 2659TIP3   OH229467   3.985   1.532  10.572  0.6111 -0.1694 -0.1202
 2659TIP3    H129468   3.945   1.450  10.601 -0.5422  0.1852 -0.7138
 2659TIP3    H229469   3.931   1.561  10.498 -0.1725  2.1317  1.3023
 2660TIP3   OH229470   0.153   4.036   2.679  0.6162 -0.4234 -0.6488
 2660TIP3    H129471   0.099   3.995   2.612  1.7443 -0.7288 -1.3999
 2660TIP3    H229472   0.182   3.964   2.734  0.9530 -0.3780 -0.7645
 2661TIP3   OH229473   4.680   2.813  14.738 -0.7819  0.2810 -0.3791
 2661TIP3    H129474   4.685   2.878  14.668 -0.1620 -0.2991 -0.8785
 2661TIP3    H229475   4.757   2.758  14.726 -2.4352 -1.9230 -1.3244
 2662TIP3   OH229476   1.502   2.785  13.637 -0.3568  0.4924 -0.5390
 2662TIP3    H129477   1.587   2.758  13.672  0.3630  0.5443 -2.1792
 2662TIP3    H229478   1.483   2.868  13.681  0.4235  0.4546 -0.1212
 2663TIP3   OH229479   5.131   3.543   1.910  0.5172 -0.4076  0.1268
 2663TIP3    H129480   5.144   3.453   1.941 -0.1471 -0.7321 -0.5343
 2663TIP3    H229481   5.095   3.590   1.985  1.2531 -0.5933  0.5991
 2664TIP3   OH229482   5.165   5.576   1.283  0.2687  0.8622  0.1314
 2664TIP3    H129483   5.087   5.621   1.313  1.3572  2.6343  0.3914
 2664TIP3    H229484   5.212   5.641   1.230  0.9655 -0.5502 -1.0341
 2665TIP3   OH229485   0.553   5.605   0.007  0.0346  0.5584 -0.2437
 2665TIP3    H129486   0.527   5.655   0.085 -0.1226 -0.2417  0.2313
 2665TIP3    H229487   0.497   5.638  -0.063 -1.5197 -0.3709  0.5240
 2666TIP3   OH229488   4.828   1.170  11.394 -0.6623 -0.3841 -0.6176
 2666TIP3    H129489   4.837   1.260  11.426  0.5869 -0.7050 -0.0248
 2666TIP3    H229490   4.847   1.176  11.300 -1.5687  0.1175 -0.7757
 2667TIP3   OH229491   5.411   4.265  13.577 -0.0583 -0.0396 -0.1187
 2667TIP3    H129492   5.380   4.226  13.658 -0.3439 -1.9669 -1.1375
 2667TIP3    H229493   5.441   4.353  13.603 -0.2894 -0.5632  2.0220
 2668TIP3   OH229494   2.367   6.717   1.982 -0.0767 -0.1434  0.4049
 2668TIP3    H129495   2.456   6.732   2.015  0.9168 -2.3384 -1.1570
 2668TIP3    H229496   2.365   6.762   1.897 -0.3596 -0.4106  0.2715
 2669TIP3   OH229497   1.707   4.634  12.623 -0.3833 -0.3928  0.0293
 2669TIP3    H129498   1.784   4.676  12.584 -0.0521  0.2038  1.3272
 2669TIP3    H229499   1.709   4.545  12.588  0.9820 -0.4308  0.1647
 2670TIP3   OH229500   2.855   2.830  13.478 -0.3897 -0.1598 -0.3262
 2670TIP3    H129501   2.831   2.888  13.405 -1.1895  0.9969  0.8327
 2670TIP3    H229502   2.795   2.756  13.470 -2.1670  1.1364  0.5758
 2671TIP3   OH229503   3.260   1.330   4.281 -0.1515  0.5279  0.0665
 2671TIP3    H129504   3.317   1.404   4.304 -0.0989  0.4162  0.3024
 2671TIP3    H229505   3.177   1.348   4.325 -0.3681  0.7963 -0.4534
 2672TIP3   OH229506   2.505   5.862  16.997  0.2232 -0.2157 -0.0960
 2672TIP3    H129507   2.419   5.896  17.023  0.2088 -1.6502  1.8600
 2672TIP3    H229508   2.496   5.841  16.904 -0.5763  2.5577 -0.6862
 2673TIP3   OH229509   4.890   4.409   0.736  0.9267  0.7283 -0.3449
 2673TIP3    H129510   4.824   4.474   0.762  1.3441  1.2596 -0.6074
 2673TIP3    H229511   4.929   4.381   0.819  0.1961  0.2198 -0.1659
 2674TIP3   OH229512   6.536   1.513   2.559 -0.3849  0.3332  0.3497
 2674TIP3    H129513   6.499   1.566   2.488 -0.3132  1.0146  0.8139
 2674TIP3    H229514   6.584   1.443   2.515 -0.3962  0.7165 -0.2694
 2675TIP3   OH229515   4.991   3.925  15.636  0.2284  0.5749  0.0303
 2675TIP3    H129516   5.059   3.940  15.571 -0.4867 -1.1943 -1.1697
 2675TIP3    H229517   4.909   3.941  15.589 -0.2702 -0.0387  0.6770
 2676TIP3   OH229518   1.635   2.586  12.396 -0.1612 -0.6244 -0.0357
 2676TIP3    H129519   1.628   2.636  12.477 -1.2645  1.0372 -1.1233
 2676TIP3    H229520   1.572   2.515  12.406 -2.4783  1.2809 -0.5902
 2677TIP3   OH229521   4.646   5.445   5.652 -0.4439 -0.3502 -0.4713
 2677TIP3    H129522   4.654   5.370   5.593  0.2906 -0.1808 -0.5898
 2677TIP3    H229523   4.563   5.431   5.697  0.0233 -1.5967  0.0077
 2678TIP3   OH229524   4.466   2.895   5.433  0.1194  0.4217  0.0164
 2678TIP3    H129525   4.456   2.814   5.384 -2.4323  1.4994 -1.3134
 2678TIP3    H229526   4.403   2.889   5.504 -0.6699  1.5869 -0.5747
 2679TIP3   OH229527   1.428   1.406   4.371  0.1115 -0.0689 -0.1000
 2679TIP3    H129528   1.365   1.334   4.367 -1.3432  1.1765  0.0040
 2679TIP3    H229529   1.462   1.413   4.282 -2.4262  1.4277 -1.0161
 2680TIP3   OH229530   5.088   5.738   5.832  0.0585  0.0419 -0.1849
 2680TIP3    H129531   5.172   5.749   5.789 -0.2418 -0.0971 -0.8133
 2680TIP3    H229532   5.106   5.755   5.925  0.7576  0.0833 -0.3256
 2681TIP3   OH229533   1.586   5.407   4.103 -0.1110 -0.3543  0.3875
 2681TIP3    H129534   1.638   5.425   4.025  2.1083 -2.9205  1.2035
 2681TIP3    H229535   1.497   5.397   4.071  0.4547  0.5597 -1.5302
 2682TIP3   OH229536   3.270   1.316  14.780  0.0807  0.0948  0.1059
 2682TIP3    H129537   3.298   1.326  14.689  0.6973  0.1141  0.2951
 2682TIP3    H229538   3.296   1.398  14.822  1.6384 -0.7269  0.7679
 2683TIP3   OH229539   3.829   5.942   3.233  0.3801  0.0059 -0.4642
 2683TIP3    H129540   3.843   6.025   3.186 -0.4552  1.7659  2.2856
 2683TIP3    H229541   3.917   5.912   3.254  0.6870  0.3043 -1.2994
 2684TIP3   OH229542   3.794   0.550  16.106  0.2046 -0.1798  0.1888
 2684TIP3    H129543   3.719   0.539  16.163  0.0291 -0.3413 -0.0731
 2684TIP3    H229544   3.834   0.463  16.102 -0.2496 -0.3608 -0.5760
 2685TIP3   OH229545   2.710   4.416  13.312  0.7999 -0.4513 -0.1723
 2685TIP3    H129546   2.708   4.336  13.365  0.4309 -0.6336 -0.4599
 2685TIP3    H229547   2.690   4.486  13.374  0.1368 -0.6894 -0.1112
 2686TIP3   OH229548   1.263   2.826  14.651 -0.9001 -0.1224  0.0246
 2686TIP3    H129549   1.180   2.801  14.691 -1.0855  0.1458 -0.1996
 2686TIP3    H229550   1.240   2.884  14.579 -0.6822 -1.9013 -1.5114
 2687TIP3   OH229551   0.329   4.108  15.340  0.2801  0.5371 -0.7220
 2687TIP3    H129552   0.372   4.105  15.426  0.8902 -0.2173 -1.0461
 2687TIP3    H229553   0.248   4.157  15.355  0.0289 -0.1993  0.4510
 2688TIP3   OH229554   0.357   1.408   4.288 -0.6391 -0.2404  0.4855
 2688TIP3    H129555   0.388   1.450   4.368  1.2676 -0.9591  0.1489
 2688TIP3    H229556   0.343   1.317   4.313 -0.7223 -0.3170  0.1651
 2689TIP3   OH229557   3.086   6.500   0.817  0.0683  0.2953 -0.2369
 2689TIP3    H129558   3.015   6.557   0.845  1.5298  1.6669  0.7640
 2689TIP3    H229559   3.111   6.452   0.896  0.4350  0.0256 -0.5143
 2690TIP3   OH229560   3.899   5.217   6.687 -0.3898 -0.0560 -0.0385
 2690TIP3    H129561   3.978   5.223   6.741 -1.6834  0.2946  1.9006
 2690TIP3    H229562   3.887   5.123   6.672  0.6306 -0.0823 -0.7253
 2691TIP3   OH229563   4.784   1.514  15.695 -0.0943  0.4260  0.0109
 2691TIP3    H129564   4.834   1.440  15.662  0.1564  1.4339 -1.9114
 2691TIP3    H229565   4.829   1.591  15.662 -1.0757  1.4211  0.9405
 2692TIP3   OH229566   1.394   4.015  13.839 -0.3325 -0.2824  0.0186
 2692TIP3    H129567   1.457   3.949  13.811  0.7744  0.4835  0.6621
 2692TIP3    H229568   1.328   4.017  13.769  0.5946 -0.7715 -0.8720
 2693TIP3   OH229569   3.446   4.030   3.649 -0.1064 -0.7054 -0.5352
 2693TIP3    H129570   3.515   4.044   3.585 -0.1061  0.3836 -0.3061
 2693TIP3    H229571   3.488   4.044   3.733 -0.2491 -1.5619 -0.3124
 2694TIP3   OH229572   2.978   0.309  12.122  0.0721 -0.3534  0.6678
 2694TIP3    H129573   3.002   0.251  12.050  0.0201 -0.9675  1.1320
 2694TIP3    H229574   3.062   0.344  12.153  0.2082 -1.0643  1.1104
 2695TIP3   OH229575   5.794   3.438   4.545 -0.0567  0.4676  0.2090
 2695TIP3    H129576   5.849   3.451   4.622  1.1983 -1.2966 -0.3554
 2695TIP3    H229577   5.837   3.489   4.476 -0.6940  1.3385  0.4467
 2696TIP3   OH229578   1.271   3.537   2.398 -0.3751  0.1701  0.3229
 2696TIP3    H129579   1.181   3.554   2.373 -0.4234  1.9577  1.5587
 2696TIP3    H229580   1.320   3.537   2.316 -1.0889  2.1146 -0.1324
 2697TIP3   OH229581   2.066   3.178  11.497  0.2778 -0.0414 -0.3001
 2697TIP3    H129582   2.123   3.211  11.566  0.7759 -0.5158 -0.4808
 2697TIP3    H229583   1.989   3.235  11.500  1.3107  1.4173 -0.9283
 2698TIP3   OH229584   2.661   2.353  13.082  0.0856  0.3610 -0.0292
 2698TIP3    H129585   2.642   2.317  13.168 -0.0190 -1.6120 -0.8530
 2698TIP3    H229586   2.579   2.397  13.056 -0.4432 -0.4846  0.1786
 2699TIP3   OH229587   4.075   4.246  12.429 -0.2026 -0.6865  0.0695
 2699TIP3    H129588   4.086   4.178  12.363 -3.4734 -2.4777  1.2987
 2699TIP3    H229589   4.034   4.318  12.382  0.0863 -0.8602 -0.4568
 2700TIP3   OH229590   0.752   5.297   0.358 -0.9330  0.4542 -0.0097
 2700TIP3    H129591   0.814   5.225   0.351 -0.3179  0.8926  0.7584
 2700TIP3    H229592   0.785   5.363   0.296 -1.1464  0.3164 -0.2678
 2701TIP3   OH229593   0.259   5.320  13.366  0.1892  0.2962  0.3143
 2701TIP3    H129594   0.354   5.323  13.360  0.2779 -1.5189  0.6549
 2701TIP3    H229595   0.230   5.300  13.277 -0.0177  2.9172 -0.2641
 2702TIP3   OH229596   2.008   1.714  13.618  1.2252 -0.6020  0.4827
 2702TIP3    H129597   2.102   1.722  13.607  1.0273 -0.8752 -1.5950
 2702TIP3    H229598   1.985   1.632  13.575  0.0512 -0.6053  1.0823
 2703TIP3   OH229599   6.086   3.133   5.387 -0.3252  0.7735  0.3232
 2703TIP3    H129600   6.072   3.106   5.478  0.0193  0.4499  0.2786
 2703TIP3    H229601   6.037   3.069   5.336 -0.9253  1.2430  0.3012
 2704TIP3   OH229602   2.749   3.060   6.226 -0.0926 -0.1728 -0.9557
 2704TIP3    H129603   2.829   3.015   6.197 -0.2041 -0.4121 -0.8913
 2704TIP3    H229604   2.781   3.129   6.284 -0.1607 -3.1775  2.9263
 2705TIP3   OH229605   5.232   0.713   3.242  0.1705  0.3143  0.1689
 2705TIP3    H129606   5.219   0.795   3.196  0.0516  0.3650  0.2947
 2705TIP3    H229607   5.249   0.738   3.333  0.4063  0.2145  0.1546
 2706TIP3   OH229608   0.062   3.832   1.227  0.1890 -0.1839 -0.3819
 2706TIP3    H129609  -0.031   3.811   1.216  0.0667  1.7023 -3.8137
 2706TIP3    H229610   0.063   3.906   1.288 -0.9901  2.3548 -3.2755
 2707TIP3   OH229611   1.014   2.535   2.653 -0.4973  0.1375 -0.0213
 2707TIP3    H129612   1.031   2.468   2.587 -3.5213  1.0818 -1.8371
 2707TIP3    H229613   1.033   2.618   2.609 -1.7965  0.7351  0.5222
 2708TIP3   OH229614   3.425   4.872  12.338  0.2121  0.1847  0.4029
 2708TIP3    H129615   3.519   4.885  12.327  0.1933 -0.1596 -0.1341
 2708TIP3    H229616   3.389   4.877  12.250 -0.3456  0.8885  0.6692
 2709TIP3   OH229617   0.349   5.950  11.021 -0.1928 -0.0289 -0.6245
 2709TIP3    H129618   0.340   5.859  10.991  0.8787 -0.6210  0.7940
 2709TIP3    H229619   0.307   5.951  11.107 -2.3583  1.4201 -1.6495
 2710TIP3   OH229620   3.730   2.825   2.542  0.1906 -0.6232  0.8581
 2710TIP3    H129621   3.765   2.736   2.539 -1.9947 -1.4723 -0.7188
 2710TIP3    H229622   3.637   2.816   2.520 -0.2124  1.9840  1.2367
 2711TIP3   OH229623   4.480   1.267   2.267  0.1440  0.1902 -0.2189
 2711TIP3    H129624   4.401   1.275   2.322 -0.4862 -0.0746 -1.0678
 2711TIP3    H229625   4.553   1.272   2.328 -0.5072  1.5015  0.4804
 2712TIP3   OH229626   1.569   2.756  16.688  0.1594 -0.0268 -0.1474
 2712TIP3    H129627   1.606   2.697  16.622  0.3589 -0.7999  0.6495
 2712TIP3    H229628   1.635   2.760  16.757  0.6946  2.1274 -0.7558
 2713TIP3   OH229629   4.018   6.249   5.194  0.4879 -0.0775  0.0907
 2713TIP3    H129630   3.987   6.252   5.103 -2.3371 -1.3871  0.9396
 2713TIP3    H229631   4.039   6.339   5.216  0.0138  0.4239 -1.4842
 2714TIP3   OH229632   1.734   6.331   1.904  0.5546 -0.1801  0.2024
 2714TIP3    H129633   1.788   6.346   1.981  1.6121 -0.8532 -0.3856
 2714TIP3    H229634   1.657   6.387   1.916  0.2510 -1.0049  2.1947
 2715TIP3   OH229635   6.008   1.717  12.219 -0.3412  0.1504  0.3183
 2715TIP3    H129636   6.033   1.793  12.166  0.7818 -0.3177  0.1712
 2715TIP3    H229637   6.064   1.724  12.297 -1.2692  0.2762  0.9759
 2716TIP3   OH229638   0.748   6.765   4.956 -0.0717 -0.7986  0.3710
 2716TIP3    H129639   0.676   6.704   4.966 -0.3375 -0.4031  0.8890
 2716TIP3    H229640   0.747   6.789   4.864  0.2232 -1.8088  0.1042
 2717TIP3   OH229641   6.017   0.470  12.590 -0.1635 -0.1808 -0.2929
 2717TIP3    H129642   6.106   0.442  12.610 -0.1276  0.7547  0.9457
 2717TIP3    H229643   6.002   0.545  12.649 -1.5822 -0.0252 -0.8394
 2718TIP3   OH229644   5.556   6.702  13.866  0.0614 -0.0194  0.0878
 2718TIP3    H129645   5.476   6.668  13.826 -0.4865  0.6688  0.5773
 2718TIP3    H229646   5.561   6.656  13.950  0.1725 -0.0492  0.0625
 2719TIP3   OH229647   1.545   1.157   1.911  0.4897  0.0428 -0.1111
 2719TIP3    H129648   1.543   1.113   1.826  0.2101  0.5778 -0.3850
 2719TIP3    H229649   1.485   1.105   1.966 -2.4193  1.9334 -1.3576
 2720TIP3   OH229650   6.025   2.751  17.004 -0.5681  0.5575  0.3298
 2720TIP3    H129651   6.008   2.807  16.928 -0.3254  0.1960  0.0065
 2720TIP3    H229652   6.097   2.794  17.050  0.3621 -0.0542 -0.5139
 2721TIP3   OH229653   2.295   1.554  13.543 -0.0769 -0.1537 -0.4629
 2721TIP3    H129654   2.376   1.603  13.529  0.1379 -0.1631  0.6908
 2721TIP3    H229655   2.293   1.537  13.637 -1.3157 -0.3406 -0.5128
 2722TIP3   OH229656   0.834   3.500   3.162  0.3882 -0.1119  0.1281
 2722TIP3    H129657   0.839   3.496   3.258  0.2099 -1.2892  0.0945
 2722TIP3    H229658   0.898   3.567   3.138  1.1226 -0.4789  1.0125
 2723TIP3   OH229659   3.637   6.306  15.218 -0.5795 -0.4209 -0.4403
 2723TIP3    H129660   3.593   6.289  15.135  0.1874  1.5142 -1.2630
 2723TIP3    H229661   3.568   6.342  15.275 -0.4735  0.9648 -1.1688
 2724TIP3   OH229662   1.405   5.008  11.633 -0.0010 -0.1421  0.4065
 2724TIP3    H129663   1.473   5.038  11.572  0.3344 -0.8824  0.4126
 2724TIP3    H229664   1.452   4.980  11.710 -0.2796 -1.1059  0.2287
 2725TIP3   OH229665   6.294   2.573   0.047 -0.0458  0.0370 -0.8062
 2725TIP3    H129666   6.295   2.490  -0.002 -1.7191 -0.2632 -0.3497
 2725TIP3    H229667   6.378   2.576   0.091 -0.7468 -2.3855  0.7526
 2726TIP3   OH229668   0.406   4.525  13.979  0.1895 -0.1233  0.2276
 2726TIP3    H129669   0.489   4.477  13.984 -0.2402 -0.7481  1.4951
 2726TIP3    H229670   0.394   4.562  14.066  0.8444  2.9093 -0.8953
 2727TIP3   OH229671   3.553   6.004   5.529  0.2016 -0.3898  0.1451
 2727TIP3    H129672   3.464   5.970   5.537 -0.2301  0.4875 -0.8593
 2727TIP3    H229673   3.577   5.988   5.438  0.9954 -0.4048  0.3479
 2728TIP3   OH229674   2.127   2.898  13.535  0.4486  0.5051 -0.2616
 2728TIP3    H129675   2.212   2.940  13.520 -0.1063  1.8944  0.3877
 2728TIP3    H229676   2.067   2.970  13.554 -0.2489 -0.6530  2.2660
 2729TIP3   OH229677   1.294   0.737  12.898 -0.5404 -0.2797  0.2022
 2729TIP3    H129678   1.205   0.706  12.913 -0.9002  0.8180  0.3821
 2729TIP3    H229679   1.297   0.755  12.804 -0.6656  0.1648  0.2837
 2730TIP3   OH229680   3.971   5.649   2.201  0.2584 -0.3005 -0.0189
 2730TIP3    H129681   4.040   5.585   2.186  1.3673  1.4512 -2.7670
 2730TIP3    H229682   3.898   5.618   2.148  0.0247 -0.4695  0.3996
 2731TIP3   OH229683   1.863   0.171   4.367  0.0247  0.3949  0.1071
 2731TIP3    H129684   1.907   0.093   4.399 -0.0176  0.1125 -0.5261
 2731TIP3    H229685   1.889   0.240   4.428  0.7646  0.0774  0.1544
 2732TIP3   OH229686   4.691   4.763  13.233 -0.5383 -0.3927 -0.6177
 2732TIP3    H129687   4.743   4.721  13.300 -1.7357 -0.1473  0.4874
 2732TIP3    H229688   4.750   4.826  13.192  0.1696 -0.4614  0.2855
 2733TIP3   OH229689   4.973   4.401  12.567  0.3775  0.3617 -0.3060
 2733TIP3    H129690   4.881   4.415  12.593 -0.2007 -0.5530 -1.8171
 2733TIP3    H229691   5.004   4.488  12.543  0.3502  0.9155  1.5576
 2734TIP3   OH229692   0.517   3.940  13.907 -0.1506  0.0733  0.1535
 2734TIP3    H129693   0.566   4.012  13.866 -0.1704 -1.0589 -1.9479
 2734TIP3    H229694   0.426   3.955  13.881  0.1107 -1.7415 -1.9297
 2735TIP3   OH229695   6.492   3.202  13.349 -0.0080  0.4667 -0.6278
 2735TIP3    H129696   6.491   3.181  13.442 -1.6494  1.4313 -0.4000
 2735TIP3    H229697   6.401   3.192  13.321  0.3963  0.5526 -2.0536
 2736TIP3   OH229698   6.027   1.634  11.922  0.1589 -0.5763  0.5706
 2736TIP3    H129699   6.073   1.616  12.004 -0.4805 -0.7143  0.9068
 2736TIP3    H229700   5.959   1.567  11.918  0.9599 -1.3213 -0.6859
 2737TIP3   OH229701   3.488   0.303   3.202 -0.2790  0.0900  0.6352
 2737TIP3    H129702   3.564   0.321   3.147  1.7873 -0.4828  3.1690
 2737TIP3    H229703   3.422   0.270   3.142  1.8709 -0.5256 -1.4807
 2738TIP3   OH229704   2.673   0.227   4.327 -0.0260  0.4081 -0.0120
 2738TIP3    H129705   2.696   0.233   4.235 -0.4997 -1.1362 -0.2323
 2738TIP3    H229706   2.635   0.313   4.348 -1.0301  0.3548 -1.5571
 2739TIP3   OH229707   3.151   0.055   3.277 -0.1790  0.0020  0.1020
 2739TIP3    H129708   3.062   0.075   3.305  0.2200 -0.5047  1.7932
 2739TIP3    H229709   3.140  -0.001   3.200 -1.3076  0.3153  0.0301
 2740TIP3   OH229710   1.401   2.628   4.030  0.2702 -0.5980  0.2678
 2740TIP3    H129711   1.423   2.649   4.120 -0.2968  1.5217 -0.0508
 2740TIP3    H229712   1.373   2.536   4.032  2.6524 -1.3246  1.7809
 2741TIP3   OH229713   4.731   5.252   4.274 -0.2860  0.4099  0.2767
 2741TIP3    H129714   4.794   5.318   4.302  1.4560 -0.4338 -1.5502
 2741TIP3    H229715   4.783   5.188   4.225 -2.4596 -0.6678 -0.6796
 2742TIP3   OH229716   5.234   0.456   0.901 -0.3670  0.3142 -0.5477
 2742TIP3    H129717   5.196   0.523   0.957  0.3158  1.2574 -1.1899
 2742TIP3    H229718   5.289   0.403   0.959 -1.1719  0.0992  0.0229
 2743TIP3   OH229719   6.302   1.231   0.531  0.3226  0.0523 -0.6655
 2743TIP3    H129720   6.229   1.187   0.485 -0.3896  0.2546  0.2622
 2743TIP3    H229721   6.380   1.187   0.498 -0.3178 -1.2442 -0.5025
 2744TIP3   OH229722   0.734   4.175   3.523 -1.0513 -0.0500 -0.3268
 2744TIP3    H129723   0.827   4.194   3.528 -0.8833 -0.6535 -1.0665
 2744TIP3    H229724   0.703   4.223   3.446 -1.0891 -0.8671 -0.8323
 2745TIP3   OH229725   2.977   4.112   4.647 -0.0449 -0.1281  0.0377
 2745TIP3    H129726   2.976   4.062   4.728  0.4654 -0.1127  0.0552
 2745TIP3    H229727   2.995   4.202   4.674  0.2908 -0.1500 -0.1009
 2746TIP3   OH229728   6.178   0.128   4.787 -0.3271  0.3888 -0.1740
 2746TIP3    H129729   6.213   0.064   4.725 -0.7561 -0.7391  0.7164
 2746TIP3    H229730   6.120   0.076   4.843 -0.8206  1.6058  0.4456
 2747TIP3   OH229731   2.695   4.497  11.103  0.5687  0.0705  0.1298
 2747TIP3    H129732   2.683   4.413  11.148 -2.7331  0.2549 -0.3233
 2747TIP3    H229733   2.717   4.473  11.013 -0.0022 -0.3073  0.0893
 2748TIP3   OH229734   0.306   5.482  16.621 -0.1877 -0.2203 -0.2644
 2748TIP3    H129735   0.226   5.533  16.633  0.7857  1.2931 -0.0698
 2748TIP3    H229736   0.311   5.467  16.527  1.0546  2.6322 -0.6919
 2749TIP3   OH229737   4.129   4.932   1.921  0.0762 -0.4584  0.1607
 2749TIP3    H129738   4.061   4.978   1.970  0.8420  1.3840 -0.4538
 2749TIP3    H229739   4.196   4.911   1.987  0.8804  1.5822  0.0549
 2750TIP3   OH229740   5.398   4.807  13.506  0.3892  0.0310  0.0593
 2750TIP3    H129741   5.435   4.890  13.538  0.2199 -0.2440  0.9896
 2750TIP3    H229742   5.331   4.834  13.444 -0.4476  0.6400  1.1953
 2751TIP3   OH229743   1.543   5.477   1.482 -0.3921  0.2240 -0.4903
 2751TIP3    H129744   1.551   5.528   1.562 -1.0030  0.0250 -0.2962
 2751TIP3    H229745   1.598   5.523   1.418  1.6529 -0.7228  0.5711
 2752TIP3   OH229746   5.189   0.672  14.321 -0.2766  0.0056 -0.8167
 2752TIP3    H129747   5.255   0.602  14.320  0.4351  0.6111  1.2793
 2752TIP3    H229748   5.105   0.627  14.315  0.2521 -0.8911 -1.5724
 2753TIP3   OH229749   4.293   0.101   2.620 -0.1509  0.5063 -0.2514
 2753TIP3    H129750   4.379   0.065   2.638  0.2527 -0.1019 -3.0521
 2753TIP3    H229751   4.232   0.043   2.664  0.8244  0.5341  1.1567
 2754TIP3   OH229752   2.777   3.783   4.817  1.2209 -0.4535  0.0191
 2754TIP3    H129753   2.793   3.793   4.911 -3.1315 -0.5567  0.8832
 2754TIP3    H229754   2.774   3.688   4.804 -0.0375 -0.4466  0.1807
 2755TIP3   OH229755   0.859   1.697  15.052  0.2551  0.2765 -0.0067
 2755TIP3    H129756   0.869   1.676  15.144 -0.5539 -0.0125  0.0176
 2755TIP3    H229757   0.770   1.669  15.030  0.2413  0.8582 -0.7303
 2756TIP3   OH229758   0.915   1.012   1.472  0.4274 -0.1906  0.4407
 2756TIP3    H129759   0.857   1.046   1.540  1.8859  2.5346  0.3734
 2756TIP3    H229760   1.003   1.023   1.507  1.0709 -1.0645 -0.8696
 2757TIP3   OH229761   6.792   5.365  16.720  0.4559  0.3255 -0.1149
 2757TIP3    H129762   6.854   5.419  16.769  0.7912  1.0448 -1.2930
 2757TIP3    H229763   6.835   5.351  16.635 -0.8407  0.5564 -0.8259
 2758TIP3   OH229764   0.419   4.319   5.630  0.1895  0.5667 -0.2606
 2758TIP3    H129765   0.352   4.263   5.669 -1.8160  0.3643 -3.7411
 2758TIP3    H229766   0.499   4.266   5.631 -0.8327 -1.0166 -0.3156
 2759TIP3   OH229767   6.066   3.880  11.839  0.3101 -0.2155  0.2152
 2759TIP3    H129768   5.992   3.940  11.832  0.9425  0.3734 -2.0286
 2759TIP3    H229769   6.069   3.855  11.931 -1.0226  1.8656  0.8542
 2760TIP3   OH229770   1.429   6.035  14.141  0.3492  0.5501  0.4995
 2760TIP3    H129771   1.340   6.070  14.143 -0.0892 -0.5133  0.0672
 2760TIP3    H229772   1.423   5.951  14.187  1.1146  0.4551  0.4334
 2761TIP3   OH229773   1.881   1.042   1.580  0.7584 -0.4111  0.0868
 2761TIP3    H129774   1.917   1.094   1.652  1.5172  0.3654 -0.8608
 2761TIP3    H229775   1.952   0.983   1.556  0.8098 -0.0471 -0.6451
 2762TIP3   OH229776   2.336   0.382  16.840  0.0372  0.4567  0.5196
 2762TIP3    H129777   2.341   0.339  16.754 -0.3110  0.3552  0.5491
 2762TIP3    H229778   2.257   0.346  16.880  0.1011  0.6400  0.8107
 2763TIP3   OH229779   1.075   1.801  14.721  0.0341  0.2617  0.3630
 2763TIP3    H129780   1.004   1.736  14.714 -0.7469  1.2168 -0.8085
 2763TIP3    H229781   1.105   1.793  14.811 -0.7988 -0.9564  0.5590
 2764TIP3   OH229782   3.793   0.553   3.560 -0.4186  0.1397  0.0560
 2764TIP3    H129783   3.866   0.610   3.585  0.8852 -1.2284 -0.5453
 2764TIP3    H229784   3.835   0.472   3.530 -2.1680 -0.4173 -0.9465
 2765TIP3   OH229785   2.045   4.741  15.869 -0.4960  0.5616 -0.1743
 2765TIP3    H129786   2.080   4.675  15.929  1.3370  0.6872 -1.0798
 2765TIP3    H229787   1.994   4.691  15.805 -0.0121  0.1280 -0.2227
 2766TIP3   OH229788   4.768   2.734  12.705  0.1984 -0.5845  0.0677
 2766TIP3    H129789   4.834   2.675  12.668 -1.1793 -0.4835 -2.6759
 2766TIP3    H229790   4.686   2.707  12.665 -1.3429 -0.2363  2.9024
 2767TIP3   OH229791   0.266   3.262  15.117  0.1640  0.0422 -0.3921
 2767TIP3    H129792   0.321   3.326  15.071 -0.2663  0.2612 -0.5998
 2767TIP3    H229793   0.225   3.312  15.188  0.4581 -0.1884 -0.0553
 2768TIP3   OH229794   3.526   5.711  13.867  0.1143  0.0626 -0.0099
 2768TIP3    H129795   3.469   5.788  13.872 -0.5799 -0.3892 -0.7611
 2768TIP3    H229796   3.557   5.698  13.957 -0.2774  0.8343  0.2406
 2769TIP3   OH229797   4.694   6.508  13.145  0.4567  0.6430  0.5552
 2769TIP3    H129798   4.689   6.508  13.049  2.0188 -0.8621  0.4426
 2769TIP3    H229799   4.622   6.452  13.173  0.4378  0.4971  0.2174
 2770TIP3   OH229800   5.224   0.452  13.791  0.3247  0.2166 -0.1911
 2770TIP3    H129801   5.197   0.502  13.868 -0.2128  0.3221 -0.4443
 2770TIP3    H229802   5.157   0.384  13.783  0.8340 -0.3031 -0.0785
 2771TIP3   OH229803   6.785   3.584   0.215  0.0431 -0.0364 -0.2340
 2771TIP3    H129804   6.846   3.658   0.219  0.1355 -0.1049 -0.4131
 2771TIP3    H229805   6.698   3.625   0.218  0.0938  0.0154  0.9011
 2772TIP3   OH229806   2.847   2.047   5.555  0.3627 -0.1546  0.6841
 2772TIP3    H129807   2.831   2.009   5.641  0.6371  2.1504  1.8043
 2772TIP3    H229808   2.907   1.986   5.512 -1.8775 -2.6944  1.0613
 2773TIP3   OH229809   4.897   4.235   1.646  0.1078  0.0529  0.4563
 2773TIP3    H129810   4.928   4.206   1.560 -0.8575  1.3971 -0.3630
 2773TIP3    H229811   4.975   4.232   1.702  1.0645  0.5031 -0.8235
 2774TIP3   OH229812   4.016   6.455   3.280 -0.2257  0.2124  0.2144
 2774TIP3    H129813   4.006   6.533   3.333  2.3376  1.5327 -1.1616
 2774TIP3    H229814   3.974   6.476   3.197  1.0903  0.4033 -0.4113
 2775TIP3   OH229815   2.181   3.250  14.681  0.2150 -0.0100 -0.0717
 2775TIP3    H129816   2.157   3.331  14.726  1.4832  0.4842 -0.2697
 2775TIP3    H229817   2.172   3.270  14.588  1.0703  0.0767 -0.1362
 2776TIP3   OH229818   3.430   5.153   4.529 -0.0713  0.1491 -0.2376
 2776TIP3    H129819   3.522   5.160   4.501 -0.6214  0.0052 -2.1126
 2776TIP3    H229820   3.425   5.209   4.606  1.9774 -1.1293  0.8653
 2777TIP3   OH229821   4.394   3.404  11.331 -0.7072  0.9273  0.0600
 2777TIP3    H129822   4.328   3.403  11.261 -0.0164  1.4807 -0.6033
 2777TIP3    H229823   4.373   3.327  11.384 -0.3613 -0.3364 -1.5782
 2778TIP3   OH229824   1.609   2.565   2.674 -0.1155 -0.5154  0.2250
 2778TIP3    H129825   1.601   2.646   2.624  0.9448 -0.2834  0.4202
 2778TIP3    H229826   1.636   2.593   2.762 -0.3752 -1.0339  0.4763
 2779TIP3   OH229827   6.438   1.325  13.517  0.1209  0.8324 -0.1600
 2779TIP3    H129828   6.437   1.287  13.605  1.7264  0.5337 -0.2569
 2779TIP3    H229829   6.413   1.253  13.459  2.3160  0.1266 -0.2597
 2780TIP3   OH229830   0.261   3.542   6.358  0.0143  0.8427  0.1131
 2780TIP3    H129831   0.251   3.527   6.264  1.0024 -0.2853  0.1806
 2780TIP3    H229832   0.351   3.516   6.377 -0.7072 -0.5900  1.6880
 2781TIP3   OH229833   0.083   2.511  13.656  0.1400  0.1325  0.0710
 2781TIP3    H129834   0.136   2.437  13.625  1.8806  1.0983  0.6924
 2781TIP3    H229835   0.048   2.550  13.576 -0.3678 -1.0303 -0.2970
 2782TIP3   OH229836   4.309   4.926  11.325 -0.5569  0.2250  0.6269
 2782TIP3    H129837   4.303   4.967  11.411 -2.5250 -1.1755  1.1974
 2782TIP3    H229838   4.273   4.990  11.264 -2.1486 -0.0312  1.2898
 2783TIP3   OH229839   4.806   0.302  14.125  0.3300  0.4153  0.3813
 2783TIP3    H129840   4.812   0.207  14.132 -0.0770  0.4409  1.0891
 2783TIP3    H229841   4.896   0.331  14.109  0.4440 -0.0903  0.0900
 2784TIP3   OH229842   2.626   4.750   2.941 -0.2532 -0.5642  0.2462
 2784TIP3    H129843   2.625   4.712   2.854  2.5096 -0.9922  0.3598
 2784TIP3    H229844   2.569   4.827   2.934 -1.9331 -1.9078 -1.2763
 2785TIP3   OH229845   2.887   1.373   5.103  0.8134 -0.1170 -0.1754
 2785TIP3    H129846   2.832   1.322   5.044 -0.0067  0.3952  0.1295
 2785TIP3    H229847   2.862   1.344   5.191  1.8521 -0.7019 -0.0728
 2786TIP3   OH229848   0.341   4.549   5.219 -0.4627  1.1122  0.5867
 2786TIP3    H129849   0.390   4.528   5.298  1.0525  1.9747 -0.1103
 2786TIP3    H229850   0.309   4.638   5.233 -0.5978  1.0898  0.4211
 2787TIP3   OH229851   3.422   1.901   5.007 -0.4395 -0.2877 -0.5506
 2787TIP3    H129852   3.487   1.868   5.069 -0.9098  1.7566  1.0749
 2787TIP3    H229853   3.339   1.894   5.052 -0.7607  1.4138 -0.8620
 2788TIP3   OH229854   3.696   4.388  16.165 -0.4110  0.2205 -0.5308
 2788TIP3    H129855   3.681   4.387  16.260  0.9188  1.4077 -0.2917
 2788TIP3    H229856   3.659   4.305  16.134  0.0119 -0.6296  1.1675
 2789TIP3   OH229857   1.795   4.339  12.547  0.8273  0.2004  0.1551
 2789TIP3    H129858   1.762   4.262  12.592 -0.5847  1.5156  1.4543
 2789TIP3    H229859   1.882   4.354  12.583  0.4844  0.1134  1.0156
 2790TIP3   OH229860   1.274   1.247  16.054  0.3753 -0.4652  0.3316
 2790TIP3    H129861   1.332   1.202  16.117  1.0833  0.4079  0.3209
 2790TIP3    H229862   1.333   1.277  15.985 -0.2587 -0.5182 -0.2338
 2791TIP3   OH229863   2.065   5.267  16.828  0.3304 -0.0424  0.4492
 2791TIP3    H129864   2.004   5.240  16.759  2.9251  2.2574 -2.9092
 2791TIP3    H229865   2.148   5.224  16.804  1.0943  0.2431  2.5459
 2792TIP3   OH229866   6.432   6.580  12.399 -0.0706  0.1792 -0.2085
 2792TIP3    H129867   6.521   6.548  12.416 -0.7873 -1.7900 -0.0451
 2792TIP3    H229868   6.395   6.595  12.487  0.2741  1.5250 -0.2858
 2793TIP3   OH229869   0.456   2.976   0.771  0.6609  0.7317 -0.5686
 2793TIP3    H129870   0.441   2.883   0.753  0.6965  0.8127 -1.0136
 2793TIP3    H229871   0.383   3.002   0.827  0.5349  0.4889 -0.6208
 2794TIP3   OH229872   3.027   0.135   2.912 -0.4502  0.2379  0.5073
 2794TIP3    H129873   3.051   0.163   2.823  0.5011  1.0243  0.9972
 2794TIP3    H229874   2.970   0.059   2.899 -2.3955  1.8676 -0.8419
 2795TIP3   OH229875   5.852   2.559  15.336  0.7588  0.7237  0.3141
 2795TIP3    H129876   5.762   2.537  15.313  0.6842 -0.6293  1.8418
 2795TIP3    H229877   5.856   2.654  15.328 -0.8554  0.8176  0.4077
 2796TIP3   OH229878   2.498   1.644  13.881  0.2539  0.2096 -0.3194
 2796TIP3    H129879   2.516   1.685  13.966  0.5484  1.7717 -1.1049
 2796TIP3    H229880   2.458   1.560  13.903 -0.3359  0.8940  1.3566
 2797TIP3   OH229881   1.004   2.501   5.923  1.0964  0.5191  0.1225
 2797TIP3    H129882   1.033   2.460   6.004  1.0014  0.4419  0.1177
 2797TIP3    H229883   1.046   2.587   5.923 -0.1511  1.1602  1.0341
 2798TIP3   OH229884   6.233   2.161  14.936 -0.2143  0.0411 -0.4138
 2798TIP3    H129885   6.259   2.207  14.856 -0.6111  0.3534 -0.3634
 2798TIP3    H229886   6.270   2.215  15.006  1.9618 -1.3593 -0.4375
 2799TIP3   OH229887   4.227   4.995   0.327  0.1969 -0.5567  0.6460
 2799TIP3    H129888   4.250   5.023   0.239 -0.3318 -0.5879  0.4989
 2799TIP3    H229889   4.248   4.902   0.329 -0.9843 -0.8435  0.1492
 2800TIP3   OH229890   0.042   2.440   5.984 -0.0829 -0.7394 -0.1740
 2800TIP3    H129891   0.136   2.431   5.997  0.0839  0.1011 -0.7721
 2800TIP3    H229892   0.033   2.508   5.918 -1.1859  0.4690  1.1869
 2801TIP3   OH229893   0.794   5.024   2.677  0.1578  0.2879  0.5077
 2801TIP3    H129894   0.793   4.944   2.624  0.8430 -0.2852  1.3388
 2801TIP3    H229895   0.725   5.078   2.639 -0.2562 -0.6567 -0.1307
 2802TIP3   OH229896   3.630   6.663  13.115  0.4381  0.3276  0.3459
 2802TIP3    H129897   3.537   6.675  13.096  0.6998  2.3685  0.1928
 2802TIP3    H229898   3.633   6.588  13.175 -1.4073  0.8965  1.1958
 2803TIP3   OH229899   0.051   6.124  14.263  0.1192  0.1331 -0.2885
 2803TIP3    H129900   0.082   6.202  14.310  2.4782 -1.7227  1.3183
 2803TIP3    H229901  -0.043   6.122  14.280  0.6121  0.6359  2.7252
 2804TIP3   OH229902   0.625   3.316  15.556 -0.2299  0.2773 -0.3118
 2804TIP3    H129903   0.580   3.234  15.574  1.1320 -0.4613 -0.1718
 2804TIP3    H229904   0.718   3.294  15.563  0.1396  2.3005  1.8374
 2805TIP3   OH229905   1.635   3.296  15.360  0.1423 -0.5700  0.2731
 2805TIP3    H129906   1.716   3.306  15.310  0.5707 -0.3048  1.0081
 2805TIP3    H229907   1.585   3.229  15.313  0.2607  0.1268 -0.8555
 2806TIP3   OH229908   3.679   2.102  15.370  0.1826  0.5510 -0.0482
 2806TIP3    H129909   3.603   2.077  15.316 -1.2511  0.1304  2.1061
 2806TIP3    H229910   3.727   2.020  15.382 -0.8560  0.1239  1.3584
 2807TIP3   OH229911   2.904   4.364  12.405  0.0907 -0.2058  0.5706
 2807TIP3    H129912   2.818   4.399  12.428  0.4825  0.5780  0.8539
 2807TIP3    H229913   2.966   4.430  12.436  0.7273 -0.0446 -0.9954
 2808TIP3   OH229914   0.310   2.702  16.566 -0.2170  0.1238 -0.3028
 2808TIP3    H129915   0.340   2.688  16.656  0.3953 -1.3158 -0.7093
 2808TIP3    H229916   0.307   2.797  16.555 -1.4024  0.3260  1.5890
 2809TIP3   OH229917   2.629   0.974  11.191 -0.1368 -0.2438  0.5909
 2809TIP3    H129918   2.634   0.904  11.125  0.6237  0.8432 -0.5201
 2809TIP3    H229919   2.536   0.994  11.198 -0.3178 -1.0630  0.5992
 2810TIP3   OH229920   5.040   6.205  13.418  0.2095 -0.5700  0.5187
 2810TIP3    H129921   4.971   6.237  13.360 -0.5151  0.1100  1.7493
 2810TIP3    H229922   5.089   6.142  13.364  0.5728  1.2780 -1.3791
 2811TIP3   OH229923   6.097   3.072   5.655  0.3053 -0.0888  0.7610
 2811TIP3    H129924   6.080   3.163   5.680  0.0889  0.3779 -0.9872
 2811TIP3    H229925   6.188   3.056   5.679  0.5699  0.8435  0.3784
 2812TIP3   OH229926   5.859   4.057  12.769 -0.6158 -0.2629 -0.4045
 2812TIP3    H129927   5.865   3.986  12.706 -0.1839  0.3861 -1.1040
 2812TIP3    H229928   5.774   4.097  12.753 -1.6856 -1.7981  1.2709
 2813TIP3   OH229929   2.506   4.392  12.135  0.1067 -0.3984 -0.4053
 2813TIP3    H129930   2.601   4.389  12.129  0.0547  0.4566 -1.8895
 2813TIP3    H229931   2.478   4.301  12.125  0.7902 -0.7570  0.8149
 2814TIP3   OH229932   2.498   1.045   0.998 -0.6085 -0.4675  0.5572
 2814TIP3    H129933   2.590   1.061   0.979 -1.5125  2.0001 -2.1886
 2814TIP3    H229934   2.458   1.028   0.913 -3.1129  1.0314  1.3471
 2815TIP3   OH229935   3.669   3.222  14.183 -0.3994  0.0126 -0.4226
 2815TIP3    H129936   3.643   3.294  14.240 -0.8067 -0.4613 -0.0012
 2815TIP3    H229937   3.764   3.229  14.178 -0.2124 -0.7519  1.4476
 2816TIP3   OH229938   5.873   1.926  14.312 -0.2145 -0.2021  0.0185
 2816TIP3    H129939   5.886   1.858  14.247 -0.4344 -0.1392 -0.0942
 2816TIP3    H229940   5.806   1.983  14.273  0.8009  0.7227 -0.4001
 2817TIP3   OH229941   2.291   4.773   2.696 -0.1418  0.0252  0.2823
 2817TIP3    H129942   2.363   4.710   2.689 -0.3347 -0.1198 -0.3901
 2817TIP3    H229943   2.252   4.754   2.782  0.1930 -0.3525  0.3549
 2818TIP3   OH229944   1.732   1.343   4.966 -0.1408 -0.5779  0.1897
 2818TIP3    H129945   1.671   1.402   4.923 -1.2401 -1.7504  0.1021
 2818TIP3    H229946   1.815   1.392   4.970 -1.0204  0.9379  0.1226
 2819TIP3   OH229947   3.554   2.713  12.121 -0.3487  0.7191  0.1960
 2819TIP3    H129948   3.527   2.755  12.203  1.5759  0.5958  0.9193
 2819TIP3    H229949   3.631   2.762  12.093 -0.0909 -0.2036 -0.7368
 2820TIP3   OH229950   5.631   4.505   3.600  0.1286  0.0025  0.7200
 2820TIP3    H129951   5.675   4.462   3.673  1.1138 -0.8797 -0.3734
 2820TIP3    H229952   5.593   4.434   3.549 -0.7963  0.6287  0.5168
 2821TIP3   OH229953   4.372   1.332   5.296  0.7196  0.7498  0.2398
 2821TIP3    H129954   4.357   1.412   5.346 -1.7702 -0.3647  1.3445
 2821TIP3    H229955   4.402   1.268   5.362  0.5433  0.1672 -0.2422
 2822TIP3   OH229956   1.747   5.968   5.334  0.3541  0.3931 -0.3501
 2822TIP3    H129957   1.746   6.043   5.274  2.2101  1.7660  1.2561
 2822TIP3    H229958   1.819   5.913   5.304 -0.6100 -0.4592 -1.1473
 2823TIP3   OH229959   4.047   4.990  13.617 -0.5882 -0.1093  0.2269
 2823TIP3    H129960   4.095   4.934  13.678 -0.5597 -0.2557  0.0697
 2823TIP3    H229961   3.963   4.946  13.605 -0.4684 -0.2532 -0.0947
 2824TIP3   OH229962   2.791   6.268  14.589 -0.7287  0.7546 -0.3275
 2824TIP3    H129963   2.840   6.349  14.571 -1.1459  1.0748 -0.0393
 2824TIP3    H229964   2.858   6.200  14.592 -0.0182  1.4892  2.1244
 2825TIP3   OH229965   6.094   6.705   3.672  0.4691  0.1934  0.3638
 2825TIP3    H129966   6.029   6.772   3.647  0.7967 -0.0618 -1.1796
 2825TIP3    H229967   6.150   6.750   3.735  0.0583  1.0720  0.1217
 2826TIP3   OH229968   1.507   5.460  14.032 -0.0039 -0.1004 -0.5920
 2826TIP3    H129969   1.513   5.555  14.021 -1.1724  0.1614  0.8287
 2826TIP3    H229970   1.468   5.448  14.119  2.9458 -1.9465  0.5347
 2827TIP3   OH229971   3.567   5.350  10.671 -0.3069  0.4157  0.3296
 2827TIP3    H129972   3.514   5.271  10.660  1.3570 -0.6017 -0.7001
 2827TIP3    H229973   3.559   5.395  10.587 -0.9363  1.1453  0.7804
 2828TIP3   OH229974   0.050   5.649  16.583 -0.0567  0.0745 -0.6119
 2828TIP3    H129975  -0.015   5.611  16.524  1.1068 -2.3995 -0.3686
 2828TIP3    H229976   0.002   5.717  16.630 -1.8259 -0.0433 -2.1611
 2829TIP3   OH229977   5.025   5.611  16.420  0.4465  0.2336  0.2253
 2829TIP3    H129978   5.089   5.661  16.370 -1.1306 -0.7048 -2.8488
 2829TIP3    H229979   5.073   5.534  16.451  2.0402  1.9877  2.2456
 2830TIP3   OH229980   6.770   3.568  13.099 -0.1441  0.2684 -0.3165
 2830TIP3    H129981   6.688   3.521  13.086 -1.7607  2.8501  0.1661
 2830TIP3    H229982   6.817   3.557  13.017 -1.7270  0.2096 -1.2287
 2831TIP3   OH229983   4.308   2.926  17.073 -0.4294  0.3145 -0.1230
 2831TIP3    H129984   4.262   3.006  17.098 -3.6364 -1.5026  0.0760
 2831TIP3    H229985   4.291   2.916  16.979 -1.9046 -1.2253  0.2756
 2832TIP3   OH229986   0.193   6.110   2.536 -0.3090 -0.2221  0.6135
 2832TIP3    H129987   0.279   6.068   2.546 -0.7108 -0.8192  1.6289
 2832TIP3    H229988   0.175   6.104   2.442 -0.6940 -3.0283  0.8024
 2833TIP3   OH229989   6.070   5.774   5.304  0.3841 -0.2121 -0.9393
 2833TIP3    H129990   6.110   5.723   5.234  1.0976  0.4908 -1.0570
 2833TIP3    H229991   6.139   5.834   5.332  0.7113 -1.6649  1.5860
 2834TIP3   OH229992   5.563   5.620  13.668 -0.0339 -0.1366  0.1359
 2834TIP3    H129993   5.484   5.578  13.634 -0.6193 -0.0814  1.3938
 2834TIP3    H229994   5.588   5.566  13.743  0.9509  0.0288 -0.0688
 2835TIP3   OH229995   1.533   2.233  11.752  0.2721 -0.0703  0.6899
 2835TIP3    H129996   1.612   2.281  11.730  0.7252 -1.0966  0.0359
 2835TIP3    H229997   1.464   2.276  11.702  0.7554 -0.4072 -0.2742
 2836TIP3   OH229998   0.937   0.022  15.613  0.1802 -0.3968  0.4508
 2836TIP3    H129999   0.890   0.075  15.677  1.5953  2.1016 -0.5055
 2836TIP3    H230000   1.010  -0.016  15.662  1.3186  1.5853  0.3549
 2837TIP3   OH230001   1.252   2.219   1.895 -0.2333  0.8081 -0.3884
 2837TIP3    H130002   1.262   2.150   1.830  0.1195  0.8789 -0.4096
 2837TIP3    H230003   1.250   2.174   1.979 -1.7680  0.6252 -0.5147
 2838TIP3   OH230004   0.658   4.868   4.231 -0.2626 -0.0877  0.0050
 2838TIP3    H130005   0.591   4.830   4.175 -1.5582 -0.2910  1.6487
 2838TIP3    H230006   0.694   4.794   4.280  1.2425  0.0044 -0.9156
 2839TIP3   OH230007   1.602   3.311   4.371 -0.0551  0.2391  0.4050
 2839TIP3    H130008   1.640   3.397   4.357 -1.8204  0.7842 -1.3011
 2839TIP3    H230009   1.653   3.253   4.315 -0.0977  0.5081  0.0897
 2840TIP3   OH230010   3.273   3.536   1.489  0.1262 -1.1148 -0.1922
 2840TIP3    H130011   3.295   3.447   1.518  0.4920 -0.0334  3.0572
 2840TIP3    H230012   3.354   3.585   1.501 -0.4912  0.0024 -0.5307
 2841TIP3   OH230013   2.079   5.063  14.177 -0.5756 -0.1766 -0.2645
 2841TIP3    H130014   2.058   5.111  14.256  0.6552 -0.9886  0.5834
 2841TIP3    H230015   2.076   4.971  14.203  0.3964 -0.4324 -1.0128
 2842TIP3   OH230016   2.051   0.855   4.767 -0.2332  0.0675 -0.7720
 2842TIP3    H130017   1.961   0.887   4.778 -1.0593 -2.3089 -0.2430
 2842TIP3    H230018   2.095   0.876   4.849 -0.5730  0.3947 -0.6729
 2843TIP3   OH230019   0.545   6.583  17.129  0.3997  0.3418  0.3526
 2843TIP3    H130020   0.543   6.553  17.220 -0.4603  1.1242  0.5898
 2843TIP3    H230021   0.466   6.635  17.119  0.3842  0.0903 -0.9093
 2844TIP3   OH230022   2.797   1.325   1.492  0.6718  0.0344  0.1107
 2844TIP3    H130023   2.822   1.413   1.521 -0.3315  0.2171  0.4184
 2844TIP3    H230024   2.731   1.339   1.425  0.0064 -0.4965  0.6391
 2845TIP3   OH230025   0.423   1.282   5.244  0.3215 -0.6591 -0.2399
 2845TIP3    H130026   0.443   1.207   5.300 -1.1719 -1.7084 -1.0556
 2845TIP3    H230027   0.425   1.357   5.302 -1.5279 -1.7694  1.3232
 2846TIP3   OH230028   4.799   3.247   4.480 -0.3387 -0.6333  0.0949
 2846TIP3    H130029   4.735   3.313   4.506 -0.1581  0.0832 -1.2243
 2846TIP3    H230030   4.860   3.241   4.554 -1.1302 -0.3184  0.7754
 2847TIP3   OH230031   6.360   3.976  15.981  0.1686  0.0452 -0.4812
 2847TIP3    H130032   6.447   3.988  16.019  0.7102 -0.7983 -1.4498
 2847TIP3    H230033   6.331   3.891  16.015  0.0606 -0.0470 -0.8040
 2848TIP3   OH230034   2.719   1.281  15.786 -0.0223 -0.0616  0.0588
 2848TIP3    H130035   2.636   1.324  15.809  0.2052  0.5994 -0.3356
 2848TIP3    H230036   2.695   1.190  15.769 -0.4915 -0.1382  1.0657
 2849TIP3   OH230037   2.456   4.834  14.404  0.7320 -0.3955  0.4570
 2849TIP3    H130038   2.488   4.773  14.470  1.9142 -0.2654  0.0069
 2849TIP3    H230039   2.527   4.898  14.394  0.8460 -0.8083 -1.4443
 2850TIP3   OH230040   0.815   0.195  10.824 -0.0556 -0.0735  0.1387
 2850TIP3    H130041   0.751   0.133  10.860 -1.9760  0.5114 -2.1344
 2850TIP3    H230042   0.857   0.147  10.753 -0.4884  0.6886 -0.6482
 2851TIP3   OH230043   6.171   1.038   5.264  0.0873 -0.4263 -0.1306
 2851TIP3    H130044   6.138   1.115   5.309 -0.1811 -1.0409  0.7415
 2851TIP3    H230045   6.147   1.051   5.172  0.6725  0.8571 -0.1082
 2852TIP3   OH230046   6.298   4.826   1.362  0.2999 -0.1908  0.0419
 2852TIP3    H130047   6.273   4.783   1.444 -1.2606 -0.5827 -0.6089
 2852TIP3    H230048   6.362   4.892   1.388  0.3879 -0.8263  1.4779
 2853TIP3   OH230049   0.140   4.139   5.691  0.4852  0.2439  0.5730
 2853TIP3    H130050   0.212   4.077   5.691  0.0608 -0.2582 -0.0413
 2853TIP3    H230051   0.081   4.108   5.760  0.7283  0.5078  0.9021
 2854TIP3   OH230052   5.912   2.611  14.768  0.0168  0.0229 -0.0290
 2854TIP3    H130053   5.958   2.693  14.750  0.0991 -0.4307 -1.9189
 2854TIP3    H230054   5.981   2.550  14.793  0.2902 -0.2488 -1.4171
 2855TIP3   OH230055   4.278   3.919  12.135 -0.1946  0.2484 -0.1791
 2855TIP3    H130056   4.268   3.835  12.181  0.1716  0.9057  1.1512
 2855TIP3    H230057   4.310   3.895  12.048 -0.0197 -0.9907  0.2056
 2856TIP3   OH230058   6.718   6.015  14.879  0.5409 -0.4487  0.6652
 2856TIP3    H130059   6.780   6.029  14.808 -0.4131  0.7125  0.0569
 2856TIP3    H230060   6.660   5.946  14.847  1.0927 -1.0729  0.9779
 2857TIP3   OH230061   5.735   0.161   0.203 -0.2584  0.2685 -0.3186
 2857TIP3    H130062   5.709   0.253   0.199 -0.7319  0.1033 -1.0947
 2857TIP3    H230063   5.654   0.113   0.187 -0.3129 -0.3170  1.5567
 2858TIP3   OH230064   0.738   0.842  16.641 -0.3114 -0.3544 -0.2119
 2858TIP3    H130065   0.676   0.826  16.712  0.6687 -2.7344  0.1349
 2858TIP3    H230066   0.824   0.826  16.679  0.3188 -0.2309 -1.5389
 2859TIP3   OH230067   3.244   4.541  15.614 -0.1230  0.2875  0.3440
 2859TIP3    H130068   3.155   4.576  15.622  0.0519  0.5725  1.0676
 2859TIP3    H230069   3.250   4.510  15.523 -1.9425 -2.4362  1.1150
 2860TIP3   OH230070   5.367   6.384  16.431 -0.0757 -0.0841 -0.4354
 2860TIP3    H130071   5.375   6.291  16.453  0.1488 -0.2980 -1.3831
 2860TIP3    H230072   5.441   6.426  16.475  0.0390 -0.4122 -0.3144
 2861TIP3   OH230073   5.704   0.156  16.923 -0.8430 -0.5377 -0.0324
 2861TIP3    H130074   5.761   0.113  16.860 -2.0556 -0.3626 -1.2609
 2861TIP3    H230075   5.738   0.246  16.930 -0.6209 -0.6009 -0.3133
 2862TIP3   OH230076   2.911   5.810   5.571  0.4896  0.0471  0.4077
 2862TIP3    H130077   2.879   5.730   5.530  1.6794 -0.1690 -0.0952
 2862TIP3    H230078   2.930   5.785   5.662 -0.7800  0.1833  0.7205
 2863TIP3   OH230079   5.557   1.668  15.427 -0.1002  0.3060  0.0783
 2863TIP3    H130080   5.583   1.653  15.336 -0.9667  1.1363 -0.3174
 2863TIP3    H230081   5.579   1.586  15.472  1.8943  0.4749 -0.5076
 2864TIP3   OH230082   6.456   6.240   2.428 -0.0856  0.3489 -0.0015
 2864TIP3    H130083   6.400   6.169   2.460  2.5531 -2.4496 -1.3768
 2864TIP3    H230084   6.537   6.231   2.479  1.9824 -0.5325 -3.3361
 2865TIP3   OH230085   4.351   1.317   4.810  0.0441  0.4685  0.0222
 2865TIP3    H130086   4.341   1.291   4.902  0.9882  0.7867  0.2213
 2865TIP3    H230087   4.444   1.304   4.791  0.2209  2.1680 -0.3473
 2866TIP3   OH230088   3.528   5.166  13.409  0.6495  0.2570 -0.0157
 2866TIP3    H130089   3.438   5.191  13.391  0.5710 -0.2724 -0.3849
 2866TIP3    H230090   3.557   5.226  13.477 -0.8404 -1.3002  2.0565
 2867TIP3   OH230091   2.788   5.357   4.626 -0.4210 -0.0271 -0.0770
 2867TIP3    H130092   2.823   5.271   4.645 -2.0675 -1.0261 -1.4184
 2867TIP3    H230093   2.786   5.402   4.711 -0.2398 -1.5487  0.7381
 2868TIP3   OH230094   6.804   3.253  14.095 -0.0515  0.2203  0.2035
 2868TIP3    H130095   6.716   3.226  14.068  0.3046 -1.2920  0.5293
 2868TIP3    H230096   6.862   3.217  14.029  0.4232  0.2778  0.5852
 2869TIP3   OH230097   6.000   3.724   5.711 -0.3649 -0.1378 -0.2878
 2869TIP3    H130098   5.943   3.717   5.634 -0.9826  3.4160 -0.2308
 2869TIP3    H230099   6.084   3.688   5.681 -2.1638 -4.1531 -0.7900
 2870TIP3   OH230100   1.327   1.738   5.349  0.3479  0.1706  0.0536
 2870TIP3    H130101   1.290   1.824   5.370  0.6155  0.3539 -0.2285
 2870TIP3    H230102   1.259   1.694   5.299  0.2208  0.2267  0.1753
 2871TIP3   OH230103   3.678   0.325  11.556  0.0332 -0.5254  0.0350
 2871TIP3    H130104   3.697   0.293  11.644 -0.2418 -0.6478  0.0501
 2871TIP3    H230105   3.742   0.394  11.541 -0.5022  0.1103  0.6755
 2872TIP3   OH230106   1.845   2.330  13.965 -0.1838 -0.1839 -0.2969
 2872TIP3    H130107   1.775   2.384  13.927  0.4418  0.7486 -0.1550
 2872TIP3    H230108   1.901   2.307  13.891  0.4837  0.7987 -0.1158
 2873TIP3   OH230109   2.565   2.692   3.436  0.2230  0.0512  0.2683
 2873TIP3    H130110   2.478   2.731   3.445  0.5090  0.6131  0.6173
 2873TIP3    H230111   2.548   2.598   3.429 -0.4910  0.2478 -0.8610
 2874TIP3   OH230112   4.528   5.050   0.221  0.4966  0.1343 -0.0094
 2874TIP3    H130113   4.507   5.142   0.235 -2.1103 -0.4854  0.4271
 2874TIP3    H230114   4.465   5.021   0.156  1.3907 -1.3252 -0.2507
 2875TIP3   OH230115   5.765   4.957  15.209 -0.4451 -0.3636  0.0270
 2875TIP3    H130116   5.789   4.872  15.171  0.9740 -0.8337  1.8928
 2875TIP3    H230117   5.843   4.984  15.257 -1.2011  1.5888  0.1894
 2876TIP3   OH230118   2.163   5.998   5.287  0.3779  0.3205 -0.1070
 2876TIP3    H130119   2.159   6.070   5.351 -0.5322 -0.1394  0.3564
 2876TIP3    H230120   2.192   5.923   5.338  3.8797  0.8972 -1.0848
 2877TIP3   OH230121   5.271   2.385  14.929 -0.0406  0.4266  0.0950
 2877TIP3    H130122   5.288   2.300  14.887 -0.9395  0.6119 -0.6463
 2877TIP3    H230123   5.254   2.363  15.021  1.2779 -0.0438  0.2349
 2878TIP3   OH230124   3.633   5.756  11.469  0.6263  0.1817 -0.2862
 2878TIP3    H130125   3.543   5.769  11.501  1.1102  1.6775  0.5071
 2878TIP3    H230126   3.673   5.698  11.534  0.5446  0.3248 -0.1084
 2879TIP3   OH230127   3.310   6.641   2.803 -0.2459  0.1053 -0.2183
 2879TIP3    H130128   3.263   6.629   2.721 -1.7837 -0.7535  0.7597
 2879TIP3    H230129   3.366   6.563   2.810 -1.8212 -0.9863  0.6335
 2880TIP3   OH230130   6.036   5.830   2.891 -0.0570 -0.4015 -0.0680
 2880TIP3    H130131   6.125   5.804   2.913  0.2257 -0.3794 -1.1368
 2880TIP3    H230132   6.034   5.925   2.905 -0.1362 -0.5175  0.6970
 2881TIP3   OH230133   1.153   3.719   1.542 -0.1297  0.2831  0.6039
 2881TIP3    H130134   1.126   3.785   1.606  0.5392  0.4056  0.7650
 2881TIP3    H230135   1.115   3.749   1.460 -0.4731  0.4569  0.8235
 2882TIP3   OH230136   6.354   0.781  17.235  0.1396 -0.3551 -0.0471
 2882TIP3    H130137   6.357   0.866  17.190  1.2508 -0.0837  0.5087
 2882TIP3    H230138   6.419   0.728  17.188  0.7569 -0.3102  0.7453
 2883TIP3   OH230139   4.904   6.105  15.404 -0.2090  0.1241 -0.2642
 2883TIP3    H130140   4.922   6.179  15.345 -0.5601  1.5053  1.3401
 2883TIP3    H230141   4.986   6.092  15.452 -0.0232 -0.8094 -0.8021
 2884TIP3   OH230142   3.477   5.772  13.255 -0.3261  0.2706 -0.3912
 2884TIP3    H130143   3.538   5.844  13.271 -1.0648  0.9365 -0.5446
 2884TIP3    H230144   3.391   5.808  13.277 -0.5355 -1.0433  1.0244
 2885TIP3   OH230145   5.389   4.310  14.107 -0.1733  0.0157  0.1812
 2885TIP3    H130146   5.402   4.391  14.155 -0.0064  0.0708  0.0393
 2885TIP3    H230147   5.477   4.274  14.094 -0.2545 -0.2517  0.3543
 2886TIP3   OH230148   3.174   3.868  13.344 -0.1624 -0.1664  0.0228
 2886TIP3    H130149   3.221   3.874  13.427  0.5226 -0.9462 -0.2925
 2886TIP3    H230150   3.238   3.830  13.284 -0.9011 -0.3403 -0.6580
 2887TIP3   OH230151   1.305   5.208   3.679  0.5254  0.7033  0.1469
 2887TIP3    H130152   1.383   5.243   3.635  1.2151 -0.5481  0.3435
 2887TIP3    H230153   1.247   5.283   3.688  0.7610  1.1904 -2.0620
 2888TIP3   OH230154   2.057   1.411  14.561  0.3805 -1.1413 -0.6616
 2888TIP3    H130155   2.134   1.376  14.515  1.5847  2.2112 -1.3526
 2888TIP3    H230156   2.077   1.504  14.573 -1.9806 -0.9566  2.4817
 2889TIP3   OH230157   3.828   4.202   5.286  0.4154  0.2475 -1.0333
 2889TIP3    H130158   3.905   4.164   5.243  0.1631 -1.2587 -0.2024
 2889TIP3    H230159   3.760   4.201   5.219  0.0746 -1.9128 -0.6952
 2890TIP3   OH230160   0.433   0.259  12.471  0.2208 -0.3901  0.1364
 2890TIP3    H130161   0.492   0.184  12.464  0.8991  0.2827 -1.8729
 2890TIP3    H230162   0.472   0.325  12.413 -3.0612 -0.3025 -2.0916
 2891TIP3   OH230163   6.178   5.658   5.555  0.5148 -0.5503 -0.1975
 2891TIP3    H130164   6.142   5.682   5.469 -0.2976 -2.6907 -0.4974
 2891TIP3    H230165   6.154   5.566   5.565  2.5922 -0.9437  1.3379
 2892TIP3   OH230166   4.543   2.030   5.643  0.0570  0.0236  0.3321
 2892TIP3    H130167   4.484   1.970   5.598 -0.1344 -0.7724  1.6271
 2892TIP3    H230168   4.511   2.032   5.733  2.3243 -0.8609  1.1961
 2893TIP3   OH230169   0.109   1.937  16.921  0.3448 -1.1301 -0.1595
 2893TIP3    H130170   0.111   2.010  16.982 -1.0141 -2.3117  1.3607
 2893TIP3    H230171   0.173   1.959  16.854  0.7890  0.8933  0.9055
 2894TIP3   OH230172   1.012   4.358  15.408 -0.3476  0.0123 -0.0437
 2894TIP3    H130173   1.062   4.398  15.336  1.2755  1.2711  1.7273
 2894TIP3    H230174   0.921   4.360  15.377 -0.0920  3.3725 -0.8453
 2895TIP3   OH230175   1.437   1.995   5.574  0.2016  0.8103 -0.1084
 2895TIP3    H130176   1.347   1.979   5.548 -0.1093  0.0736  1.3523
 2895TIP3    H230177   1.434   2.001   5.670  1.6625  0.9441 -0.0560
 2896TIP3   OH230178   6.193   2.422  16.597  0.0448 -0.5932  0.4644
 2896TIP3    H130179   6.167   2.477  16.670 -1.2201 -0.7462  0.1347
 2896TIP3    H230180   6.266   2.370  16.631 -0.7852 -0.9447  1.7473
 2897TIP3   OH230181   0.174   0.749  13.309  0.0494 -0.3037 -0.0202
 2897TIP3    H130182   0.233   0.822  13.328  0.7034 -0.5262 -1.1247
 2897TIP3    H230183   0.091   0.774  13.348  0.5995  0.4744  0.6804
 2898TIP3   OH230184   5.449   3.550   5.561 -0.8141  0.8199  0.2152
 2898TIP3    H130185   5.492   3.491   5.499 -0.9275 -1.0317  1.8652
 2898TIP3    H230186   5.400   3.612   5.506  1.4886  1.0811 -1.5952
 2899TIP3   OH230187   4.969   6.319   3.339  0.3709 -0.0215 -0.3781
 2899TIP3    H130188   5.033   6.380   3.375  0.6414 -0.2265 -0.5198
 2899TIP3    H230189   5.017   6.266   3.276 -0.3235  1.0194 -1.8202
 2900TIP3   OH230190   2.708   3.357  15.186  0.1638 -0.1173 -0.6312
 2900TIP3    H130191   2.714   3.452  15.173  2.6464 -0.2642 -0.7384
 2900TIP3    H230192   2.637   3.346  15.249 -0.4109  1.7739 -0.9180
 2901TIP3   OH230193   6.660   0.110   4.245  0.5881 -0.2783 -0.3402
 2901TIP3    H130194   6.614   0.120   4.329 -1.3665 -0.9620 -1.2979
 2901TIP3    H230195   6.751   0.091   4.270  0.0464 -0.4545  1.6227
 2902TIP3   OH230196   3.314   4.820   3.889  0.6256  0.1016  0.7837
 2902TIP3    H130197   3.253   4.829   3.962  0.6457  0.4317  0.7606
 2902TIP3    H230198   3.376   4.753   3.917  1.0113  0.6858  1.3316
 2903TIP3   OH230199   3.973   6.221   4.659 -0.2267 -0.7013  0.6027
 2903TIP3    H130200   3.902   6.171   4.618  0.3006 -1.9226  1.1370
 2903TIP3    H230201   4.050   6.201   4.605 -0.1583  0.0954  0.4076
 2904TIP3   OH230202   0.653   0.363   5.302  0.2680 -0.0714  0.2570
 2904TIP3    H130203   0.691   0.340   5.388  1.5626  1.9008  0.2445
 2904TIP3    H230204   0.712   0.430   5.267 -2.3862  1.9654 -0.4775
 2905TIP3   OH230205   5.419   6.638  14.540  0.3918  0.2322  0.1209
 2905TIP3    H130206   5.374   6.608  14.619  0.1367 -0.1825 -0.1812
 2905TIP3    H230207   5.430   6.732  14.553 -2.0173  0.6318 -0.5223
 2906TIP3   OH230208   2.323   0.859  17.103  0.4944  0.2881  0.1600
 2906TIP3    H130209   2.417   0.853  17.120  0.3089  0.7774  1.4539
 2906TIP3    H230210   2.305   0.791  17.038  1.6223 -0.2750  0.4373
 2907TIP3   OH230211   1.085   2.811   3.228  0.6779 -0.0621  0.0663
 2907TIP3    H130212   1.079   2.824   3.322 -0.8215 -2.1868  0.2925
 2907TIP3    H230213   0.995   2.800   3.198  1.1833 -0.1708 -1.4993
 2908TIP3   OH230214   1.315   0.797  16.273 -0.1906  0.0458 -0.3207
 2908TIP3    H130215   1.317   0.811  16.178  0.5277 -0.3880 -0.3791
 2908TIP3    H230216   1.406   0.776  16.295 -0.2353  0.7523  0.5553
 2909TIP3   OH230217   5.464   1.966   5.307  0.1630  0.0344  0.2720
 2909TIP3    H130218   5.473   1.991   5.399  1.5452 -0.7142  0.3652
 2909TIP3    H230219   5.453   1.871   5.309  0.0175  0.0358 -0.3267
 2910TIP3   OH230220   6.067   6.379  12.317  0.2133 -0.6236  0.7243
 2910TIP3    H130221   6.090   6.318  12.387 -0.2521  0.8496  2.1828
 2910TIP3    H230222   5.972   6.384  12.320  0.0677 -1.8203 -1.1257
 2911TIP3   OH230223   1.273   2.818   0.212 -0.1357  0.0512  0.2302
 2911TIP3    H130224   1.364   2.821   0.242 -0.6421  1.1133  1.7653
 2911TIP3    H230225   1.272   2.751   0.144  1.1523 -2.2492  2.3900
 2912TIP3   OH230226   2.061   1.795   6.372  0.1143  0.4552 -0.4160
 2912TIP3    H130227   2.082   1.713   6.417  1.4697  0.2772 -1.3590
 2912TIP3    H230228   2.004   1.770   6.300 -0.6731  0.5311  0.1742
 2913TIP3   OH230229   2.247   5.899  11.294 -0.4291 -0.2288 -0.0689
 2913TIP3    H130230   2.303   5.891  11.371 -0.9015 -2.1331  0.1012
 2913TIP3    H230231   2.308   5.895  11.220  0.3061  3.9963  0.1462
 2914TIP3   OH230232   2.840   0.812   1.240  0.5021 -0.1220 -0.1767
 2914TIP3    H130233   2.755   0.843   1.208 -0.3280  0.6180  2.5738
 2914TIP3    H230234   2.881   0.890   1.278  1.9292 -0.7129 -0.4963
 2915TIP3   OH230235   6.358   5.534   4.139 -0.7841 -0.2331  0.5307
 2915TIP3    H130236   6.427   5.483   4.181  0.6733 -0.4419 -2.0158
 2915TIP3    H230237   6.322   5.587   4.209  1.7994 -0.2952  1.9838
 2916TIP3   OH230238   6.663   6.042   2.735 -0.0443  0.1059 -0.0382
 2916TIP3    H130239   6.573   6.052   2.766  0.5821  0.5529  1.7233
 2916TIP3    H230240   6.655   6.033   2.640 -1.8888  0.8520  0.0237
 2917TIP3   OH230241   0.749   3.260  12.769 -0.5194  0.1631 -0.1176
 2917TIP3    H130242   0.696   3.334  12.800 -0.8703 -0.0017 -0.3248
 2917TIP3    H230243   0.701   3.183  12.799  0.5182  0.0148  1.2492
 2918TIP3   OH230244   1.448   1.605   4.542  0.3527  0.0969 -0.3346
 2918TIP3    H130245   1.442   1.536   4.476  2.4179  0.7834 -1.2800
 2918TIP3    H230246   1.468   1.684   4.492  2.0720  0.6084  1.1362
 2919TIP3   OH230247   0.129   1.113   5.644 -0.1203  0.1342 -0.3165
 2919TIP3    H130248   0.160   1.035   5.599 -1.6234 -0.8088  0.2460
 2919TIP3    H230249   0.208   1.153   5.681  0.4508 -2.2099  1.0941
 2920TIP3   OH230250   5.914   0.879   2.284 -0.3851  0.1639 -0.1664
 2920TIP3    H130251   5.896   0.803   2.229 -0.1561  0.1068 -0.1630
 2920TIP3    H230252   5.839   0.885   2.343  0.9127 -1.7138  1.7130
 2921TIP3   OH230253   3.883   5.106   4.527 -0.5214  0.6347  0.0971
 2921TIP3    H130254   3.978   5.107   4.536 -0.6323  0.2720  1.4214
 2921TIP3    H230255   3.855   5.027   4.575 -1.2360 -1.0071 -2.8698
 2922TIP3   OH230256   0.600   4.975   0.941 -0.6268 -0.4700  0.3905
 2922TIP3    H130257   0.661   4.902   0.952  0.8647  0.5965 -0.5035
 2922TIP3    H230258   0.635   5.044   0.998 -0.6445  0.3410 -0.5560
 2923TIP3   OH230259   5.529   6.707   0.124 -0.3706 -0.1902  0.3513
 2923TIP3    H130260   5.548   6.697   0.217  2.4777 -0.5767 -0.2502
 2923TIP3    H230261   5.501   6.798   0.115  1.7977  0.5946  1.2278
 2924TIP3   OH230262   0.778   5.911  15.047  0.7909  0.0887  0.3124
 2924TIP3    H130263   0.748   5.849  14.980  1.2227 -1.6190  1.6658
 2924TIP3    H230264   0.872   5.897  15.053  0.9568  1.1495  0.3893
 2925TIP3   OH230265   3.144   4.587   4.963 -0.2505  0.8139  0.0946
 2925TIP3    H130266   3.196   4.508   4.980 -0.4152  0.2716 -1.8977
 2925TIP3    H230267   3.200   4.659   4.992 -1.0104 -0.0987  4.1851
 2926TIP3   OH230268   1.506   6.811   0.364 -0.1019 -0.3014 -0.1415
 2926TIP3    H130269   1.527   6.813   0.457  0.6193 -2.7771 -0.2269
 2926TIP3    H230270   1.410   6.805   0.361 -0.1433  0.0805  0.4276
 2927TIP3   OH230271   3.734   3.943  14.520  0.1866 -0.0453 -0.3943
 2927TIP3    H130272   3.803   3.942  14.587  0.1853 -1.8903 -0.3964
 2927TIP3    H230273   3.780   3.959  14.438  0.5192 -0.4485 -0.2879
 2928TIP3   OH230274   5.084   4.693  15.888  0.4431 -0.1228 -0.3365
 2928TIP3    H130275   5.114   4.602  15.883  4.8649  1.0117  2.3908
 2928TIP3    H230276   5.106   4.730  15.803  4.3905 -0.1563  0.5450
 2929TIP3   OH230277   3.948   1.446   5.660 -0.6007 -0.3202 -0.1349
 2929TIP3    H130278   3.874   1.454   5.721 -1.4806 -0.1946 -1.2015
 2929TIP3    H230279   4.025   1.468   5.713 -1.3031 -0.5966  1.0297
 2930TIP3   OH230280   3.803   0.775   2.308 -0.4428 -0.1192  0.1747
 2930TIP3    H130281   3.843   0.781   2.222 -2.0173 -1.7245 -0.6975
 2930TIP3    H230282   3.835   0.692   2.344  0.0637  0.4546  1.0669
 2931TIP3   OH230283   6.034   2.219   5.793 -0.2463 -0.5410 -0.5103
 2931TIP3    H130284   6.020   2.175   5.877  1.2453  0.2589  0.1864
 2931TIP3    H230285   5.947   2.249   5.767 -0.6395 -0.2430  1.0818
 2932TIP3   OH230286   0.300   1.134   3.992 -0.6996 -0.1459 -0.3654
 2932TIP3    H130287   0.328   1.098   4.077  0.5343  0.6628 -0.4111
 2932TIP3    H230288   0.343   1.219   3.987 -3.2445  1.1544 -0.4587
 2933TIP3   OH230289   1.769   5.331   2.806  0.2209 -0.1313 -0.1180
 2933TIP3    H130290   1.835   5.299   2.744  0.2917 -0.0176 -0.1009
 2933TIP3    H230291   1.742   5.416   2.772  0.6591  0.1756  0.3015
 2934TIP3   OH230292   6.480   3.510   2.573 -0.3104  0.1623  0.8410
 2934TIP3    H130293   6.455   3.597   2.542 -2.3828 -1.3638 -1.9414
 2934TIP3    H230294   6.533   3.473   2.503  2.8626  0.1381  3.1613
 2935TIP3   OH230295   3.030   5.044   4.058 -0.4977 -0.2481 -0.4853
 2935TIP3    H130296   2.940   5.015   4.046 -0.7232 -1.4711  3.3410
 2935TIP3    H230297   3.023   5.124   4.110  0.5948 -0.2060 -0.3916
 2936TIP3   OH230298   0.220   1.547  13.000  0.1993  0.1146 -0.3511
 2936TIP3    H130299   0.287   1.478  13.005  0.7002  0.7066  1.5175
 2936TIP3    H230300   0.156   1.513  12.939  0.4403 -2.0433  0.5374
 2937TIP3   OH230301   5.804   4.014   2.310  0.2627 -0.2494 -0.1782
 2937TIP3    H130302   5.790   4.108   2.314  2.0981  0.0096  0.7052
 2937TIP3    H230303   5.874   4.003   2.245  0.5166 -0.9450  0.2043
 2938TIP3   OH230304   0.852   5.516   0.156  0.2034  0.3323  0.3745
 2938TIP3    H130305   0.943   5.532   0.183 -0.0261 -1.0373  2.0906
 2938TIP3    H230306   0.857   5.504   0.062  1.7595  0.6957  0.3887
 2939TIP3   OH230307   6.006   4.645  13.347 -0.0939  0.0095 -0.0050
 2939TIP3    H130308   6.081   4.598  13.384  0.2572 -0.1735 -0.9293
 2939TIP3    H230309   5.929   4.596  13.375  0.0986  0.4385  1.3112
 2940TIP3   OH230310   0.767   5.531  15.854 -0.2848 -0.0310  0.1424
 2940TIP3    H130311   0.714   5.495  15.783  3.1963 -0.3605 -2.4575
 2940TIP3    H230312   0.810   5.608  15.816  0.2748  0.8420  2.4556
 2941TIP3   OH230313   2.492   0.128  14.540  0.3490  0.1923 -0.0987
 2941TIP3    H130314   2.474   0.145  14.632 -0.0062 -2.5409  0.3883
 2941TIP3    H230315   2.423   0.067  14.513  1.6008 -0.5897 -1.6213
 2942TIP3   OH230316   0.574   1.138  16.725 -0.3760 -0.1076 -0.1580
 2942TIP3    H130317   0.608   1.058  16.685  0.9816  0.6473 -0.5447
 2942TIP3    H230318   0.649   1.175  16.772 -1.0290  0.8633  0.1346
 2943TIP3   OH230319   3.413   1.643  16.933  0.0214 -0.0203  0.1156
 2943TIP3    H130320   3.503   1.621  16.954  0.1546 -1.6563 -1.9483
 2943TIP3    H230321   3.361   1.575  16.976  0.0355 -1.0598 -1.4578
 2944TIP3   OH230322   0.394   5.175   1.834  0.3747 -0.3311  0.0240
 2944TIP3    H130323   0.485   5.172   1.863  0.4505 -2.2295 -0.3668
 2944TIP3    H230324   0.393   5.242   1.765  0.8428  1.8874  2.0822
 2945TIP3   OH230325   5.664   0.085  14.219 -0.1483  0.7409 -0.0698
 2945TIP3    H130326   5.588   0.085  14.161 -0.7786  0.3283  0.7427
 2945TIP3    H230327   5.659   0.000  14.264  1.1581  0.4319 -0.4824
 2946TIP3   OH230328   6.125   2.396  12.102  0.0231 -0.0710 -0.0389
 2946TIP3    H130329   6.195   2.369  12.042 -0.0530  0.0076 -0.1656
 2946TIP3    H230330   6.045   2.386  12.050  0.0167  0.6078 -0.1540
 2947TIP3   OH230331   5.354   3.328  12.729  0.5972 -0.0632 -0.1475
 2947TIP3    H130332   5.396   3.402  12.685  0.1279 -0.3312 -1.0656
 2947TIP3    H230333   5.311   3.367  12.805  0.7787  0.5225 -0.3364
 2948TIP3   OH230334   1.845   2.482  14.365 -0.5302  0.0672 -0.0345
 2948TIP3    H130335   1.771   2.537  14.390  0.1067  0.3622  1.2257
 2948TIP3    H230336   1.871   2.515  14.278 -1.4257  0.4177 -0.1744
 2949TIP3   OH230337   0.659   2.024  16.782 -0.3715 -0.0792 -0.1107
 2949TIP3    H130338   0.669   2.112  16.819  2.6645 -0.1187 -0.7428
 2949TIP3    H230339   0.690   1.965  16.851  0.2209 -0.4888 -0.7267
 2950TIP3   OH230340   3.211   2.742   3.495  0.3361  0.2797  0.4291
 2950TIP3    H130341   3.232   2.734   3.402 -1.5758 -2.0551  0.1485
 2950TIP3    H230342   3.275   2.805   3.529  0.8216  1.4551 -2.5241
 2951TIP3   OH230343   0.942   6.085  13.662 -0.0846  0.3158  0.0119
 2951TIP3    H130344   0.852   6.078  13.631 -0.0078  2.8809 -0.8727
 2951TIP3    H230345   0.994   6.100  13.582  0.7116  2.0828  0.8399
 2952TIP3   OH230346   5.963   0.757  16.900  0.1713  0.4645  0.4064
 2952TIP3    H130347   5.988   0.732  16.990  0.1863 -2.4301 -0.3495
 2952TIP3    H230348   5.881   0.806  16.911  0.2796  0.3227  2.0212
 2953TIP3   OH230349   0.871   1.977  16.540 -0.3249  0.5782  0.6041
 2953TIP3    H130350   0.782   1.942  16.537  0.2338 -0.8274 -0.0322
 2953TIP3    H230351   0.863   2.059  16.589 -1.8593  0.1370  1.1174
 2954TIP3   OH230352   0.775   5.655   5.703  0.7008  0.2833 -0.6482
 2954TIP3    H130353   0.764   5.630   5.795 -0.9262  0.2930 -0.8150
 2954TIP3    H230354   0.818   5.740   5.706 -1.0742  1.1805  0.1855
 2955TIP3   OH230355   5.516   5.481   0.584  0.0587  0.1233  0.1046
 2955TIP3    H130356   5.578   5.519   0.646 -0.4909 -0.8248  1.2490
 2955TIP3    H230357   5.450   5.550   0.572  0.4478  0.5090  0.1593
 2956TIP3   OH230358   3.366   6.783  11.601 -0.3309 -0.1341  0.6841
 2956TIP3    H130359   3.386   6.701  11.647 -0.4536 -1.3032 -1.2594
 2956TIP3    H230360   3.450   6.812  11.566 -0.6293 -0.6086 -0.4607
 2957TIP3   OH230361   4.002   3.840   1.837 -1.0115  0.2120  0.1876
 2957TIP3    H130362   3.945   3.777   1.793  1.4856 -2.7229  0.9980
 2957TIP3    H230363   4.018   3.800   1.923  2.7387  0.6205 -0.2512
 2958TIP3   OH230364   6.810   4.532   1.348 -0.1820  0.4790 -1.5699
 2958TIP3    H130365   6.801   4.439   1.369 -0.8204  0.5217 -1.6543
 2958TIP3    H230366   6.904   4.548   1.353 -0.2470  0.3034  0.4228
 2959TIP3   OH230367   1.344   4.599  16.803  0.0569 -0.8123  0.2374
 2959TIP3    H130368   1.354   4.527  16.865  0.6374  0.6612  1.9223
 2959TIP3    H230369   1.275   4.653  16.842  1.5949  1.0122  0.5023
 2960TIP3   OH230370   2.106   1.759   2.800 -0.2492 -0.7498 -0.1544
 2960TIP3    H130371   2.097   1.751   2.705  1.0758  1.3344 -0.4819
 2960TIP3    H230372   2.197   1.786   2.813 -0.8697  0.5508  1.5910
 2961TIP3   OH230373   5.630   2.511   0.563 -0.4880 -0.0508  0.1253
 2961TIP3    H130374   5.652   2.575   0.630  0.1282 -0.2925  0.1558
 2961TIP3    H230375   5.562   2.457   0.602 -0.3232 -0.0212  0.4479
 2962TIP3   OH230376   6.370   2.799   3.721  0.8186  0.3506 -0.0657
 2962TIP3    H130377   6.416   2.788   3.804 -1.2267 -0.0653  1.0256
 2962TIP3    H230378   6.333   2.888   3.726  0.3639  0.1769 -0.3712
 2963TIP3   OH230379   0.083   6.148   5.004  1.0494 -0.7140  0.1592
 2963TIP3    H130380   0.133   6.106   4.934  1.3950 -0.0293 -0.0082
 2963TIP3    H230381  -0.000   6.102   5.005  1.2518 -1.0913 -0.3401
 2964TIP3   OH230382   5.134   0.705  11.034  0.1343 -0.0838 -0.1459
 2964TIP3    H130383   5.115   0.611  11.039 -0.3384  0.0518  0.6564
 2964TIP3    H230384   5.051   0.744  11.005  0.2278  0.1300 -0.1233
 2965TIP3   OH230385   2.033   0.786  12.738  0.9285  0.3481  0.4713
 2965TIP3    H130386   1.950   0.756  12.775  1.3799 -0.3175  0.9647
 2965TIP3    H230387   2.063   0.853  12.800  1.0814  0.1142  0.6505
 2966TIP3   OH230388   2.182   3.495   6.443  0.1624  0.1570  0.2442
 2966TIP3    H130389   2.260   3.548   6.425 -0.1504  1.2131  1.9118
 2966TIP3    H230390   2.215   3.421   6.495  0.3860 -0.5930 -0.9444
 2967TIP3   OH230391   1.895   2.139   1.618  0.4930 -0.0140  0.2499
 2967TIP3    H130392   1.850   2.112   1.538  0.9805  1.0718 -0.3950
 2967TIP3    H230393   1.917   2.057   1.662 -0.0771 -0.6053 -0.5593
 2968TIP3   OH230394   4.577   3.374   5.133  0.1561 -0.5370 -0.0823
 2968TIP3    H130395   4.512   3.430   5.176  0.2269 -0.5867  0.0868
 2968TIP3    H230396   4.637   3.436   5.090 -0.1576 -0.4967 -0.4652
 2969TIP3   OH230397   3.317   2.349   1.990 -0.6675  0.0410 -0.3500
 2969TIP3    H130398   3.365   2.269   1.970  0.2185  0.4035  0.3222
 2969TIP3    H230399   3.380   2.405   2.035 -1.4662  0.8635 -0.2343
 2970TIP3   OH230400   3.671   6.250   5.421 -1.2774  0.5718  0.3762
 2970TIP3    H130401   3.612   6.192   5.468 -0.5955  0.0493  0.5914
 2970TIP3    H230402   3.758   6.212   5.434 -0.7305  2.0413  1.1222
 2971TIP3   OH230403   5.530   3.720  12.744 -0.0892 -0.7569  0.1951
 2971TIP3    H130404   5.439   3.702  12.767  0.1512 -1.2449  0.7633
 2971TIP3    H230405   5.535   3.816  12.742 -0.9363 -0.7176 -1.1414
 2972TIP3   OH230406   5.493   3.229   2.793  0.1283 -0.4575  0.1672
 2972TIP3    H130407   5.438   3.247   2.718 -0.0347  1.6846  0.7488
 2972TIP3    H230408   5.580   3.213   2.756  0.2271  1.4102 -0.4426
 2973TIP3   OH230409   1.314   3.236   4.642  0.2501 -0.1894  0.6129
 2973TIP3    H130410   1.326   3.310   4.582 -1.3168 -1.9488 -1.9682
 2973TIP3    H230411   1.382   3.173   4.616 -0.3477 -0.8982  0.7604
 2974TIP3   OH230412   2.067   5.669   4.162 -0.0891  0.6695  0.2531
 2974TIP3    H130413   2.117   5.600   4.118 -1.2449  0.8149 -1.3221
 2974TIP3    H230414   2.114   5.750   4.142 -0.5311  0.7172 -0.6223
 2975TIP3   OH230415   5.869   1.617  16.507  0.2486 -0.2180 -0.3803
 2975TIP3    H130416   5.789   1.601  16.458  0.3183  0.5115 -0.7389
 2975TIP3    H230417   5.906   1.529  16.522 -1.5396 -0.6837  1.3904
 2976TIP3   OH230418   6.180   5.048  13.065  0.5965  0.3561  0.9143
 2976TIP3    H130419   6.238   5.113  13.026  1.6004 -1.7194 -1.1792
 2976TIP3    H230420   6.097   5.060  13.018  0.5068  0.7336  1.1672
 2977TIP3   OH230421   5.955   4.097   1.157 -0.8007  0.4695  0.7221
 2977TIP3    H130422   5.873   4.104   1.108 -0.7092 -2.1304  0.1360
 2977TIP3    H230423   5.995   4.016   1.126  2.0131  1.6919  1.0150
 2978TIP3   OH230424   1.823   3.535   2.046 -0.2222 -0.6521  0.1790
 2978TIP3    H130425   1.856   3.624   2.035  1.3308 -0.9895  1.7295
 2978TIP3    H230426   1.883   3.495   2.109 -1.2129 -2.6303 -0.0761
 2979TIP3   OH230427   4.936   2.866  17.249 -0.0098  0.1654  0.5590
 2979TIP3    H130428   4.927   2.908  17.163 -2.1464 -2.4683 -0.5663
 2979TIP3    H230429   4.897   2.929  17.310  0.3989  1.5196 -0.5489
 2980TIP3   OH230430   4.213   5.173  14.047  0.0901  0.3097  0.3456
 2980TIP3    H130431   4.151   5.102  14.025  0.0752  0.2796  0.4893
 2980TIP3    H230432   4.234   5.159  14.139 -1.0909  1.4014  0.7980
 2981TIP3   OH230433   0.144   3.496   3.128  0.0585 -0.2368  0.0041
 2981TIP3    H130434   0.234   3.482   3.157  0.5619  2.6113 -0.0521
 2981TIP3    H230435   0.140   3.589   3.105 -2.5644 -0.5934 -1.1857
 2982TIP3   OH230436   5.541   1.789  12.461 -0.4964 -0.0749  0.2406
 2982TIP3    H130437   5.496   1.710  12.431  0.4479 -0.3685 -0.4407
 2982TIP3    H230438   5.612   1.801  12.397 -1.4017  2.0357 -0.4081
 2983TIP3   OH230439   4.451   0.048  12.188  0.0724 -0.1270 -0.3037
 2983TIP3    H130440   4.541   0.037  12.218  0.0984 -1.1992 -0.7852
 2983TIP3    H230441   4.457   0.046  12.092 -0.3579  0.6326 -0.3531
 2984TIP3   OH230442   4.362   0.722  14.332 -0.0509  0.9979  0.2603
 2984TIP3    H130443   4.343   0.804  14.288 -0.2543  0.1787 -1.1952
 2984TIP3    H230444   4.362   0.656  14.263  1.5630 -0.0182  1.1913
 2985TIP3   OH230445   0.726   0.736   4.588 -0.3225  0.4121 -0.0032
 2985TIP3    H130446   0.812   0.717   4.549 -0.5536  0.6678 -0.6376
 2985TIP3    H230447   0.747   0.768   4.676  0.1155 -1.6230  0.6400
 2986TIP3   OH230448   1.691   2.183   2.545 -0.3926  0.3624 -0.3138
 2986TIP3    H130449   1.655   2.094   2.553 -0.7300  0.4039 -1.3425
 2986TIP3    H230450   1.618   2.240   2.567 -0.2937  0.4018 -0.0808
 2987TIP3   OH230451   3.050   1.838  15.913 -0.4164  0.3510  0.7074
 2987TIP3    H130452   3.134   1.820  15.957  1.0928 -0.1266 -2.2508
 2987TIP3    H230453   2.994   1.765  15.939  1.0061 -0.8472  0.5206
 2988TIP3   OH230454   3.044   4.772   0.273 -0.3449 -0.3288  0.2009
 2988TIP3    H130455   3.012   4.784   0.183 -3.8307 -0.5614  1.3355
 2988TIP3    H230456   2.984   4.824   0.326  2.2625  0.5745  2.3574
 2989TIP3   OH230457   3.178   4.654   2.905  0.3363 -0.0461  0.2759
 2989TIP3    H130458   3.095   4.664   2.859  0.1728 -2.8307 -0.1254
 2989TIP3    H230459   3.234   4.606   2.845  0.2605 -3.3757  2.7252
 2990TIP3   OH230460   2.639   1.405  13.371  0.0483  0.2623 -0.1179
 2990TIP3    H130461   2.705   1.475  13.377 -0.7812  0.9968  0.4651
 2990TIP3    H230462   2.602   1.399  13.459  0.5120 -1.3282 -0.0003
 2991TIP3   OH230463   6.694   3.120   2.272  0.2046  0.1565  0.5635
 2991TIP3    H130464   6.783   3.140   2.300 -0.2598  1.6077  1.0464
 2991TIP3    H230465   6.684   3.026   2.289  0.9622  0.3857  2.3392
 2992TIP3   OH230466   2.912   4.477   1.893 -0.3495  0.0091  0.5942
 2992TIP3    H130467   2.920   4.408   1.959  1.9004  0.3578  0.7019
 2992TIP3    H230468   2.872   4.434   1.818  0.4513 -1.2452  0.8818
 2993TIP3   OH230469   2.603   3.580  12.570 -0.3116  0.0386  0.0147
 2993TIP3    H130470   2.599   3.675  12.560  0.1650  0.0300 -0.2297
 2993TIP3    H230471   2.672   3.565  12.635 -0.7754 -0.1121  0.4783
 2994TIP3   OH230472   2.381   5.830  11.049 -0.0702 -0.2064 -0.3462
 2994TIP3    H130473   2.388   5.851  10.956 -2.0113  1.3791 -0.1605
 2994TIP3    H230474   2.366   5.736  11.052  2.9141 -0.7744 -1.4825
 2995TIP3   OH230475   2.096   0.069   3.694 -0.5279  0.3906  0.2452
 2995TIP3    H130476   2.116   0.150   3.742  1.0682  0.1062  0.0964
 2995TIP3    H230477   2.132   0.084   3.607 -0.0548 -0.5483  0.2763
 2996TIP3   OH230478   6.565   0.221   4.814  0.5890 -0.0172  0.2606
 2996TIP3    H130479   6.637   0.169   4.777 -0.6537 -1.0848 -0.6816
 2996TIP3    H230480   6.515   0.159   4.867 -1.1537  0.0893 -1.2166
 2997TIP3   OH230481   6.706   0.508  11.737  0.0227  0.6862  0.1970
 2997TIP3    H130482   6.714   0.603  11.745  1.5716  0.4964  1.0561
 2997TIP3    H230483   6.796   0.478  11.720 -0.8585 -0.3699 -2.9328
 2998TIP3   OH230484   1.765   3.412  14.517  0.1679  0.4107  0.2243
 2998TIP3    H130485   1.758   3.502  14.548  1.4489  0.4893  0.2748
 2998TIP3    H230486   1.835   3.413  14.453  1.1110 -0.7995  1.1961
 2999TIP3   OH230487   1.744   4.651   2.027  0.2750 -0.5906  0.5070
 2999TIP3    H130488   1.827   4.613   2.054  0.9410 -0.2074 -0.9385
 2999TIP3    H230489   1.768   4.725   1.971 -1.0234  0.2853  1.0801
 3000TIP3   OH230490   2.693   1.823   5.775 -0.2666  0.0612 -0.0554
 3000TIP3    H130491   2.629   1.853   5.840  1.5311  2.4426  0.6842
 3000TIP3    H230492   2.643   1.817   5.693 -1.2065  3.1498  0.2313
 3001TIP3   OH230493   3.268   2.259  13.435  0.0948  0.1528 -0.3077
 3001TIP3    H130494   3.270   2.225  13.524  0.1433 -0.5339 -0.5660
 3001TIP3    H230495   3.207   2.333  13.439 -0.6938 -0.5065  0.0769
 3002TIP3   OH230496   1.119   6.818  12.129  0.1528  0.1086  0.1096
 3002TIP3    H130497   1.202   6.863  12.145  0.4077  0.4300 -2.0227
 3002TIP3    H230498   1.125   6.738  12.182  1.5522  0.4571  0.4932
 3003TIP3   OH230499   0.500   1.231   3.309  0.4616 -0.7313 -0.1155
 3003TIP3    H130500   0.585   1.264   3.281 -0.9357  0.9691 -2.5468
 3003TIP3    H230501   0.497   1.246   3.403  3.0824 -1.4117  0.1026
 3004TIP3   OH230502   2.689   2.135  10.795 -0.0235  0.2694 -0.1129
 3004TIP3    H130503   2.785   2.142  10.801 -0.1400  0.9108  0.9698
 3004TIP3    H230504   2.659   2.224  10.776 -0.2845 -0.2461 -2.2644
 3005TIP3   OH230505   5.363   0.663   0.724  0.1443  0.1551 -0.3827
 3005TIP3    H130506   5.335   0.627   0.640 -0.5514  0.3825 -0.2507
 3005TIP3    H230507   5.314   0.614   0.789 -0.2082  0.7921 -0.1641
 3006TIP3   OH230508   2.882   5.509   6.345  0.4719 -0.0011 -0.1629
 3006TIP3    H130509   2.947   5.454   6.390  0.4767  0.3041  0.2001
 3006TIP3    H230510   2.798   5.481   6.382  0.5105  0.5364  0.3349
 3007TIP3   OH230511   4.206   1.764  17.104 -0.1153 -0.1989 -0.1162
 3007TIP3    H130512   4.169   1.688  17.058 -1.4194 -0.5073  1.4268
 3007TIP3    H230513   4.300   1.760  17.083 -0.6572 -0.3452 -2.7126
 3008TIP3   OH230514   0.327   5.132  14.937  0.6543 -0.2175  0.2073
 3008TIP3    H130515   0.339   5.068  15.007 -4.1109 -0.5750  0.9165
 3008TIP3    H230516   0.282   5.205  14.980 -1.9569 -0.2514 -2.3344
 3009TIP3   OH230517   1.829   6.121  11.635  0.1619  0.1989  0.3731
 3009TIP3    H130518   1.822   6.050  11.699 -0.8883 -0.1607 -0.1333
 3009TIP3    H230519   1.810   6.200  11.685  0.8042  0.0787  0.8224
 3010TIP3   OH230520   5.960   4.963  12.140  0.0724 -0.1314  0.5516
 3010TIP3    H130521   5.967   5.037  12.199 -1.2980  0.3705  0.0943
 3010TIP3    H230522   5.921   4.893  12.192  0.1541 -0.1290  0.6157
 3011TIP3   OH230523   1.675   3.440  12.300 -0.0547  0.1746 -0.3337
 3011TIP3    H130524   1.738   3.448  12.228  1.0282  0.1334  0.6018
 3011TIP3    H230525   1.590   3.457  12.259  0.4844 -0.4429 -1.7460
 3012TIP3   OH230526   3.534   1.166   5.886 -0.1709 -0.1538  0.3085
 3012TIP3    H130527   3.516   1.109   5.960 -0.5176 -2.4448 -1.4696
 3012TIP3    H230528   3.629   1.174   5.882 -0.1368 -0.4103  0.7091
 3013TIP3   OH230529   0.375   1.402  12.555  0.4024 -0.0475  0.2288
 3013TIP3    H130530   0.437   1.429  12.488  0.1125  1.3051  0.5011
 3013TIP3    H230531   0.346   1.315  12.527  1.6959 -0.2905 -0.3978
 3014TIP3   OH230532   5.245   4.419   3.526  0.2758 -0.4003  0.0831
 3014TIP3    H130533   5.185   4.493   3.515 -2.3586 -2.3263  0.9471
 3014TIP3    H230534   5.242   4.373   3.442  0.4990 -0.5243  0.1433
 3015TIP3   OH230535   6.764   1.315   5.655  0.4202 -0.0629  0.3619
 3015TIP3    H130536   6.829   1.244   5.663  0.3795 -0.0863  0.4944
 3015TIP3    H230537   6.686   1.272   5.620  0.9858  0.2691 -1.3698
 3016TIP3   OH230538   5.379   5.322   6.924 -0.2509 -0.0344 -0.0182
 3016TIP3    H130539   5.319   5.363   6.861 -0.2173 -0.2813 -0.2096
 3016TIP3    H230540   5.326   5.254   6.965 -0.0674 -0.3322 -0.2717
 3017TIP3   OH230541   6.434   1.889  16.223  0.4278  0.4446 -0.2015
 3017TIP3    H130542   6.342   1.869  16.240  0.8952 -0.8581  0.8954
 3017TIP3    H230543   6.453   1.964  16.278  0.0869  0.5692 -0.2517
 3018TIP3   OH230544   1.968   4.118  11.026  0.4144 -0.0342  0.1973
 3018TIP3    H130545   2.050   4.166  11.037 -0.2687  1.0116  0.7438
 3018TIP3    H230546   1.964   4.099  10.932  0.6198  1.0928 -0.0391
 3019TIP3   OH230547   0.893   3.202  11.985  0.4970 -0.2210 -0.0689
 3019TIP3    H130548   0.970   3.145  11.979  1.4418  1.1264 -0.8331
 3019TIP3    H230549   0.819   3.141  11.982  1.5107 -1.4640 -0.3607
 3020TIP3   OH230550   0.681   0.837   1.848  0.4261 -0.4029  0.4720
 3020TIP3    H130551   0.679   0.760   1.905 -2.4556  0.3524  1.4816
 3020TIP3    H230552   0.754   0.889   1.882  0.3690 -1.1768  1.8282
 3021TIP3   OH230553   3.678   3.176  13.647  0.0276 -0.3798  0.2848
 3021TIP3    H130554   3.647   3.181  13.738 -0.2305  1.0894  0.1155
 3021TIP3    H230555   3.660   3.085  13.621  1.6131 -1.2925  2.2326
 3022TIP3   OH230556   2.443   5.109  10.591  0.0572  0.0597 -0.2755
 3022TIP3    H130557   2.376   5.114  10.523  1.3592 -0.5876 -1.6242
 3022TIP3    H230558   2.526   5.125  10.545  0.7071  2.6414  1.6542
 3023TIP3   OH230559   2.288   4.428  13.951  0.5708 -0.4673 -0.2708
 3023TIP3    H130560   2.310   4.366  13.882 -0.3058 -0.3417 -0.6652
 3023TIP3    H230561   2.231   4.379  14.010  0.7002 -0.3403 -0.0392
 3024TIP3   OH230562   0.118   0.168  13.800  0.0206 -0.4214  0.8974
 3024TIP3    H130563   0.109   0.078  13.767 -0.1600 -0.2274  0.4182
 3024TIP3    H230564   0.181   0.161  13.871  0.5536 -0.8132  0.3921
 3025TIP3   OH230565   3.453   1.124  15.910  0.4019  0.1213 -0.0128
 3025TIP3    H130566   3.500   1.133  15.827 -1.0111  0.1902 -0.8155
 3025TIP3    H230567   3.517   1.148  15.977  1.8420 -0.8392 -1.0128
 3026TIP3   OH230568   3.439   5.441  15.737  0.0370 -0.0116  0.5326
 3026TIP3    H130569   3.477   5.400  15.814  2.2337 -3.6105 -2.3136
 3026TIP3    H230570   3.359   5.391  15.720  1.3004 -1.4720 -1.3667
 3027TIP3   OH230571   2.477   4.278  12.963 -0.3576 -0.6168  0.8017
 3027TIP3    H130572   2.541   4.285  12.892 -1.4866  2.8716  0.0228
 3027TIP3    H230573   2.527   4.245  13.037  1.9487  0.2984 -0.2764
 3028TIP3   OH230574   4.707   0.353   1.383  0.1813 -0.4426 -0.2206
 3028TIP3    H130575   4.758   0.335   1.304 -0.4528 -2.2972 -0.2235
 3028TIP3    H230576   4.720   0.447   1.400  4.2232 -1.0148  0.2358
 3029TIP3   OH230577   3.458   3.863  14.346 -0.0019  0.1285 -0.1569
 3029TIP3    H130578   3.469   3.955  14.321  0.1871  0.4493  1.0714
 3029TIP3    H230579   3.445   3.817  14.263  0.2467  1.2148 -0.8099
 3030TIP3   OH230580   5.417   2.894   0.225 -0.4375 -0.1720  0.1656
 3030TIP3    H130581   5.444   2.947   0.300 -2.6116 -0.7441  1.4164
 3030TIP3    H230582   5.469   2.814   0.233  1.1701  0.7936 -0.4015
 3031TIP3   OH230583   1.301   3.437  17.177  0.9541  0.0565 -0.3264
 3031TIP3    H130584   1.339   3.516  17.217 -0.3207 -0.1670  1.3984
 3031TIP3    H230585   1.221   3.468  17.134  0.7874 -0.1935 -0.1968
 3032TIP3   OH230586   5.836   5.653  15.371 -0.4489  0.0335  0.2138
 3032TIP3    H130587   5.786   5.609  15.303  0.1575 -0.8621  0.3341
 3032TIP3    H230588   5.910   5.694  15.325 -0.9952  0.8935  0.1064
 3033TIP3   OH230589   5.321   2.271  13.346  0.2460  0.4240  0.0082
 3033TIP3    H130590   5.389   2.265  13.279 -0.1978 -3.1995 -0.2091
 3033TIP3    H230591   5.366   2.250  13.428 -0.1329  0.4173  0.2136
 3034TIP3   OH230592   1.317   6.411   4.868 -0.2036 -0.4256  0.0816
 3034TIP3    H130593   1.366   6.447   4.795  0.3001 -0.7617  0.2523
 3034TIP3    H230594   1.295   6.322   4.841 -0.2164 -0.4723  0.2423
 3035TIP3   OH230595   4.970   4.379  13.993 -0.2304 -0.0602 -0.5053
 3035TIP3    H130596   4.975   4.306  14.054 -0.2471  0.0407 -0.3821
 3035TIP3    H230597   5.031   4.444  14.028 -1.5130  0.7013  0.3518
 3036TIP3   OH230598   0.783   0.575  15.181  0.5256 -0.1860 -0.2834
 3036TIP3    H130599   0.794   0.636  15.108 -1.1262  1.3253  0.7070
 3036TIP3    H230600   0.855   0.596  15.240  0.3749  0.3263 -0.2790
 3037TIP3   OH230601   6.370   6.224   0.167 -0.4260  0.0074  0.7229
 3037TIP3    H130602   6.423   6.293   0.206  0.2391 -0.0238 -0.1203
 3037TIP3    H230603   6.300   6.271   0.121 -0.0734  0.1220  0.2952
 3038TIP3   OH230604   1.686   1.993   1.194 -0.1721 -0.3205 -0.1332
 3038TIP3    H130605   1.630   1.931   1.147  0.7748 -1.0381 -0.3527
 3038TIP3    H230606   1.757   2.012   1.133 -0.5155  1.0922 -0.1047
 3039TIP3   OH230607   0.335   0.204   6.896  0.0341 -0.5723  0.1467
 3039TIP3    H130608   0.317   0.282   6.949 -0.8276 -0.6193 -0.0633
 3039TIP3    H230609   0.313   0.231   6.807  0.2739 -0.8806 -0.0027
 3040TIP3   OH230610   6.353   3.072  16.751  0.1295 -0.2426 -0.7531
 3040TIP3    H130611   6.262   3.045  16.767 -1.0509  3.0139 -1.4835
 3040TIP3    H230612   6.364   3.064  16.656  0.8925 -1.4587 -0.5644
 3041TIP3   OH230613   0.949   1.333   5.826  0.2643 -0.5635 -0.6409
 3041TIP3    H130614   0.857   1.353   5.846  0.3927  1.2918 -1.7934
 3041TIP3    H230615   0.956   1.238   5.838 -1.7649 -0.7052 -0.4204
 3042TIP3   OH230616   1.684   2.888  15.670  0.4734  0.0881  0.9996
 3042TIP3    H130617   1.750   2.950  15.701  1.1274 -0.6416  1.0822
 3042TIP3    H230618   1.616   2.891  15.738  1.5791 -0.9975  2.1863
 3043TIP3   OH230619   1.545   1.996   3.506  0.0592  0.5419 -0.3071
 3043TIP3    H130620   1.566   1.919   3.454  0.1068  0.0804  0.3831
 3043TIP3    H230621   1.591   2.068   3.463  1.1133 -0.0437 -0.1816
 3044TIP3   OH230622   2.651   0.942   3.020 -0.1892 -0.3191  0.4510
 3044TIP3    H130623   2.645   0.885   2.944  1.2760 -0.4422  0.4124
 3044TIP3    H230624   2.701   0.891   3.085  2.5562  1.4696 -0.1640
 3045TIP3   OH230625   0.499   5.168  13.162 -0.2096 -0.3227  0.3483
 3045TIP3    H130626   0.416   5.204  13.130 -0.6960 -0.9442  0.8922
 3045TIP3    H230627   0.566   5.224  13.123 -0.9160  0.6491  0.4987
 3046TIP3   OH230628   1.355   1.796   2.418 -0.1668 -0.4423 -0.0084
 3046TIP3    H130629   1.437   1.755   2.445  0.5447  0.6452 -0.4728
 3046TIP3    H230630   1.348   1.776   2.325 -0.8948 -1.3097  0.2315
 3047TIP3   OH230631   2.024   2.107   0.619  0.4596  0.4546  0.0265
 3047TIP3    H130632   2.116   2.131   0.603  0.6769  2.3962  3.5640
 3047TIP3    H230633   1.973   2.163   0.561  1.3966  2.4710  1.0929
 3048TIP3   OH230634   2.574   0.379  11.563 -0.1914  0.7340 -0.0352
 3048TIP3    H130635   2.565   0.439  11.488 -1.8707  0.0047 -0.4405
 3048TIP3    H230636   2.667   0.382  11.585 -0.3706  4.1811  0.5242
 3049TIP3   OH230637   1.731   6.093   5.876 -0.4982 -0.7740  0.5414
 3049TIP3    H130638   1.795   6.158   5.847 -1.6808  0.4611  0.6373
 3049TIP3    H230639   1.697   6.055   5.795 -1.7558  0.6638  0.3717
 3050TIP3   OH230640   1.200   0.795  15.705 -0.2074 -0.4808  0.1049
 3050TIP3    H130641   1.226   0.859  15.771  0.9403 -1.6150  0.7824
 3050TIP3    H230642   1.109   0.775  15.724 -0.3968  0.5233  0.2485
 3051TIP3   OH230643   3.670   4.020   6.062  0.1171 -0.0366 -0.1524
 3051TIP3    H130644   3.595   4.024   6.121  1.0641  0.4504  1.0373
 3051TIP3    H230645   3.731   3.960   6.105 -0.0387 -1.2989 -1.6454
 3052TIP3   OH230646   3.206   6.344  13.300  0.3651 -0.0439 -0.6566
 3052TIP3    H130647   3.270   6.285  13.339 -1.7225 -1.5937  0.5547
 3052TIP3    H230648   3.221   6.337  13.206  0.7629 -1.8042 -0.4756
 3053TIP3   OH230649   6.514   3.438  13.168  0.3115  0.2169  0.3194
 3053TIP3    H130650   6.540   3.371  13.231 -0.8117  0.1224  0.6874
 3053TIP3    H230651   6.430   3.470  13.200 -2.0115 -2.2173 -2.9268
 3054TIP3   OH230652   0.700   3.719   3.042  0.0355 -0.0192 -0.0109
 3054TIP3    H130653   0.671   3.786   3.104  0.3538  0.8467 -0.7892
 3054TIP3    H230654   0.716   3.642   3.095 -0.8189  0.3791  0.8319
 3055TIP3   OH230655   5.958   3.011   6.405  0.0202 -0.0276  0.1907
 3055TIP3    H130656   6.018   2.945   6.371  0.9885  0.7476  0.3985
 3055TIP3    H230657   6.014   3.084   6.432 -0.7894 -0.2283  2.5837
 3056TIP3   OH230658   3.395   4.311  10.671 -0.0207 -0.2583 -0.0610
 3056TIP3    H130659   3.417   4.218  10.658  1.9506  0.4149 -1.9609
 3056TIP3    H230660   3.404   4.325  10.765  1.0200 -1.6818  0.0708
 3057TIP3   OH230661   3.656   3.988   0.714  0.0185  0.2542 -0.5395
 3057TIP3    H130662   3.673   4.075   0.750 -0.4975  0.5044 -0.8866
 3057TIP3    H230663   3.607   3.943   0.783 -1.0100  0.7487 -0.9341
 3058TIP3   OH230664   4.891   2.651   0.488 -0.6038 -0.3233 -0.3743
 3058TIP3    H130665   4.970   2.703   0.495 -0.6624 -0.0563 -1.6479
 3058TIP3    H230666   4.847   2.662   0.573  0.6099 -0.3167  0.2571
 3059TIP3   OH230667   3.692   2.525   0.256 -0.1096 -0.4497 -0.1765
 3059TIP3    H130668   3.692   2.567   0.170  0.4830 -1.6398 -0.7665
 3059TIP3    H230669   3.610   2.476   0.259  0.9078 -2.2355 -0.9824
 3060TIP3   OH230670   1.281   1.343   5.210  1.0601 -0.5800 -0.0911
 3060TIP3    H130671   1.329   1.397   5.272  1.1411 -0.4009 -0.3079
 3060TIP3    H230672   1.218   1.294   5.264  0.6634  0.0818  0.0552
 3061TIP3   OH230673   6.626   5.934   5.079  0.3908 -0.8247 -0.8690
 3061TIP3    H130674   6.659   5.959   4.993 -2.1447 -0.0125 -1.6516
 3061TIP3    H230675   6.614   6.017   5.125 -0.1367 -1.1136 -0.4774
 3062TIP3   OH230676   3.368   2.251   5.871 -0.6255 -0.4496  0.2788
 3062TIP3    H130677   3.418   2.226   5.794 -3.0035 -1.5338 -0.9552
 3062TIP3    H230678   3.386   2.182   5.935  1.7045  0.6885  0.8949
 3063TIP3   OH230679   0.044   6.188   5.263  0.3528 -0.0256  0.5382
 3063TIP3    H130680   0.050   6.189   5.167  0.3730 -1.5635  0.5111
 3063TIP3    H230681   0.109   6.123   5.290 -1.0061 -0.9872  1.4895
 3064TIP3   OH230682   2.046   3.201  15.877  0.1768  0.7668 -0.4301
 3064TIP3    H130683   2.045   3.208  15.972 -0.9882  2.0647 -0.5169
 3064TIP3    H230684   2.025   3.290  15.846  0.8406  0.4288 -1.8904
 3065TIP3   OH230685   2.019   3.450  14.361 -0.4439 -0.2124  0.3421
 3065TIP3    H130686   2.062   3.388  14.421  1.4154 -0.5000 -1.2308
 3065TIP3    H230687   2.090   3.481  14.304 -1.7206  1.8927 -0.1594
 3066TIP3   OH230688   4.508   5.762  15.698  0.3445  0.3002 -0.2032
 3066TIP3    H130689   4.419   5.774  15.730  0.5700 -2.4429  1.6276
 3066TIP3    H230690   4.512   5.813  15.617 -3.2175 -0.3939 -0.9073
 3067TIP3   OH230691   2.637   6.664   4.712  0.1385 -0.3337  0.0922
 3067TIP3    H130692   2.729   6.689   4.724  0.1857 -0.6356  0.3516
 3067TIP3    H230693   2.588   6.728   4.763  0.0941  0.8924 -1.4231
 3068TIP3   OH230694   5.812   0.137   5.146  0.6906  0.3356  0.0788
 3068TIP3    H130695   5.863   0.188   5.210 -1.5489  1.6599  0.8829
 3068TIP3    H230696   5.763   0.076   5.200 -1.4345  1.6564 -0.3094
 3069TIP3   OH230697   2.050   3.014  12.780 -0.1234  0.2160 -0.0315
 3069TIP3    H130698   1.987   2.944  12.797  2.0674 -1.5077  1.2716
 3069TIP3    H230699   2.132   2.968  12.764  0.5655  2.3705 -3.0465
 3070TIP3   OH230700   3.142   5.259   3.053  0.3082  0.2246  0.1064
 3070TIP3    H130701   3.061   5.264   3.003 -0.1544  0.9614  0.9063
 3070TIP3    H230702   3.209   5.293   2.994 -0.5975  3.2600  0.7072
 3071TIP3   OH230703   3.375   3.459   4.333  0.1485  0.0080 -0.0725
 3071TIP3    H130704   3.444   3.526   4.333  0.7268 -0.5855  0.0560
 3071TIP3    H230705   3.393   3.406   4.255  0.7985 -1.1267  0.8407
 3072TIP3   OH230706   0.931   6.361  14.286  0.3171  0.2145 -0.0255
 3072TIP3    H130707   0.885   6.283  14.319  1.8712  0.3189  2.5358
 3072TIP3    H230708   0.876   6.392  14.214 -1.2850 -2.2003  0.0854
 3073TIP3   OH230709   3.725   6.747   4.269 -0.1084 -0.3301 -0.2807
 3073TIP3    H130710   3.790   6.817   4.282 -0.3397  0.0447 -1.0924
 3073TIP3    H230711   3.753   6.704   4.188 -0.7367 -0.3134 -0.5095
 3074TIP3   OH230712   3.319   4.144   4.435  0.2634 -0.1866  0.3816
 3074TIP3    H130713   3.310   4.160   4.529 -0.6490  0.5087  0.1851
 3074TIP3    H230714   3.266   4.213   4.394 -0.8745 -1.6078 -0.5870
 3075TIP3   OH230715   6.098   0.084  13.416  0.7615  0.1302  0.1951
 3075TIP3    H130716   6.012   0.057  13.448  0.2381  2.3205  0.7675
 3075TIP3    H230717   6.097   0.180  13.425  2.6487  0.3143 -1.3239
 3076TIP3   OH230718   5.886   0.826  11.808 -0.0275 -0.3870  0.0715
 3076TIP3    H130719   5.897   0.920  11.796 -1.6379 -0.3431 -1.2964
 3076TIP3    H230720   5.824   0.818  11.881 -1.0941 -0.3469 -0.8254
 3077TIP3   OH230721   0.262   2.750  17.094 -0.1032  0.2692 -0.2616
 3077TIP3    H130722   0.310   2.792  17.165 -0.7883 -0.1180  0.4482
 3077TIP3    H230723   0.311   2.669  17.076  0.5494  0.7856 -0.8187
 3078TIP3   OH230724   3.243   1.602   1.523 -0.3552 -0.0630  0.5496
 3078TIP3    H130725   3.191   1.641   1.452  0.3974 -0.9511 -0.5095
 3078TIP3    H230726   3.225   1.509   1.517  0.6498 -0.2726  0.7664
 3079TIP3   OH230727   3.196   5.580  15.858 -0.1781 -0.2308 -0.4757
 3079TIP3    H130728   3.149   5.544  15.783  1.0691 -0.6979 -1.0378
 3079TIP3    H230729   3.240   5.505  15.898 -2.1496 -0.2766  1.7176
 3080TIP3   OH230730   2.053   3.704  11.108 -0.6034 -0.1342 -0.7022
 3080TIP3    H130731   2.030   3.696  11.016 -1.0908 -0.5719 -0.5487
 3080TIP3    H230732   2.035   3.796  11.130 -2.8410 -0.6086 -0.4294
 3081TIP3   OH230733   0.372   2.739  15.675 -0.7049 -0.2871  0.3267
 3081TIP3    H130734   0.467   2.749  15.665 -0.8269 -0.1292 -0.7407
 3081TIP3    H230735   0.357   2.645  15.676 -0.3962 -0.3460  2.0402
 3082TIP3   OH230736   3.643   1.875   5.180  0.2442 -0.2622 -0.0969
 3082TIP3    H130737   3.726   1.902   5.219 -0.0940  3.8744 -2.0781
 3082TIP3    H230738   3.582   1.870   5.254  1.6456 -1.0318  1.0351
 3083TIP3   OH230739   5.954   5.208  13.305  0.0258 -0.6913  0.2733
 3083TIP3    H130740   5.995   5.125  13.284  0.0779  0.1424 -3.1583
 3083TIP3    H230741   6.021   5.257  13.353  1.4747 -1.0387 -1.3562
 3084TIP3   OH230742   2.036   1.840   4.183  0.2795  0.1145 -0.2245
 3084TIP3    H130743   1.953   1.877   4.212  0.3548  0.5926 -0.6103
 3084TIP3    H230744   2.053   1.768   4.244  0.7571  1.4917  1.2975
 3085TIP3   OH230745   6.461   6.431   4.344  0.0397  0.2917  0.2423
 3085TIP3    H130746   6.485   6.517   4.310  0.9406 -0.4708 -1.0703
 3085TIP3    H230747   6.368   6.422   4.321  0.4446  0.0941 -1.4188
 3086TIP3   OH230748   3.323   1.419  11.507  0.0555  0.2086  0.5142
 3086TIP3    H130749   3.230   1.411  11.486  0.3426 -1.1177 -0.3316
 3086TIP3    H230750   3.326   1.411  11.602 -0.7204  0.5157  0.5736
 3087TIP3   OH230751   0.323   2.049  16.747  0.1042 -0.0859 -0.3670
 3087TIP3    H130752   0.347   1.973  16.800  0.9061  1.1276  1.0020
 3087TIP3    H230753   0.344   2.125  16.801 -1.5697  1.1164 -1.3469
 3088TIP3   OH230754   1.293   0.567   0.495 -0.0666 -0.0313  0.1234
 3088TIP3    H130755   1.327   0.652   0.468 -0.6207  0.0221 -0.4189
 3088TIP3    H230756   1.230   0.544   0.427  0.9598 -1.4310 -0.3762
 3089TIP3   OH230757   5.490   3.598   1.058  0.0274  0.3004 -0.1376
 3089TIP3    H130758   5.417   3.659   1.048  0.3675  0.4103 -2.1354
 3089TIP3    H230759   5.456   3.513   1.031  0.7178  0.4175 -1.4121
 3090TIP3   OH230760   5.105   3.702  16.016  0.7643 -0.1834  0.3290
 3090TIP3    H130761   5.121   3.663  15.930  0.8543 -0.2361  0.3696
 3090TIP3    H230762   5.182   3.756  16.032 -0.0257  1.1991 -0.3856
 3091TIP3   OH230763   4.981   4.198  13.746 -0.2109  0.0161  0.4802
 3091TIP3    H130764   4.980   4.190  13.842  0.3062 -0.6978  0.4336
 3091TIP3    H230765   4.895   4.166  13.719 -0.2146 -0.1471  0.6797
 3092TIP3   OH230766   1.183   6.171  12.800  0.6027 -0.4890  0.1652
 3092TIP3    H130767   1.143   6.200  12.881  0.3449 -2.2180  0.6657
 3092TIP3    H230768   1.110   6.162  12.738  0.3967 -2.0771  0.6166
 3093TIP3   OH230769   1.937   5.885  10.901 -0.0675 -0.1034  0.0474
 3093TIP3    H130770   1.993   5.819  10.944  1.8731  1.4999  0.0338
 3093TIP3    H230771   1.960   5.878  10.808  0.0837  0.5363  0.0395
 3094TIP3   OH230772   1.876   1.716  16.660 -0.4534  0.1707  0.5091
 3094TIP3    H130773   1.826   1.649  16.614 -0.4683 -0.3429  1.2536
 3094TIP3    H230774   1.954   1.730  16.606  0.0654 -1.2022  0.8655
 3095TIP3   OH230775   5.656   2.072   5.580  0.2493  0.5122  0.9046
 3095TIP3    H130776   5.722   2.004   5.566 -1.3348 -0.9916  0.6286
 3095TIP3    H230777   5.635   2.066   5.673 -1.4226 -0.8417  0.4707
 3096TIP3   OH230778   1.878   0.164   3.419  0.0971 -0.8706  0.3744
 3096TIP3    H130779   1.809   0.183   3.482  0.3720 -0.2336  0.4879
 3096TIP3    H230780   1.831   0.151   3.336 -0.2850 -2.0036  0.7618
 3097TIP3   OH230781   6.724   0.341  16.759  0.6933 -0.4929 -0.0173
 3097TIP3    H130782   6.819   0.346  16.763  0.6770 -0.2310  0.0862
 3097TIP3    H230783   6.706   0.263  16.708  0.9563 -0.9494  0.5808
 3098TIP3   OH230784   1.624   4.457  13.945  0.1633 -0.4412  0.4716
 3098TIP3    H130785   1.540   4.468  13.989 -0.2891 -0.8597 -0.2694
 3098TIP3    H230786   1.618   4.370  13.903  0.0007  0.5500 -1.6422
 3099TIP3   OH230787   3.491   1.663   4.063 -0.0718  0.7663 -0.6196
 3099TIP3    H130788   3.436   1.703   4.130 -0.0892  0.3949 -0.4067
 3099TIP3    H230789   3.578   1.700   4.078  0.0559  0.2342 -0.0007
 3100TIP3   OH230790   2.134   6.675   1.047  0.2670  0.4021 -0.2271
 3100TIP3    H130791   2.168   6.742   1.105 -0.0417 -0.5526  1.0737
 3100TIP3    H230792   2.149   6.710   0.959 -2.1947  3.3331  0.4303
 3101TIP3   OH230793   1.057   3.840   2.565 -0.6656 -0.3736  0.2090
 3101TIP3    H130794   1.083   3.794   2.485 -1.6206  2.1874 -1.6404
 3101TIP3    H230795   1.093   3.786   2.636  0.7071 -2.4032 -1.9284
 3102TIP3   OH230796   4.241   3.165  14.992 -0.2118 -0.2719 -0.3486
 3102TIP3    H130797   4.172   3.198  15.050 -0.3385 -1.1060 -0.0269
 3102TIP3    H230798   4.195   3.113  14.927  0.0759 -0.4663 -0.3943
 3103TIP3   OH230799   1.704   1.837   5.190  0.5753  0.4127 -0.1062
 3103TIP3    H130800   1.610   1.847   5.210  0.3882 -0.4558 -0.5229
 3103TIP3    H230801   1.716   1.742   5.180  1.5379  0.5057  0.1189
 3104TIP3   OH230802   2.081   2.156  12.625  0.2326  0.0273  0.0690
 3104TIP3    H130803   2.105   2.231  12.679  0.7259 -0.7030  0.8749
 3104TIP3    H230804   1.986   2.149  12.634 -0.0713  1.6926 -1.5152
 3105TIP3   OH230805   4.888   5.023  12.639  0.1819 -0.7289  0.0526
 3105TIP3    H130806   4.804   5.060  12.667 -0.7418 -1.7490 -1.3008
 3105TIP3    H230807   4.952   5.092  12.658 -1.0313  0.2425  0.6738
 3106TIP3   OH230808   2.130   3.560  14.130 -0.3660 -0.3996 -0.0178
 3106TIP3    H130809   2.208   3.590  14.083  0.6236 -0.3090  1.6074
 3106TIP3    H230810   2.060   3.618  14.102  0.8516  1.4860  0.7666
 3107TIP3   OH230811   6.137   4.708  14.509 -0.2792  0.1488 -0.4997
 3107TIP3    H130812   6.060   4.651  14.517  0.1198 -0.4666 -0.9903
 3107TIP3    H230813   6.143   4.726  14.415 -0.1747  0.6827 -0.3891
 3108TIP3   OH230814   1.339   4.176   6.903  0.0114  0.1973 -0.1072
 3108TIP3    H130815   1.332   4.080   6.901  0.1463  0.1924 -0.3109
 3108TIP3    H230816   1.270   4.203   6.963 -1.0629  0.0772 -1.2782
 3109TIP3   OH230817   5.313   1.630  10.782 -0.0726  0.4269  0.3202
 3109TIP3    H130818   5.405   1.623  10.810  0.4310 -1.4878 -1.6767
 3109TIP3    H230819   5.319   1.648  10.688 -1.7654 -0.3435  0.0660
 3110TIP3   OH230820   0.061   5.000   3.804  0.7890 -0.4258  0.2541
 3110TIP3    H130821  -0.018   5.010   3.752  1.3406  1.7886 -0.2368
 3110TIP3    H230822   0.096   4.914   3.780  0.2219 -0.0679 -1.8867
 3111TIP3   OH230823   2.423   0.538  13.249  0.6914 -0.2005  1.1204
 3111TIP3    H130824   2.404   0.548  13.342 -1.3213  0.4333  0.6618
 3111TIP3    H230825   2.450   0.625  13.220 -1.6566  0.3381  0.4744
 3112TIP3   OH230826   6.681   0.841   4.218  0.3717 -0.3577 -0.0487
 3112TIP3    H130827   6.639   0.773   4.271 -0.8606  2.0073  2.1426
 3112TIP3    H230828   6.768   0.851   4.257  0.6783 -0.9418 -0.5934
 3113TIP3   OH230829   4.591   4.364   2.617  0.3309 -0.0959  0.1276
 3113TIP3    H130830   4.627   4.425   2.552  1.5461 -1.2987 -0.3504
 3113TIP3    H230831   4.553   4.294   2.565  0.2079 -0.4521  0.6951
 3114TIP3   OH230832   5.071   1.221   5.118 -0.0081 -0.5212  0.2273
 3114TIP3    H130833   5.127   1.291   5.152 -1.4544  0.4364  0.6523
 3114TIP3    H230834   5.040   1.255   5.034 -0.7688 -0.6074  0.4694
 3115TIP3   OH230835   5.637   3.383   4.318  0.6778 -0.0779  0.3648
 3115TIP3    H130836   5.696   3.381   4.393  0.1722 -0.4251  0.7587
 3115TIP3    H230837   5.656   3.466   4.274  0.1087  0.6900  1.5764
 3116TIP3   OH230838   4.035   1.904   2.687  0.2484  0.8527 -0.0280
 3116TIP3    H130839   4.058   1.918   2.596  1.2465 -1.9896 -0.2709
 3116TIP3    H230840   4.119   1.911   2.734  0.3021 -1.1662  0.1972
 3117TIP3   OH230841   4.834   3.739  11.772 -0.0265 -0.0231 -0.4662
 3117TIP3    H130842   4.741   3.716  11.778 -0.1190  0.8787  2.8365
 3117TIP3    H230843   4.880   3.662  11.805  0.3096  0.1814 -0.4544
 3118TIP3   OH230844   4.818   6.102   2.555 -0.2975 -0.6807  0.1530
 3118TIP3    H130845   4.852   6.016   2.529  1.2858 -0.2086  0.6050
 3118TIP3    H230846   4.726   6.086   2.575  0.0527 -2.3470  0.5407
 3119TIP3   OH230847   2.295   3.511   1.458 -0.2962 -1.0191  0.2785
 3119TIP3    H130848   2.262   3.497   1.546 -0.2781 -1.4158  0.2266
 3119TIP3    H230849   2.323   3.423   1.429  1.3857 -0.6047  0.5686
 3120TIP3   OH230850   6.276   1.065   1.509  0.2163  0.3428  0.0784
 3120TIP3    H130851   6.351   1.034   1.558 -0.1770  0.5551  0.8248
 3120TIP3    H230852   6.310   1.085   1.422  0.8639 -0.2850  0.1871
 3121TIP3   OH230853   0.111   6.436   0.627 -0.4576  0.1135  0.2726
 3121TIP3    H130854   0.051   6.369   0.661  1.7275 -1.2627  1.4748
 3121TIP3    H230855   0.121   6.497   0.700 -2.5235  1.8748 -0.8541
 3122TIP3   OH230856   0.519   6.424  15.304 -0.4509 -0.0636 -0.1586
 3122TIP3    H130857   0.553   6.360  15.367  0.5457 -0.2472 -0.8626
 3122TIP3    H230858   0.471   6.487  15.358  1.0135  0.1981  0.8930
 3123TIP3   OH230859   6.348   2.550   2.754  0.2990  0.2955  0.1601
 3123TIP3    H130860   6.308   2.600   2.826 -0.8935  1.0673 -1.0282
 3123TIP3    H230861   6.346   2.459   2.784 -0.2551  0.5972  1.0780
 3124TIP3   OH230862   6.631   2.440  15.447  0.0415 -0.5208 -0.0396
 3124TIP3    H130863   6.541   2.463  15.468  0.2115  0.8679 -0.7679
 3124TIP3    H230864   6.623   2.383  15.370 -0.1868  0.0696 -0.4554
 3125TIP3   OH230865   1.656   5.691   6.036  0.3850 -0.0799 -0.0686
 3125TIP3    H130866   1.595   5.742   5.983  0.7517 -1.5505 -1.9576
 3125TIP3    H230867   1.738   5.695   5.988  1.1384 -0.1207  1.2170
 3126TIP3   OH230868   2.155   6.803   0.163  0.4575  0.4895 -0.5316
 3126TIP3    H130869   2.167   6.762   0.249 -1.1010  0.5272 -0.2922
 3126TIP3    H230870   2.236   6.852   0.149  0.3784  1.2120  1.3149
 3127TIP3   OH230871   5.238   0.179  14.242 -0.3357  0.4600  0.3001
 3127TIP3    H130872   5.203   0.090  14.250  1.1990 -0.1453  0.4738
 3127TIP3    H230873   5.299   0.174  14.168 -0.1612  1.3438  0.3835
 3128TIP3   OH230874   4.471   3.566   3.667  0.3309 -0.0713  0.1954
 3128TIP3    H130875   4.450   3.503   3.599 -2.5440  2.3204 -1.2615
 3128TIP3    H230876   4.522   3.634   3.622 -1.6018  1.5344  0.3371
 3129TIP3   OH230877   1.066   5.838  13.729  0.0625  0.4948 -0.2105
 3129TIP3    H130878   1.014   5.918  13.731  1.1831  1.2435 -0.6964
 3129TIP3    H230879   1.104   5.836  13.641 -0.8490 -1.1579 -0.5913
 3130TIP3   OH230880   6.041   1.791  16.612 -0.6323  0.1722  0.0349
 3130TIP3    H130881   5.976   1.726  16.587  0.3682 -0.2266 -1.5913
 3130TIP3    H230882   6.087   1.752  16.687  0.2976 -1.2044 -1.2428
 3131TIP3   OH230883   6.446   6.538   6.799 -0.3174  0.1810  0.1230
 3131TIP3    H130884   6.393   6.509   6.874 -0.3451 -0.3647 -0.1004
 3131TIP3    H230885   6.450   6.461   6.742  0.9915  0.1189  0.2849
 3132TIP3   OH230886   6.715   3.177   3.362 -0.4272  0.1960  0.1651
 3132TIP3    H130887   6.651   3.190   3.432  0.7456 -0.4963  1.3710
 3132TIP3    H230888   6.768   3.103   3.391  1.6184  1.4301 -0.3280
 3133TIP3   OH230889   5.433   4.858  13.927 -0.3456  0.1601  0.6324
 3133TIP3    H130890   5.506   4.828  13.872 -1.0373  0.8026 -0.6707
 3133TIP3    H230891   5.453   4.950  13.945 -1.5002  0.7251 -0.8755
 3134TIP3   OH230892   6.225   1.387  13.877  0.4069  0.0697 -0.0949
 3134TIP3    H130893   6.150   1.347  13.920  1.2042 -0.7558  0.5599
 3134TIP3    H230894   6.255   1.455  13.937 -0.2852  0.9209 -0.7102
 3135TIP3   OH230895   1.894   6.341  16.138 -0.0873  0.2001  0.4767
 3135TIP3    H130896   1.885   6.382  16.224 -1.9244  0.1427  0.3177
 3135TIP3    H230897   1.984   6.361  16.112  0.0242  1.4606  1.7669
 3136TIP3   OH230898   2.705   4.918  12.399 -0.7896  0.4879 -0.6378
 3136TIP3    H130899   2.782   4.878  12.439 -2.1940 -1.9917 -0.2658
 3136TIP3    H230900   2.698   4.876  12.313 -2.5900 -0.5193 -0.0301
 3137TIP3   OH230901   0.683   2.003  14.172  0.1335  0.0873  0.5940
 3137TIP3    H130902   0.765   2.046  14.149 -0.0392 -0.2256 -0.6448
 3137TIP3    H230903   0.647   2.056  14.244  0.9266  0.8066  0.4652
 3138TIP3   OH230904   4.141   0.601  15.334  0.6814 -0.2785  0.1670
 3138TIP3    H130905   4.121   0.508  15.334 -0.4562 -0.0659 -2.3058
 3138TIP3    H230906   4.080   0.639  15.398  1.3371 -1.2358  1.3854
 3139TIP3   OH230907   0.417   0.536   5.582 -0.1363  0.3591  0.0918
 3139TIP3    H130908   0.483   0.605   5.579  0.2372  0.0381  0.7228
 3139TIP3    H230909   0.460   0.460   5.543  0.1647 -0.0788  1.2370
 3140TIP3   OH230910   1.945   2.930  12.241  0.1540 -0.2110 -0.4082
 3140TIP3    H130911   1.948   2.853  12.184 -0.7255 -0.4500 -0.1426
 3140TIP3    H230912   1.948   2.895  12.330  1.2948  0.1491 -0.2954
 3141TIP3   OH230913   3.999   2.990   4.793 -0.1034 -0.3904  0.4733
 3141TIP3    H130914   3.903   3.001   4.790  0.0183  0.8867  0.7423
 3141TIP3    H230915   4.019   2.980   4.886  0.2116  1.3088  0.6011
 3142TIP3   OH230916   3.696   2.030  12.122  0.3937 -0.4434 -0.2802
 3142TIP3    H130917   3.729   2.014  12.210  1.1259  1.5843 -0.1722
 3142TIP3    H230918   3.602   2.040  12.132  0.3860 -0.9397  0.1543
 3143TIP3   OH230919   1.761   0.452  12.324  0.5391  0.2321  0.0323
 3143TIP3    H130920   1.670   0.428  12.306  0.3471  0.3376  0.8614
 3143TIP3    H230921   1.795   0.482  12.239 -0.5471  1.3328 -0.0222
 3144TIP3   OH230922   4.982   5.412  12.367 -0.1485 -0.0921 -0.0737
 3144TIP3    H130923   4.939   5.497  12.369 -0.8962 -0.4640 -0.0794
 3144TIP3    H230924   4.959   5.374  12.282 -0.3875 -0.5867  0.2063
 3145TIP3   OH230925   4.742   1.798   0.107  0.2778 -0.2117  0.3297
 3145TIP3    H130926   4.813   1.738   0.086  1.0927  0.8200  0.0622
 3145TIP3    H230927   4.719   1.839   0.024  0.8297  1.0029  0.7547
 3146TIP3   OH230928   1.748   2.411  11.144 -0.0011 -0.2236 -0.1398
 3146TIP3    H130929   1.673   2.439  11.090 -0.6177 -1.1038  0.2648
 3146TIP3    H230930   1.805   2.488  11.145 -0.8910  0.4575 -0.4559
 3147TIP3   OH230931   0.999   3.319  15.329  0.0486 -0.2573  0.4590
 3147TIP3    H130932   0.999   3.243  15.272  0.6362  1.0238 -1.2860
 3147TIP3    H230933   0.920   3.368  15.304  0.2700  0.2742  0.7847
 3148TIP3   OH230934   2.222   0.167   0.592  0.0124 -0.8911  0.4827
 3148TIP3    H130935   2.291   0.226   0.564 -1.0480  0.8158  1.4129
 3148TIP3    H230936   2.154   0.175   0.524 -0.0134 -1.2845  0.4570
 3149TIP3   OH230937   4.821   6.699   0.472 -0.6308  0.2607  0.3194
 3149TIP3    H130938   4.862   6.785   0.469 -2.5830  1.2295  1.1265
 3149TIP3    H230939   4.831   6.670   0.563 -1.7003  0.4798  0.5063
 3150TIP3   OH230940   1.388   3.406  13.724  0.4953  0.8075  0.1946
 3150TIP3    H130941   1.344   3.439  13.646  1.2455  1.7763  0.1710
 3150TIP3    H230942   1.335   3.436  13.797  1.6565  2.8775  0.2206
 3151TIP3   OH230943   3.611   6.607   6.638  0.3786  0.6690  0.1682
 3151TIP3    H130944   3.544   6.656   6.591 -0.5074  0.7529  1.4814
 3151TIP3    H230945   3.570   6.523   6.658  0.8827  0.4798  0.4221
 3152TIP3   OH230946   6.742   5.483  14.742  0.5584  0.0436  0.2246
 3152TIP3    H130947   6.757   5.409  14.801  1.4610  0.6646  0.7791
 3152TIP3    H230948   6.648   5.501  14.749  0.7819  0.5587  2.0011
 3153TIP3   OH230949   2.904   2.291   4.939 -0.4618 -0.5048  0.5243
 3153TIP3    H130950   2.934   2.353   5.006 -0.2295 -0.5097  0.4250
 3153TIP3    H230951   2.984   2.250   4.907 -0.4918  0.1262 -0.3754
 3154TIP3   OH230952   5.294   5.792  10.484  0.0086 -0.3208 -0.6657
 3154TIP3    H130953   5.314   5.882  10.510  3.1929 -1.3813  0.8440
 3154TIP3    H230954   5.371   5.742  10.512 -2.6551 -3.8958  0.5255
 3155TIP3   OH230955   5.132   4.695   0.497 -0.1223  0.7499 -0.4652
 3155TIP3    H130956   5.119   4.600   0.497 -0.8874  0.8423  0.9562
 3155TIP3    H230957   5.046   4.731   0.475 -0.3747  1.1538  1.1227
 3156TIP3   OH230958   5.206   5.221  13.356  0.2555  0.1306 -0.0800
 3156TIP3    H130959   5.214   5.126  13.365 -0.2971  0.1258  0.3351
 3156TIP3    H230960   5.282   5.255  13.403  0.2140 -0.0888  0.1498
 3157TIP3   OH230961   5.108   2.113  16.890 -0.4877  0.0284  0.1565
 3157TIP3    H130962   5.017   2.103  16.920 -0.3752  1.1773  0.9091
 3157TIP3    H230963   5.157   2.049  16.943 -0.3215  1.9260  2.3582
 3158TIP3   OH230964   3.885   5.184   0.333 -0.0244  0.3769 -0.4290
 3158TIP3    H130965   3.850   5.273   0.329 -0.0309  0.4599  1.1849
 3158TIP3    H230966   3.973   5.195   0.368 -0.9419 -0.4602  2.2582
 3159TIP3   OH230967   6.345   3.014   5.715  0.1410 -0.0125  0.4263
 3159TIP3    H130968   6.420   3.025   5.657  0.9967 -2.3897  1.0015
 3159TIP3    H230969   6.383   3.011   5.803 -0.6270 -0.9484  0.7428
 3160TIP3   OH230970   0.962   2.493   1.595 -0.6276 -0.1644 -0.1032
 3160TIP3    H130971   1.022   2.544   1.650 -1.7846 -0.0751  1.0994
 3160TIP3    H230972   0.950   2.546   1.516  1.6163 -0.6230 -0.7928
 3161TIP3   OH230973   1.021   1.116   5.181  0.3422 -0.0189  0.2308
 3161TIP3    H130974   0.959   1.066   5.233 -1.3213 -1.6851 -3.1859
 3161TIP3    H230975   1.104   1.068   5.189 -0.5825 -1.8732 -0.8268
 3162TIP3   OH230976   6.169   3.909  14.668  0.2650 -0.6068  0.1025
 3162TIP3    H130977   6.074   3.895  14.676 -0.3950  2.9544 -0.5299
 3162TIP3    H230978   6.184   3.918  14.574  1.2496 -1.1976  0.1986
 3163TIP3   OH230979   3.004   4.878   1.353 -0.8319  0.0435 -0.1283
 3163TIP3    H130980   3.074   4.935   1.384 -0.0959 -0.4821 -0.8144
 3163TIP3    H230981   2.976   4.829   1.430  0.5066 -0.7487 -0.1382
 3164TIP3   OH230982   2.361   5.731   1.177 -0.5869  0.1248 -0.0286
 3164TIP3    H130983   2.389   5.783   1.253  0.1328  0.5541 -0.5909
 3164TIP3    H230984   2.432   5.740   1.114 -0.8817 -0.7912 -0.4925
 3165TIP3   OH230985   3.910   3.865  12.656 -0.5561  0.3984  0.0248
 3165TIP3    H130986   3.831   3.839  12.607 -1.6419  2.5762  0.5397
 3165TIP3    H230987   3.923   3.957  12.633  0.5805  0.6599  1.6299
 3166TIP3   OH230988   5.352   4.371  15.315  0.7073 -0.0241  0.0622
 3166TIP3    H130989   5.378   4.289  15.357  0.8180 -1.0167 -1.9114
 3166TIP3    H230990   5.257   4.374  15.325  0.6429 -0.6568 -0.3149
 3167TIP3   OH230991   2.301   3.268   6.291  0.7471 -0.2883 -0.3588
 3167TIP3    H130992   2.349   3.220   6.358  0.5368  1.9992  1.5127
 3167TIP3    H230993   2.209   3.262   6.316  0.7167  1.0479 -0.0870
 3168TIP3   OH230994   1.050   3.714   1.244  0.5562 -0.3873 -0.0718
 3168TIP3    H130995   0.982   3.700   1.178  0.5975  0.4259 -0.2982
 3168TIP3    H230996   1.052   3.633   1.295 -0.0213 -0.7198 -0.5765
 3169TIP3   OH230997   2.555   4.674  14.588  0.0974  0.2514  0.3551
 3169TIP3    H130998   2.516   4.598  14.545 -0.3809  0.5190  0.3144
 3169TIP3    H230999   2.632   4.639  14.633  2.5320  0.4885 -3.3838
 3170TIP3   OH231000   0.422   1.546   4.575  0.0464  0.0047 -0.1504
 3170TIP3    H131001   0.410   1.465   4.624  1.7361 -0.4462 -0.4544
 3170TIP3    H231002   0.477   1.601   4.631  0.8210  0.0295 -0.9124
 3171TIP3   OH231003   1.798   4.412   4.245 -0.6799  0.5779 -0.7491
 3171TIP3    H131004   1.867   4.376   4.301 -0.9852  1.3303  0.1061
 3171TIP3    H231005   1.717   4.394   4.291 -1.0472 -0.0095 -1.6043
 3172TIP3   OH231006   1.578   4.374   2.641  0.4449 -0.5117  0.1336
 3172TIP3    H131007   1.500   4.319   2.638  1.8008 -2.4828  0.2992
 3172TIP3    H231008   1.586   4.399   2.733  0.3124 -0.7475  0.2078
 3173TIP3   OH231009   0.737   3.474  16.803 -0.2543  0.3875 -0.5764
 3173TIP3    H131010   0.721   3.559  16.763 -2.6182 -0.0375 -0.5994
 3173TIP3    H231011   0.707   3.484  16.894 -1.5701 -0.7167 -0.8712
 3174TIP3   OH231012   2.951   5.819  11.987  0.0720 -0.5504  0.2303
 3174TIP3    H131013   2.981   5.853  12.071  0.1502 -0.8995  0.3483
 3174TIP3    H231014   3.023   5.836  11.926 -0.4003  0.6370 -0.0090
 3175TIP3   OH231015   5.045   4.741  12.942  0.0809 -0.0102 -0.2123
 3175TIP3    H131016   4.956   4.706  12.953  0.2475 -0.3136  0.1644
 3175TIP3    H231017   5.064   4.785  13.025  0.9571 -1.4557  0.3685
 3176TIP3   OH231018   5.762   5.571   6.977 -0.4348 -0.1271 -0.4276
 3176TIP3    H131019   5.728   5.527   7.054  1.7716 -0.6413  0.2903
 3176TIP3    H231020   5.706   5.542   6.905  0.0969 -3.0427  0.2602
 3177TIP3   OH231021   5.232   5.266  11.274  0.6002  0.3882  0.1871
 3177TIP3    H131022   5.258   5.349  11.233  0.0369  0.6060  0.2583
 3177TIP3    H231023   5.260   5.274  11.365 -1.2909  1.3494  0.7016
 3178TIP3   OH231024   1.987   5.171   0.138 -0.4325 -0.1318  0.4433
 3178TIP3    H131025   2.066   5.224   0.132 -0.2391 -0.4921 -0.2524
 3178TIP3    H231026   1.917   5.234   0.156 -0.1047  0.2769  0.2858
 3179TIP3   OH231027   3.255   2.387  16.100  0.9185 -0.1887  0.4753
 3179TIP3    H131028   3.323   2.428  16.154 -0.9097  1.2064  1.8048
 3179TIP3    H231029   3.296   2.377  16.014  2.4377  1.6332  0.9434
 3180TIP3   OH231030   4.750   5.487   3.315  0.3146  0.0005  0.3776
 3180TIP3    H131031   4.720   5.457   3.229  0.3299  1.3883 -0.1252
 3180TIP3    H231032   4.691   5.444   3.377 -0.8763  0.4215 -0.4338
 3181TIP3   OH231033   2.947   6.697  15.504  0.2482  0.0750 -0.0747
 3181TIP3    H131034   2.878   6.714  15.568  1.4080 -2.5048  1.9729
 3181TIP3    H231035   2.902   6.658  15.430 -0.7603  0.3232  0.3950
 3182TIP3   OH231036   5.380   2.796  13.199  0.5436  0.0727  0.6454
 3182TIP3    H131037   5.327   2.875  13.205 -0.8831 -0.9564  1.8967
 3182TIP3    H231038   5.412   2.782  13.288  1.9492  0.0126  0.1461
 3183TIP3   OH231039   6.011   4.701   2.869  0.1461  0.1288 -0.0492
 3183TIP3    H131040   6.090   4.654   2.897  0.3225  1.0803  1.0663
 3183TIP3    H231041   6.028   4.792   2.892 -1.3746  0.3121  0.4061
 3184TIP3   OH231042   2.556   1.135  12.241 -0.0536  0.8399 -0.1340
 3184TIP3    H131043   2.634   1.179  12.275 -0.8386  1.9733  0.2301
 3184TIP3    H231044   2.486   1.162  12.300 -0.7098 -0.2352 -0.4151
 3185TIP3   OH231045   1.683   2.751  12.626 -0.6970  0.2411  0.1324
 3185TIP3    H131046   1.743   2.737  12.700 -1.9341  1.4712  1.4153
 3185TIP3    H231047   1.733   2.805  12.565 -0.4315  1.1766  1.1462
 3186TIP3   OH231048   0.563   4.453  13.605  0.1914  0.3328 -0.4178
 3186TIP3    H131049   0.648   4.496  13.603  0.0647  0.5811 -0.5644
 3186TIP3    H231050   0.572   4.379  13.545  1.0498 -1.0722  1.3919
 3187TIP3   OH231051   2.620   3.819   4.323 -0.2735 -0.0810  0.7500
 3187TIP3    H131052   2.675   3.788   4.394 -0.2119 -0.5971  0.4836
 3187TIP3    H231053   2.649   3.909   4.307 -0.0573 -0.0801  1.1481
 3188TIP3   OH231054   2.691   4.758  12.873 -0.1140  0.4320  0.3734
 3188TIP3    H131055   2.669   4.840  12.830 -1.0811 -0.8917 -1.7470
 3188TIP3    H231056   2.621   4.698  12.847  0.3558 -0.9471  2.2106
 3189TIP3   OH231057   6.149   5.374   3.800  0.0782  0.4918  0.0568
 3189TIP3    H131058   6.119   5.416   3.881  1.7744  1.0590  0.4224
 3189TIP3    H231059   6.244   5.379   3.805  0.2067  1.2041 -2.3307
 3190TIP3   OH231060   4.706   0.679  16.807 -0.0609 -0.3927  1.1914
 3190TIP3    H131061   4.682   0.596  16.849 -1.5167 -0.2845  0.5934
 3190TIP3    H231062   4.665   0.747  16.860 -0.5004 -0.1646  0.5627
 3191TIP3   OH231063   3.871   3.440  10.925 -0.0924  0.3023 -0.4419
 3191TIP3    H131064   3.912   3.446  11.011 -1.5932  0.7733  0.2547
 3191TIP3    H231065   3.844   3.529  10.905 -1.8259 -0.2056 -0.3718
 3192TIP3   OH231066   0.243   3.067   1.069 -0.1155  0.5119  0.4539
 3192TIP3    H131067   0.173   3.125   1.100 -1.1113 -0.8267  0.7519
 3192TIP3    H231068   0.293   3.046   1.147 -0.5184 -0.0543  0.5577
 3193TIP3   OH231069   4.750   2.619   0.180 -0.2101 -0.2545  0.2478
 3193TIP3    H131070   4.669   2.567   0.186  0.7454 -1.6455  1.1304
 3193TIP3    H231071   4.781   2.603   0.091 -1.3490  0.9876 -0.4028
 3194TIP3   OH231072   6.658   4.474  14.461 -0.2745 -0.5630  0.2335
 3194TIP3    H131073   6.586   4.533  14.437 -1.5220 -1.2698  2.0743
 3194TIP3    H231074   6.727   4.532  14.493 -0.8851  0.0053  0.5466
 3195TIP3   OH231075   6.007   0.936  12.550 -0.2597 -0.0874  0.7499
 3195TIP3    H131076   5.925   0.931  12.599  0.2240 -2.1384  1.4152
 3195TIP3    H231077   6.023   1.030  12.539 -2.2753  0.3445  1.2981
 3196TIP3   OH231078   5.463   5.030   1.083  0.4859  0.0834  0.2673
 3196TIP3    H131079   5.419   4.968   1.024 -1.3683 -0.4982  2.2094
 3196TIP3    H231080   5.472   5.110   1.032 -0.8094 -0.5046 -0.9034
 3197TIP3   OH231081   0.479   3.600   0.776  0.1927 -0.0356  0.3095
 3197TIP3    H131082   0.520   3.514   0.783 -0.0869 -0.2037 -0.1244
 3197TIP3    H231083   0.547   3.655   0.737  0.6562  0.1428  1.3464
 3198TIP3   OH231084   1.407   6.637   1.552 -0.1613 -0.7908  0.1621
 3198TIP3    H131085   1.433   6.725   1.524 -1.0006 -0.6652 -0.2391
 3198TIP3    H231086   1.385   6.647   1.645 -2.0129 -0.1887 -0.3338
 3199TIP3   OH231087   1.608   5.183  11.782 -0.1662 -0.2749  0.3500
 3199TIP3    H131088   1.699   5.210  11.792 -0.1177 -0.7315  1.1427
 3199TIP3    H231089   1.596   5.112  11.845 -0.7999 -0.8878 -0.4558
 3200TIP3   OH231090   6.593   0.365  14.518  0.3753 -0.1881 -0.2695
 3200TIP3    H131091   6.617   0.308  14.591  0.5097  1.0020  0.6311
 3200TIP3    H231092   6.544   0.309  14.459  0.7821 -1.3164  0.4503
 3201TIP3   OH231093   0.124   4.038  16.794 -0.6499 -0.3805  0.4833
 3201TIP3    H131094   0.069   3.960  16.800  2.1678 -2.4801  0.0658
 3201TIP3    H231095   0.197   4.020  16.854  1.6837  0.4945 -2.0192
 3202TIP3   OH231096   1.126   3.358  15.599 -0.4738 -0.3413  0.1706
 3202TIP3    H131097   1.109   3.388  15.510  0.3925 -0.3589 -0.0032
 3202TIP3    H231098   1.053   3.301  15.620  0.4374 -2.1010 -1.3332
 3203TIP3   OH231099   1.694   5.030  10.926 -0.3434 -0.0904  0.4380
 3203TIP3    H131100   1.616   4.977  10.910 -0.6765  0.3643  0.5386
 3203TIP3    H231101   1.660   5.114  10.957  0.2067 -0.0806  1.0191
 3204TIP3   OH231102   3.775   3.592   0.437  0.3680 -0.6265  0.6272
 3204TIP3    H131103   3.751   3.525   0.502 -2.0461 -0.5053 -0.1121
 3204TIP3    H231104   3.846   3.551   0.386 -2.1487 -3.3051 -0.8622
 3205TIP3   OH231105   0.407   1.653  14.929  0.0694  0.1260 -0.0349
 3205TIP3    H131106   0.373   1.722  14.986 -0.2874 -0.0619 -0.0221
 3205TIP3    H231107   0.458   1.700  14.863 -0.9219  0.4683 -0.5581
 3206TIP3   OH231108   2.545   1.703  13.438  0.2037 -0.0649 -0.6077
 3206TIP3    H131109   2.615   1.638  13.441  0.2032 -0.0382  0.0854
 3206TIP3    H231110   2.585   1.782  13.473  0.5327  0.6301 -2.5025
 3207TIP3   OH231111   6.668   3.540  11.120 -0.2840  0.4228 -0.0612
 3207TIP3    H131112   6.674   3.576  11.209  1.0245 -0.6356  0.2852
 3207TIP3    H231113   6.743   3.482  11.112 -0.8483 -0.1232 -1.5883
 3208TIP3   OH231114   4.168   1.979   2.069  0.2572 -0.5201 -0.4439
 3208TIP3    H131115   4.152   2.072   2.053 -0.1601 -0.5838 -0.3996
 3208TIP3    H231116   4.145   1.967   2.161 -1.6117 -1.0782 -0.9610
 3209TIP3   OH231117   0.525   6.550   4.435 -0.4963 -0.1906 -0.8588
 3209TIP3    H131118   0.493   6.641   4.435  0.8352  0.3462  1.9886
 3209TIP3    H231119   0.449   6.498   4.462 -0.8069  0.3082 -0.7600
 3210TIP3   OH231120   3.543   6.132   1.286 -0.1310  0.2229 -0.1899
 3210TIP3    H131121   3.574   6.178   1.363 -0.3654 -0.9366  0.6086
 3210TIP3    H231122   3.582   6.045   1.292 -2.4050 -0.8197  0.1272
 3211TIP3   OH231123   2.980   0.695   1.476  0.4733 -0.2124 -0.3872
 3211TIP3    H131124   2.927   0.709   1.398 -0.9112 -1.3868  0.3154
 3211TIP3    H231125   2.998   0.782   1.510 -2.3686  0.1488  0.2607
 3212TIP3   OH231126   3.484   4.613   1.822  0.7031  0.0370  0.0829
 3212TIP3    H131127   3.469   4.622   1.916  1.2673  0.4714  0.1376
 3212TIP3    H231128   3.404   4.646   1.781  0.3383 -0.4370  0.4172
 3213TIP3   OH231129   2.808   1.603  13.407  0.1679  0.3464  0.1657
 3213TIP3    H131130   2.859   1.594  13.487  0.4125  0.1339 -0.0152
 3213TIP3    H231131   2.853   1.672  13.358 -1.3744  2.2281  1.2945
 3214TIP3   OH231132   6.719   2.089  12.933 -0.9385  0.2805  0.2160
 3214TIP3    H131133   6.751   2.148  13.001  0.6803  0.3410 -0.5761
 3214TIP3    H231134   6.734   2.001  12.968 -0.3024  0.3136  0.0308
 3215TIP3   OH231135   0.503   3.173   4.703 -0.4738 -0.1303  0.5068
 3215TIP3    H131136   0.507   3.248   4.762 -1.9630 -0.2071  0.7131
 3215TIP3    H231137   0.533   3.099   4.757 -0.6955  0.0052  0.8196
 3216TIP3   OH231138   0.239   3.190  14.395  0.7052  0.0463 -0.5866
 3216TIP3    H131139   0.253   3.249  14.321  0.1728 -1.0319 -1.5629
 3216TIP3    H231140   0.152   3.213  14.428 -0.4679 -1.6821 -2.3828
 3217TIP3   OH231141   3.385   4.490  16.374  0.5771 -0.4596 -0.1281
 3217TIP3    H131142   3.456   4.541  16.335 -1.0545  1.3322 -0.8091
 3217TIP3    H231143   3.369   4.531  16.459 -1.4146  0.8332 -1.0988
 3218TIP3   OH231144   2.702   6.434  14.219  0.7078  0.0508  0.4939
 3218TIP3    H131145   2.681   6.400  14.132  0.0788  2.4350 -0.3319
 3218TIP3    H231146   2.793   6.408  14.234  1.1435  0.4833 -1.3088
 3219TIP3   OH231147   1.966   1.698   3.669  0.0237  0.4233 -0.7941
 3219TIP3    H131148   1.939   1.660   3.753  1.1779  0.6925 -0.2929
 3219TIP3    H231149   1.968   1.625   3.608  1.9719 -0.2987  0.0983
 3220TIP3   OH231150   0.723   3.426  11.877 -0.4630  0.5275 -0.2955
 3220TIP3    H131151   0.699   3.387  11.961  0.9777 -1.8517 -0.9157
 3220TIP3    H231152   0.818   3.411  11.871 -0.3538  1.7406 -1.8112
 3221TIP3   OH231153   3.104   0.504   5.831 -0.2267  0.6370 -0.0412
 3221TIP3    H131154   3.076   0.468   5.915  1.3913 -0.3049  0.1134
 3221TIP3    H231155   3.198   0.521   5.842 -0.1620  1.2572 -1.4033
 3222TIP3   OH231156   3.629   4.712  15.200 -0.2147 -0.0245 -0.8227
 3222TIP3    H131157   3.653   4.744  15.114  1.7087  0.3120 -0.1757
 3222TIP3    H231158   3.708   4.723  15.253 -1.9509  1.7419  1.5363
 3223TIP3   OH231159   0.394   4.481  12.459  0.3345  0.2993 -0.1972
 3223TIP3    H131160   0.425   4.571  12.459  0.2041  0.3435 -0.9798
 3223TIP3    H231161   0.473   4.429  12.447  0.3452  0.3291 -0.2539
 3224TIP3   OH231162   6.233   4.954   7.114 -0.2745 -0.1294 -0.1301
 3224TIP3    H131163   6.158   5.011   7.128 -0.3065  0.5560 -2.7618
 3224TIP3    H231164   6.309   5.012   7.119 -0.1120 -0.3443 -0.0793
 3225TIP3   OH231165   2.876   2.852   2.242 -0.3330  0.2958  0.4442
 3225TIP3    H131166   2.901   2.932   2.287 -0.1641  0.8579 -0.6332
 3225TIP3    H231167   2.860   2.879   2.152  0.4358 -1.0074 -0.0941
 3226TIP3   OH231168   4.035   5.588   0.671 -0.0033  0.4459  0.5487
 3226TIP3    H131169   4.036   5.583   0.575 -0.1969 -1.9438  0.6367
 3226TIP3    H231170   4.053   5.498   0.700 -1.0552  0.9036  2.7423
 3227TIP3   OH231171   0.137   2.162   6.576 -0.5495 -0.0107 -0.3369
 3227TIP3    H131172   0.203   2.210   6.526 -1.6788  0.5636 -1.3268
 3227TIP3    H231173   0.131   2.209   6.659 -1.1076  1.1335 -1.0129
 3228TIP3   OH231174   3.549   6.247   2.265 -0.1428  0.0575 -0.3969
 3228TIP3    H131175   3.480   6.190   2.299  0.5225 -0.4342  0.1429
 3228TIP3    H231176   3.531   6.332   2.305  0.3812 -0.4119  0.8488
 3229TIP3   OH231177   2.472   0.077   4.565 -0.5407  0.3738 -0.0926
 3229TIP3    H131178   2.511   0.163   4.548 -1.1720  0.3941 -1.5605
 3229TIP3    H231179   2.544   0.015   4.553 -0.2349  0.6402  0.3362
 3230TIP3   OH231180   1.061   4.184  11.734  0.2581  0.1254 -0.0789
 3230TIP3    H131181   1.023   4.194  11.647  0.1804  1.3693  0.0891
 3230TIP3    H231182   0.999   4.228  11.793  0.6369 -0.1285  0.5169
 3231TIP3   OH231183   2.499   3.679   3.258  0.7177  0.0641 -0.3507
 3231TIP3    H131184   2.404   3.683   3.269  0.8620  1.8676  0.3716
 3231TIP3    H231185   2.519   3.747   3.194  1.5641 -0.1505 -0.3251
 3232TIP3   OH231186   0.198   3.336   1.848  0.5602 -0.2509  0.4445
 3232TIP3    H131187   0.117   3.382   1.869  1.1623 -0.3314  3.0819
 3232TIP3    H231188   0.196   3.327   1.752 -2.2106  0.3108  0.4050
 3233TIP3   OH231189   6.387   6.011   4.915 -0.6375  0.0363  0.1127
 3233TIP3    H131190   6.307   6.003   4.967 -0.0952 -0.1538  0.9331
 3233TIP3    H231191   6.458   5.989   4.977  0.2352  2.4176  0.0235
 3234TIP3   OH231192   0.786   1.994   1.514 -0.1202  0.5035 -0.4779
 3234TIP3    H131193   0.791   1.978   1.420 -0.4988  0.7355 -0.5409
 3234TIP3    H231194   0.872   2.029   1.537  0.2125 -0.2258 -0.6050
 3235TIP3   OH231195   0.081   3.981   5.954  0.2521 -0.6211  0.7092
 3235TIP3    H131196   0.008   3.926   5.925 -0.3815  0.6131 -0.1170
 3235TIP3    H231197   0.146   3.920   5.988  0.0802 -1.9877 -1.3094
 3236TIP3   OH231198   4.387   2.432   1.842 -0.6178  0.2446  0.5426
 3236TIP3    H131199   4.390   2.461   1.751 -0.5930 -1.8706 -0.1672
 3236TIP3    H231200   4.329   2.494   1.885  0.1725  1.8830 -0.6770
 3237TIP3   OH231201   4.445   4.502  15.428 -0.5114  0.1717 -0.0700
 3237TIP3    H131202   4.398   4.541  15.501 -0.1211 -0.1150  0.3340
 3237TIP3    H231203   4.529   4.475  15.465  0.2321  1.2450 -0.9260
 3238TIP3   OH231204   1.791   0.503  11.112  0.0721  0.1716 -0.0055
 3238TIP3    H131205   1.742   0.469  11.186 -0.4706  1.5429  0.2790
 3238TIP3    H231206   1.872   0.536  11.149  0.7966 -1.1735 -0.3419
 3239TIP3   OH231207   0.869   5.486  12.610 -0.0109 -0.1814  0.4217
 3239TIP3    H131208   0.952   5.474  12.563  0.0642 -1.0345  0.7631
 3239TIP3    H231209   0.802   5.459  12.548  0.1396 -2.1524  1.0804
 3240TIP3   OH231210   0.180   2.983  11.550 -0.2621  0.6411  0.0675
 3240TIP3    H131211   0.178   3.079  11.549  1.3284  0.7108 -2.5480
 3240TIP3    H231212   0.114   2.958  11.485 -2.2547 -0.1336  2.3383
 3241TIP3   OH231213   3.749   1.881   4.926  0.1355  0.2705  0.5327
 3241TIP3    H131214   3.842   1.872   4.949  0.4642  1.0343 -0.4287
 3241TIP3    H231215   3.704   1.889   5.010  0.8782 -0.6092  1.0245
 3242TIP3   OH231216   1.189   4.778  15.385 -0.1311  0.0601  0.2691
 3242TIP3    H131217   1.279   4.765  15.355 -0.0124  2.3875 -0.4942
 3242TIP3    H231218   1.198   4.803  15.477  0.0054  0.2830  0.1964
 3243TIP3   OH231219   5.602   5.102   6.483  0.1794  0.3448 -0.5226
 3243TIP3    H131220   5.682   5.080   6.434  0.9602 -0.6673  1.1801
 3243TIP3    H231221   5.543   5.028   6.467  1.1880 -0.9584  1.6804
 3244TIP3   OH231222   6.187   2.409   5.484 -0.6759 -0.5942  0.4524
 3244TIP3    H131223   6.277   2.414   5.450 -1.3146 -2.5248 -1.6763
 3244TIP3    H231224   6.197   2.408   5.579  1.3710  2.2540  0.3152
 3245TIP3   OH231225   0.266   2.685   5.115 -0.5737  0.1968 -0.2713
 3245TIP3    H131226   0.203   2.613   5.121  1.3945 -1.4604  1.0401
 3245TIP3    H231227   0.299   2.682   5.026 -0.6959 -0.3538 -0.2976
 3246TIP3   OH231228   2.785   6.485  16.953 -0.1166 -0.0503  0.0894
 3246TIP3    H131229   2.729   6.422  17.000 -1.2427  0.5756 -0.3845
 3246TIP3    H231230   2.752   6.571  16.979  1.6852  0.3778  1.0481
 3247TIP3   OH231231   3.017   1.810   6.600 -0.0968 -0.0471  0.2999
 3247TIP3    H131232   3.106   1.819   6.635 -0.7345  2.3614  1.4192
 3247TIP3    H231233   3.021   1.731   6.546  2.8005  0.1381  0.1148
 3248TIP3   OH231234   2.113   5.456  15.724  0.2178 -0.0134  1.0609
 3248TIP3    H131235   2.193   5.410  15.751 -0.5206 -1.1792  1.3130
 3248TIP3    H231236   2.081   5.497  15.805  1.0509  1.2240  0.7686
 3249TIP3   OH231237   2.073   4.091  13.458 -0.0213 -0.1149  0.1364
 3249TIP3    H131238   2.143   4.027  13.472 -1.9406 -1.8218  2.5934
 3249TIP3    H231239   2.012   4.047  13.399 -0.5434  0.0864  0.5220
 3250TIP3   OH231240   2.134   6.463   0.849  0.0263  0.6061 -0.3085
 3250TIP3    H131241   2.183   6.496   0.924 -2.7901 -0.1997  1.9515
 3250TIP3    H231242   2.120   6.541   0.794 -1.2643  1.9972  1.9360
 3251TIP3   OH231243   2.268   1.747  15.270  0.3190 -0.1768  0.3617
 3251TIP3    H131244   2.176   1.748  15.298 -0.1136 -0.5009 -1.0025
 3251TIP3    H231245   2.292   1.654  15.273  0.6006 -0.0922  0.7131
 3252TIP3   OH231246   6.277   4.600   2.939 -0.0047  0.2255  0.4587
 3252TIP3    H131247   6.349   4.663   2.940  1.1690 -1.0100 -1.6578
 3252TIP3    H231248   6.320   4.516   2.925 -1.9677 -0.2827 -3.2051
 3253TIP3   OH231249   1.130   4.956   0.920  0.8448  0.4220 -0.4417
 3253TIP3    H131250   1.112   4.991   1.007 -1.0221  0.1832 -0.7113
 3253TIP3    H231251   1.126   5.031   0.862 -0.8611  0.1417 -0.7077
 3254TIP3   OH231252   4.642   4.945   0.461 -0.3474  0.0992  0.1030
 3254TIP3    H131253   4.558   4.958   0.507  0.8692  1.1821  2.1002
 3254TIP3    H231254   4.625   4.974   0.372 -2.3414 -0.4922  0.2624
 3255TIP3   OH231255   0.707   4.809   3.151  0.7345 -0.1280  0.0767
 3255TIP3    H131256   0.720   4.764   3.235 -2.4492 -1.1759  0.0541
 3255TIP3    H231257   0.742   4.749   3.086  0.4230 -0.6542  0.3925
 3256TIP3   OH231258   2.772   3.460  16.063  0.2004 -0.0406 -0.1860
 3256TIP3    H131259   2.739   3.486  16.149  1.4066 -0.2524  0.3500
 3256TIP3    H231260   2.747   3.368  16.055  1.5052 -0.4805  0.6422
 3257TIP3   OH231261   6.372   0.117   6.049  0.5018  0.0443 -0.3008
 3257TIP3    H131262   6.409   0.113   6.137  0.3908 -0.1133 -0.2621
 3257TIP3    H231263   6.375   0.210   6.026 -1.0503  0.3089  0.5281
 3258TIP3   OH231264   3.711   1.587   4.764 -0.6672 -0.0296 -0.1548
 3258TIP3    H131265   3.793   1.537   4.768  0.2418  1.3892 -0.4623
 3258TIP3    H231266   3.698   1.618   4.854  0.1947  1.3675 -0.4936
 3259TIP3   OH231267   5.363   1.969   3.427 -0.0342  0.3182 -0.3465
 3259TIP3    H131268   5.353   1.904   3.357 -1.3463  1.2981 -1.0950
 3259TIP3    H231269   5.378   2.051   3.381 -0.3279  0.8711  0.5470
 3260TIP3   OH231270   6.094   2.375  11.537 -0.2138 -0.2233  0.1298
 3260TIP3    H131271   6.168   2.393  11.595 -0.5168  0.9005  0.1794
 3260TIP3    H231272   6.040   2.313  11.585  0.3806 -0.5727  0.3517
 3261TIP3   OH231273   3.862   4.819  16.162 -0.1513 -0.2891  0.0128
 3261TIP3    H131274   3.863   4.865  16.246  3.3482  3.1449 -1.7649
 3261TIP3    H231275   3.785   4.854  16.117 -0.0427  0.5040  0.4262
 3262TIP3   OH231276   1.821   4.978   6.095 -0.4267  0.1196  0.1020
 3262TIP3    H131277   1.868   5.048   6.141 -0.1161  0.5448 -0.8377
 3262TIP3    H231278   1.730   4.987   6.124 -0.5273  1.3817 -0.5439
 3263TIP3   OH231279   6.255   6.158   5.957 -0.0214 -0.5356  0.0512
 3263TIP3    H131280   6.266   6.237   6.010  0.9678 -1.7650  1.6891
 3263TIP3    H231281   6.162   6.137   5.963 -0.2609  0.4199 -0.2736
 3264TIP3   OH231282   2.894   5.841   3.745 -0.3040 -0.9673  0.2421
 3264TIP3    H131283   2.969   5.888   3.707 -2.1653  1.1777 -0.8866
 3264TIP3    H231284   2.920   5.824   3.836  0.8868  1.2263  0.3440
 3265TIP3   OH231285   2.614   3.677  16.401  0.5063  0.1374  0.0549
 3265TIP3    H131286   2.686   3.624  16.434 -0.3791 -0.0693  1.7059
 3265TIP3    H231287   2.549   3.676  16.472 -2.3751 -2.0912 -2.5096
 3266TIP3   OH231288   4.612   2.894  15.073  0.5429  0.1500  0.1557
 3266TIP3    H131289   4.642   2.983  15.087 -1.5354  1.1530 -1.5236
 3266TIP3    H231290   4.534   2.886  15.129 -0.1870 -0.0775 -0.8743
 3267TIP3   OH231291   1.330   4.306  13.693  0.2210 -0.3521 -0.1008
 3267TIP3    H131292   1.315   4.378  13.754 -1.5328 -0.6195 -0.2051
 3267TIP3    H231293   1.410   4.331  13.646  1.2142  0.1755  1.7983
 3268TIP3   OH231294   0.601   6.161   3.625 -0.2973  0.1417 -0.3499
 3268TIP3    H131295   0.532   6.165   3.559  0.1446  0.3043 -0.8021
 3268TIP3    H231296   0.555   6.139   3.706 -0.9601  0.7988 -0.5400
 3269TIP3   OH231297   3.767   4.040   1.485  0.6494 -0.8763  0.7492
 3269TIP3    H131298   3.704   4.037   1.413 -0.5978 -1.7942  1.8565
 3269TIP3    H231299   3.848   4.007   1.446  0.0708 -1.0753 -0.3207
 3270TIP3   OH231300   1.330   0.244  17.129  0.4367 -0.1183  0.1955
 3270TIP3    H131301   1.330   0.332  17.167  0.0892 -0.0779  0.1007
 3270TIP3    H231302   1.240   0.230  17.100  0.0137 -1.3196  2.0604
 3271TIP3   OH231303   1.952   1.295   2.212 -0.3198  0.0204 -0.5137
 3271TIP3    H131304   1.974   1.278   2.303 -1.7575 -0.7074 -0.2959
 3271TIP3    H231305   1.880   1.236   2.193 -1.0667  1.2785 -1.6789
 3272TIP3   OH231306   1.504   6.296  15.161  0.6000  0.4374 -0.1567
 3272TIP3    H131307   1.566   6.345  15.216 -0.1547  2.2193 -0.8716
 3272TIP3    H231308   1.418   6.317  15.197  0.2628 -0.5320 -0.3645
 3273TIP3   OH231309   4.971   1.086   1.881  0.3734  0.6692  0.1496
 3273TIP3    H131310   4.977   1.034   1.801 -0.0572  2.3883 -1.0281
 3273TIP3    H231311   5.015   1.033   1.948 -2.2826 -2.3402 -0.3850
 3274TIP3   OH231312   0.731   5.320  13.052 -0.1199 -0.7902  0.0822
 3274TIP3    H131313   0.822   5.335  13.029  0.1539 -0.3949  1.4019
 3274TIP3    H231314   0.702   5.402  13.092 -0.2693 -1.7725  2.0825
 3275TIP3   OH231315   5.322   0.523   2.327  0.6273  0.1557  0.1510
 3275TIP3    H131316   5.375   0.471   2.387 -0.6598  0.8622  1.9439
 3275TIP3    H231317   5.355   0.500   2.240  1.1996 -2.3870  0.9841
 3276TIP3   OH231318   3.678   0.905  16.409  0.6779 -0.0797  0.2429
 3276TIP3    H131319   3.695   0.877  16.319  1.3356  1.5659 -0.1600
 3276TIP3    H231320   3.718   0.836  16.463 -3.7009 -3.5010 -0.6439
 3277TIP3   OH231321   1.733   1.122   2.185 -0.3582  0.4052 -0.0378
 3277TIP3    H131322   1.748   1.099   2.276  1.4765 -0.4012 -0.5087
 3277TIP3    H231323   1.697   1.042   2.146  1.7308 -0.2741 -0.6631
 3278TIP3   OH231324   1.606   6.705   3.581  0.1362 -0.0891  0.4623
 3278TIP3    H131325   1.684   6.734   3.628  0.3821  0.5252 -0.3113
 3278TIP3    H231326   1.598   6.766   3.508  0.9633 -2.2687 -1.5207
 3279TIP3   OH231327   2.367   5.732   5.772  0.3865 -0.3406 -0.1866
 3279TIP3    H131328   2.287   5.685   5.749 -0.1127  0.2943  0.2246
 3279TIP3    H231329   2.357   5.750   5.866  0.5735  0.5680 -0.3411
 3280TIP3   OH231330   6.299   1.794  11.684  0.5514 -0.7832  0.3256
 3280TIP3    H131331   6.357   1.869  11.686  1.8125 -1.7659  1.5296
 3280TIP3    H231332   6.211   1.831  11.683  1.1315  0.6992  2.3998
 3281TIP3   OH231333   6.121   4.720   3.610  0.0170  0.0352 -0.0049
 3281TIP3    H131334   6.090   4.770   3.686  0.0204  0.4018 -0.2489
 3281TIP3    H231335   6.050   4.657   3.593  0.0393 -0.0872  0.3353
 3282TIP3   OH231336   4.599   6.644  14.665  0.4188  0.1470  0.4930
 3282TIP3    H131337   4.542   6.604  14.600  0.4971  2.0276 -0.7613
 3282TIP3    H231338   4.660   6.574  14.689 -1.8074 -1.6352  1.2139
 3283TIP3   OH231339   0.109   6.667   0.866  0.0641  0.5803 -0.7902
 3283TIP3    H131340   0.082   6.584   0.905  0.9451  0.1887 -1.0058
 3283TIP3    H231341   0.186   6.694   0.915  0.9178  0.3047 -1.9422
 3284TIP3   OH231342   3.861   1.091   5.687 -0.3665 -0.2643 -0.6498
 3284TIP3    H131343   3.779   1.131   5.659 -0.1078  0.9512  0.2714
 3284TIP3    H231344   3.837   1.006   5.722 -1.0742 -0.4371 -1.5336
 3285TIP3   OH231345   1.389   0.697  16.014 -0.0463  0.0260  0.0191
 3285TIP3    H131346   1.405   0.607  16.040  1.2343  0.3496  0.3828
 3285TIP3    H231347   1.360   0.692  15.923  1.4630 -0.6423 -0.4338
 3286TIP3   OH231348   4.223   1.360   5.062  0.3984  0.1434 -0.6287
 3286TIP3    H131349   4.150   1.419   5.080  0.8570  1.3571 -2.6538
 3286TIP3    H231350   4.255   1.334   5.149 -2.0032  0.1057  0.2855
 3287TIP3   OH231351   6.675   5.265  11.655  0.0377  0.2399 -0.5017
 3287TIP3    H131352   6.715   5.178  11.652 -1.9769 -0.7253 -0.0119
 3287TIP3    H231353   6.675   5.289  11.748 -2.1184 -0.5453 -0.2791
 3288TIP3   OH231354   2.661   3.815  11.739 -0.0033 -0.3682 -0.3086
 3288TIP3    H131355   2.698   3.786  11.656  1.6613  1.0992 -0.1379
 3288TIP3    H231356   2.722   3.780  11.805 -2.8020 -3.8711  0.5554
 3289TIP3   OH231357   0.473   5.308  12.638 -0.0260  0.1001  0.3551
 3289TIP3    H131358   0.406   5.245  12.612 -1.0055  1.1894  0.2082
 3289TIP3    H231359   0.464   5.381  12.576  0.3813  0.8667  1.1797
 3290TIP3   OH231360   4.944   5.024  11.976  0.0356 -0.3969 -0.0268
 3290TIP3    H131361   4.931   5.026  11.881  0.7567  1.3496 -0.1118
 3290TIP3    H231362   4.905   4.941  12.004  1.0152 -1.5600 -2.0139
 3291TIP3   OH231363   0.029   4.365   0.555  0.0754  0.1734  0.3020
 3291TIP3    H131364   0.089   4.372   0.630 -0.3140  1.3126  0.5211
 3291TIP3    H231365  -0.045   4.421   0.579  0.6476  1.7809 -1.5947
 3292TIP3   OH231366   6.574   0.951  14.229 -0.0940 -0.1577  0.3057
 3292TIP3    H131367   6.512   0.890  14.189 -1.8779  1.3523  0.6854
 3292TIP3    H231368   6.561   1.033  14.181  1.3283  0.3013  0.6744
 3293TIP3   OH231369   2.795   6.060   1.055 -0.1363  0.0064  0.0437
 3293TIP3    H131370   2.832   6.067   1.143 -1.6403 -0.7709  0.7604
 3293TIP3    H231371   2.791   6.150   1.023  0.9010  0.2389  0.5688
 3294TIP3   OH231372   3.946   1.132  15.814  0.4770 -0.0997  0.0166
 3294TIP3    H131373   3.956   1.138  15.908  2.3682 -1.0811 -0.0949
 3294TIP3    H231374   4.013   1.190  15.778  0.1662 -0.1778 -0.7135
 3295TIP3   OH231375   5.784   3.367  15.225 -0.6140 -0.8622 -0.0395
 3295TIP3    H131376   5.858   3.339  15.171  0.3656 -1.1514  1.4365
 3295TIP3    H231377   5.732   3.422  15.166  0.3915 -1.2118 -1.3008
 3296TIP3   OH231378   1.824   0.963  14.275 -0.3314 -0.2509  0.0609
 3296TIP3    H131379   1.769   0.899  14.230 -0.3729 -0.1721 -0.0005
 3296TIP3    H231380   1.765   1.005  14.337 -0.6936  0.8421 -1.0033
 3297TIP3   OH231381   1.999   2.485   4.938 -0.6277 -0.0337  0.6255
 3297TIP3    H131382   1.942   2.503   5.012 -1.2730  1.7023 -0.2602
 3297TIP3    H231383   1.944   2.502   4.861  1.1385  1.9925 -0.2450
 3298TIP3   OH231384   2.483   6.202   2.273  0.6016  0.1419 -0.2521
 3298TIP3    H131385   2.467   6.277   2.216 -0.9290  0.0274  0.0141
 3298TIP3    H231386   2.397   6.164   2.288  1.2261 -0.9760  0.5741
 3299TIP3   OH231387   2.644   6.503  14.505 -0.2409 -0.2153  0.4043
 3299TIP3    H131388   2.672   6.434  14.446 -3.2122 -1.5223  0.4398
 3299TIP3    H231389   2.623   6.457  14.587  1.5634  1.2670  1.7429
 3300TIP3   OH231390   4.770   6.210  15.738  0.6424  0.7479  0.2007
 3300TIP3    H131391   4.825   6.133  15.750 -1.3948 -0.2629  3.5674
 3300TIP3    H231392   4.706   6.184  15.672  1.9727  0.7406 -1.1199
 3301TIP3   OH231393   6.399   5.241  16.388 -0.3052  0.2822 -0.4167
 3301TIP3    H131394   6.491   5.220  16.375 -0.8845 -1.6145 -1.6572
 3301TIP3    H231395   6.391   5.333  16.362  1.4851  0.9193  1.1109
 3302TIP3   OH231396   2.951   4.911  14.147 -0.5865 -0.3404 -0.4689
 3302TIP3    H131397   2.929   4.872  14.231  0.7892  0.1108  0.1237
 3302TIP3    H231398   3.019   4.975  14.168 -1.5620  1.1298 -1.6631
 3303TIP3   OH231399   2.828   6.718  14.148 -0.1531 -0.1574  0.8993
 3303TIP3    H131400   2.783   6.764  14.077  1.1628  0.2076  0.2910
 3303TIP3    H231401   2.773   6.641  14.164 -2.3195  1.5306  1.8524
 3304TIP3   OH231402   1.834   4.970  15.008  0.3673  0.1535 -0.1841
 3304TIP3    H131403   1.880   5.042  14.964 -1.0179  0.5521 -0.9999
 3304TIP3    H231404   1.752   4.960  14.959  0.9715 -2.6433 -0.6962
 3305TIP3   OH231405   4.803   2.706  15.334  0.6425 -0.5936  0.5697
 3305TIP3    H131406   4.712   2.703  15.362  0.6892 -0.7764  0.7033
 3305TIP3    H231407   4.840   2.782  15.379  0.2859  0.0935 -0.2970
 3306TIP3   OH231408   3.668   6.331  13.030  0.5737  0.0619  0.2089
 3306TIP3    H131409   3.737   6.336  13.096  0.9031  0.0177 -0.1293
 3306TIP3    H231410   3.712   6.351  12.948  0.0518  0.6751  0.0728
 3307TIP3   OH231411   4.939   0.311  17.282 -0.4392 -0.8125  0.2441
 3307TIP3    H131412   4.981   0.352  17.357 -1.1218 -1.6095  1.0675
 3307TIP3    H231413   4.985   0.348  17.206  0.9924 -0.8213  1.0857
 3308TIP3   OH231414   1.539   3.340  14.404 -0.4729 -0.5139 -0.3851
 3308TIP3    H131415   1.626   3.370  14.432  0.2029 -1.6126 -1.2425
 3308TIP3    H231416   1.532   3.369  14.313 -0.3753 -1.7102 -0.7889
 3309TIP3   OH231417   1.030   5.871   3.351 -0.3039  0.7133  0.2210
 3309TIP3    H131418   1.038   5.828   3.437  0.9765  1.1063  0.3069
 3309TIP3    H231419   0.959   5.823   3.308  1.5085 -1.9548  0.0605
 3310TIP3   OH231420   5.619   5.288  11.353  0.7376  0.3998 -0.0679
 3310TIP3    H131421   5.595   5.195  11.352  0.9488  0.3459 -0.2030
 3310TIP3    H231422   5.663   5.302  11.269 -1.4295  1.1953 -1.1025
 3311TIP3   OH231423   2.163   4.475   5.028  0.0928 -0.1956 -0.1553
 3311TIP3    H131424   2.096   4.460   5.095  1.1180 -1.2504  0.6433
 3311TIP3    H231425   2.205   4.390   5.016  0.2679  0.1079 -1.7751
 3312TIP3   OH231426   6.298   4.372  15.539  0.1692  0.0658 -0.0214
 3312TIP3    H131427   6.318   4.376  15.632 -0.1670 -0.5059  0.0785
 3312TIP3    H231428   6.382   4.356  15.497  0.2084 -0.4126  0.2420
 3313TIP3   OH231429   1.977   1.647   1.204  0.5344 -0.5625  0.4105
 3313TIP3    H131430   1.923   1.699   1.262  1.1705 -1.5335  1.8977
 3313TIP3    H231431   1.915   1.596   1.152 -0.0201 -0.7497  1.2498
 3314TIP3   OH231432   1.644   6.677  16.503  0.1668  0.8266 -0.0302
 3314TIP3    H131433   1.668   6.587  16.481  1.0792  0.3269  2.7970
 3314TIP3    H231434   1.552   6.671  16.529  0.5998  0.4272  1.4791
 3315TIP3   OH231435   4.632   1.479   2.128 -0.0164 -0.1377  0.1563
 3315TIP3    H131436   4.606   1.517   2.044  0.8444 -1.5094 -0.7646
 3315TIP3    H231437   4.580   1.399   2.135  2.6628 -2.0717 -0.9479
 3316TIP3   OH231438   5.432   0.484   1.436  0.4504  0.4637  0.5502
 3316TIP3    H131439   5.469   0.544   1.372 -1.6482  2.2897  1.0169
 3316TIP3    H231440   5.459   0.520   1.521  0.2867 -0.0082  0.8031
 3317TIP3   OH231441   5.044   4.652  12.488 -0.0739  0.4500  0.0748
 3317TIP3    H131442   5.084   4.702  12.559 -1.7018  0.4592  1.0132
 3317TIP3    H231443   4.956   4.689  12.480 -0.6638 -1.0546 -0.4413
 3318TIP3   OH231444   6.345   1.303  15.540 -0.1149  0.6332  0.0129
 3318TIP3    H131445   6.333   1.383  15.592 -1.9553 -0.3117  1.1232
 3318TIP3    H231446   6.322   1.232  15.601 -0.4623 -0.6187 -1.5433
 3319TIP3   OH231447   6.677   6.671  11.353  0.2814  0.0842 -0.4937
 3319TIP3    H131448   6.690   6.624  11.271  1.3998  0.0271 -0.3013
 3319TIP3    H231449   6.742   6.741  11.351  2.6466 -1.9247  1.8034
 3320TIP3   OH231450   0.074   5.941  12.699 -0.1416  0.1378  0.6460
 3320TIP3    H131451   0.004   5.943  12.633  0.4842 -0.3615 -0.0412
 3320TIP3    H231452   0.081   5.849  12.724 -0.4020  0.3296  1.4535
 3321TIP3   OH231453   4.562   0.342   3.394  0.0874 -0.0919 -0.1290
 3321TIP3    H131454   4.525   0.372   3.477  1.1453  2.6389 -0.5841
 3321TIP3    H231455   4.647   0.305   3.417  1.3352  2.6299 -0.1874
 3322TIP3   OH231456   1.994   2.027  11.923 -0.0301  0.0855 -0.0103
 3322TIP3    H131457   2.077   2.025  11.972  0.1789  0.9104 -0.3189
 3322TIP3    H231458   2.009   1.970  11.848  0.4553  0.6545 -0.3571
 3323TIP3   OH231459   0.715   4.732  13.740 -0.8205  0.3310  0.4074
 3323TIP3    H131460   0.785   4.771  13.689 -0.9107 -1.0223 -0.8099
 3323TIP3    H231461   0.744   4.739  13.831  1.6873 -1.6815 -0.1710
 3324TIP3   OH231462   1.100   1.527   1.415 -0.3709  0.3530  0.6495
 3324TIP3    H131463   1.103   1.498   1.506 -0.0527  0.5623  0.7064
 3324TIP3    H231464   1.045   1.462   1.371  0.6977 -0.5849  0.6848
 3325TIP3   OH231465   0.222   4.278  10.718  0.4171 -0.3853  0.2247
 3325TIP3    H131466   0.184   4.191  10.720  0.0338 -0.2434  3.9080
 3325TIP3    H231467   0.300   4.271  10.774  0.6332  1.5112  0.1919
 3326TIP3   OH231468   5.251   3.671  11.243  0.0980 -0.2350  0.0893
 3326TIP3    H131469   5.266   3.720  11.324 -0.3881  1.1701 -0.6578
 3326TIP3    H231470   5.185   3.606  11.266 -2.1062  1.9730  0.1534
 3327TIP3   OH231471   5.037   4.555   5.187  0.2460  0.3984  0.6502
 3327TIP3    H131472   5.044   4.565   5.282  0.5817  2.4368  0.4476
 3327TIP3    H231473   5.114   4.599   5.152  0.8923 -1.6105 -0.5366
 3328TIP3   OH231474   1.532   1.421   0.156 -0.0967  0.3230 -0.3488
 3328TIP3    H131475   1.538   1.404   0.250 -1.0801  0.5206 -0.2502
 3328TIP3    H231476   1.514   1.336   0.118 -1.4530  0.5268 -0.1875
 3329TIP3   OH231477   2.523   3.051   1.552 -0.2126  0.7062 -0.2418
 3329TIP3    H131478   2.497   3.131   1.506 -0.5597  1.1482  0.7192
 3329TIP3    H231479   2.464   2.983   1.519 -0.0787  0.8935 -0.8748
 3330TIP3   OH231480   4.272   3.556  17.166 -0.3913  0.4140 -0.2715
 3330TIP3    H131481   4.273   3.648  17.193  1.6599  0.0780  0.9144
 3330TIP3    H231482   4.207   3.515  17.222  2.2437  0.1758  2.8087
 3331TIP3   OH231483   0.639   4.415  14.027 -0.3020  0.0051 -0.1896
 3331TIP3    H131484   0.684   4.381  13.949  0.1077  1.1564 -0.4710
 3331TIP3    H231485   0.609   4.338  14.073 -1.3388 -0.6789 -1.9604
 3332TIP3   OH231486   6.503   4.763   1.784 -0.2456  0.2839  0.1129
 3332TIP3    H131487   6.495   4.679   1.739 -0.1554  0.7387 -0.7563
 3332TIP3    H231488   6.594   4.766   1.813  0.3676  1.0696 -1.8332
 3333TIP3   OH231489   6.671   4.411   2.539  0.0399  0.3225 -0.0345
 3333TIP3    H131490   6.728   4.347   2.583 -0.5725 -0.1727  0.0409
 3333TIP3    H231491   6.726   4.489   2.530  1.0133 -0.4225 -0.7050
 3334TIP3   OH231492   0.604   5.275   4.446  0.1425  0.3183  0.2563
 3334TIP3    H131493   0.643   5.337   4.383 -1.6036  1.9396  0.7313
 3334TIP3    H231494   0.567   5.206   4.391 -0.0743  0.9689 -0.4328
 3335TIP3   OH231495   0.566   1.292   1.605 -0.6048  0.6149  0.1417
 3335TIP3    H131496   0.557   1.387   1.602  0.9726  0.7663 -0.1542
 3335TIP3    H231497   0.494   1.262   1.661 -0.5483  2.0525  0.9798
 3336TIP3   OH231498   0.070   2.130  11.511  0.1194 -0.1042 -0.2827
 3336TIP3    H131499   0.156   2.116  11.471  0.6495 -1.8283  1.3820
 3336TIP3    H231500   0.048   2.221  11.490  3.2073  0.9577  0.8406
 3337TIP3   OH231501   4.484   4.406  13.243  0.1876 -0.3432  0.1139
 3337TIP3    H131502   4.403   4.372  13.204  0.6326 -1.7225  0.3647
 3337TIP3    H231503   4.465   4.411  13.337 -0.1516  0.9072 -0.0113
 3338TIP3   OH231504   5.345   1.522   6.324  0.4650  0.8023 -0.4986
 3338TIP3    H131505   5.418   1.470   6.357 -0.8618 -0.0918  1.1367
 3338TIP3    H231506   5.358   1.609   6.361  1.1254  0.8730 -0.8826
 3339TIP3   OH231507   0.348   6.468  14.314 -0.1081 -0.8134 -0.2387
 3339TIP3    H131508   0.345   6.550  14.265  0.8292 -0.9949 -0.6158
 3339TIP3    H231509   0.433   6.469  14.358 -1.0706 -0.5267  1.6266
 3340TIP3   OH231510   6.524   0.186   6.298  0.2677  0.2659 -0.4799
 3340TIP3    H131511   6.613   0.219   6.309  1.1479 -1.7216 -1.4347
 3340TIP3    H231512   6.527   0.096   6.331 -1.6185  0.4530  0.3047
 3341TIP3   OH231513   0.552   1.187  15.827  0.6433  0.0771  0.1394
 3341TIP3    H131514   0.467   1.182  15.869  0.5745  2.3450  0.3305
 3341TIP3    H231515   0.612   1.142  15.887 -0.4333 -1.7838 -0.1403
 3342TIP3   OH231516   6.396   0.924   0.839  0.8441  0.4437  0.6590
 3342TIP3    H131517   6.415   1.002   0.786  0.5743 -0.3933 -0.6913
 3342TIP3    H231518   6.482   0.893   0.867  1.3778 -1.5428 -2.8535
 3343TIP3   OH231519   0.664   4.650  15.154  0.4414  0.1789 -0.3318
 3343TIP3    H131520   0.680   4.731  15.203 -0.0365 -0.3395  0.6787
 3343TIP3    H231521   0.691   4.672  15.065  1.8151  0.9584  0.2560
 3344TIP3   OH231522   4.855   5.902  13.460  0.3317 -0.5801 -0.0753
 3344TIP3    H131523   4.851   5.808  13.478 -0.9645 -0.6361 -0.5937
 3344TIP3    H231524   4.764   5.931  13.467  0.6809  0.5683 -0.2689
 3345TIP3   OH231525   2.446   4.920   2.405  0.0490 -0.0384 -0.0134
 3345TIP3    H131526   2.452   4.909   2.310 -2.3708  1.2084 -0.3368
 3345TIP3    H231527   2.414   4.836   2.437 -2.4213  0.6009 -0.6987
 3346TIP3   OH231528   1.695   3.069   3.715 -0.2455 -0.4170 -0.2805
 3346TIP3    H131529   1.608   3.030   3.721  0.2507 -1.4956 -0.0390
 3346TIP3    H231530   1.712   3.075   3.621 -1.4192  1.7058 -0.3843
 3347TIP3   OH231531   4.152   0.517   2.531  0.0724 -0.1764  0.6675
 3347TIP3    H131532   4.195   0.469   2.601 -1.7117 -3.1826 -0.2220
 3347TIP3    H231533   4.222   0.535   2.467  1.0662 -0.1055  1.7542
 3348TIP3   OH231534   0.643   4.337   6.005  0.6867 -0.1924 -0.0256
 3348TIP3    H131535   0.564   4.380   5.973  1.4954  0.4411 -1.2120
 3348TIP3    H231536   0.624   4.243   6.000 -0.6899 -0.0140  1.5298
 3349TIP3   OH231537   0.389   3.521  16.568  0.2211  0.0040  0.1446
 3349TIP3    H131538   0.397   3.529  16.663 -1.2364 -1.1460  0.3914
 3349TIP3    H231539   0.418   3.431  16.550 -0.1506 -0.0025 -0.4152
 3350TIP3   OH231540   2.537   1.315   2.049  0.4762 -0.1418 -0.4038
 3350TIP3    H131541   2.579   1.259   1.983 -0.2149 -1.2013  0.0384
 3350TIP3    H231542   2.495   1.253   2.109 -0.5314  0.8727 -0.0627
 3351TIP3   OH231543   3.849   3.705   3.818  0.2205  0.6494 -0.2072
 3351TIP3    H131544   3.895   3.652   3.753 -1.5150  0.3688 -1.2457
 3351TIP3    H231545   3.916   3.729   3.882  1.7507  0.1385 -1.6007
 3352TIP3   OH231546   0.709   1.409   3.191 -0.3319  0.1297  0.7948
 3352TIP3    H131547   0.804   1.399   3.197 -0.0355  1.3969 -1.3334
 3352TIP3    H231548   0.695   1.465   3.115 -2.8372 -0.7224  0.5730
 3353TIP3   OH231549   2.180   1.469   3.992  0.6989  0.2956  0.5244
 3353TIP3    H131550   2.272   1.448   4.012  0.2849 -2.7993 -0.5628
 3353TIP3    H231551   2.130   1.407   4.044 -0.7028  0.4453 -0.6252
 3354TIP3   OH231552   4.145   0.305   0.328  0.3248 -0.6518 -0.0398
 3354TIP3    H131553   4.107   0.218   0.319 -0.1919 -0.4468  0.1129
 3354TIP3    H231554   4.071   0.364   0.316  0.9011 -0.1950 -1.4682
 3355TIP3   OH231555   0.671   0.278   4.915  0.4545 -0.5514  0.9391
 3355TIP3    H131556   0.585   0.306   4.885  1.6445  2.4685  0.1581
 3355TIP3    H231557   0.654   0.203   4.972 -2.4345 -1.7635 -1.4030
 3356TIP3   OH231558   6.121   4.957   0.313  0.4384 -0.0550 -0.2329
 3356TIP3    H131559   6.177   4.971   0.237 -0.8498  0.8604 -1.0508
 3356TIP3    H231560   6.032   4.964   0.278 -0.1873  1.8332  1.5894
 3357TIP3   OH231561   6.200   4.934  15.138 -0.3895 -0.4647  0.7534
 3357TIP3    H131562   6.221   4.854  15.187 -1.5187 -0.9572  0.4595
 3357TIP3    H231563   6.245   5.004  15.185 -0.4448 -1.0991  1.7681
 3358TIP3   OH231564   6.561   1.901   4.971 -0.1174 -0.2873 -0.6936
 3358TIP3    H131565   6.518   1.824   4.934 -0.8351  0.0265 -0.5169
 3358TIP3    H231566   6.524   1.911   5.058 -0.2887  0.4619 -0.8422
 3359TIP3   OH231567   5.528   3.598  11.312 -0.3634 -0.2041 -0.1707
 3359TIP3    H131568   5.459   3.660  11.291 -0.5884 -0.3005  0.2880
 3359TIP3    H231569   5.489   3.512  11.294 -0.2005 -0.2330 -0.3846
 3360TIP3   OH231570   5.104   5.063   5.523 -0.1082 -0.4331  0.2302
 3360TIP3    H131571   5.163   5.078   5.597 -0.1551  1.8272 -0.1656
 3360TIP3    H231572   5.160   5.027   5.454 -0.0085 -2.2740  1.2320
 3361TIP3   OH231573   3.829   6.651  16.370 -0.4422 -0.1615  0.2377
 3361TIP3    H131574   3.850   6.562  16.399 -1.1748  0.1668  1.8042
 3361TIP3    H231575   3.740   6.666  16.400  0.1378  1.5869  1.1865
 3362TIP3   OH231576   4.627   6.700  11.518  0.2313  0.1682  0.6785
 3362TIP3    H131577   4.665   6.744  11.595  1.8276  1.0158 -0.5696
 3362TIP3    H231578   4.642   6.760  11.446 -2.9072  0.1924 -0.0023
 3363TIP3   OH231579   6.565   2.992  14.038  0.4164  0.2006  0.0523
 3363TIP3    H131580   6.581   3.069  13.983  0.3220 -0.7920 -1.4116
 3363TIP3    H231581   6.625   3.002  14.111 -1.2949  2.9049  1.1835
 3364TIP3   OH231582   6.769   1.066  15.215 -0.1272  0.0205  0.1136
 3364TIP3    H131583   6.696   1.076  15.276 -0.1671 -0.1731  0.0996
 3364TIP3    H231584   6.744   1.118  15.139  0.5612  1.4284  0.8250
 3365TIP3   OH231585   0.317   5.197   5.793 -0.2157 -0.0647  0.3978
 3365TIP3    H131586   0.399   5.189   5.843 -0.1313 -2.4645 -0.0951
 3365TIP3    H231587   0.252   5.222   5.859  1.1023  3.2127  0.5856
 3366TIP3   OH231588   3.617   1.735  11.016  0.1917 -0.0821 -0.5167
 3366TIP3    H131589   3.649   1.646  11.034  1.5536  0.4033 -0.4699
 3366TIP3    H231590   3.598   1.736  10.923 -0.6221 -0.6657 -0.3618
 3367TIP3   OH231591   1.241   4.402  15.880 -0.1188  1.2082 -0.1517
 3367TIP3    H131592   1.290   4.482  15.898  1.3367  0.3499 -0.2498
 3367TIP3    H231593   1.253   4.387  15.786  0.1887  0.5097 -0.0076
 3368TIP3   OH231594   0.949   0.366   0.426 -0.2938  0.9477 -0.1042
 3368TIP3    H131595   1.025   0.393   0.374 -0.1803 -1.4849 -1.2830
 3368TIP3    H231596   0.875   0.409   0.384 -0.1060 -0.3957 -1.8810
 3369TIP3   OH231597   0.083   3.913  12.914  0.4768 -0.2616  0.1122
 3369TIP3    H131598   0.081   3.911  12.818  0.8197  1.1302  0.0541
 3369TIP3    H231599  -0.001   3.952  12.939  0.6588 -0.0137  0.3409
 3370TIP3   OH231600   3.864   0.202   2.699  0.1444  0.1599  0.1405
 3370TIP3    H131601   3.840   0.245   2.616 -1.6082  1.2491  1.1753
 3370TIP3    H231602   3.880   0.275   2.759 -0.9404 -0.6294  1.4059
 3371TIP3   OH231603   1.414   1.430  17.000  0.2985 -0.0349 -0.0956
 3371TIP3    H131604   1.455   1.484  16.933 -3.2535  0.4746 -1.9982
 3371TIP3    H231605   1.370   1.493  17.058 -1.1132 -0.6884 -0.4297
 3372TIP3   OH231606   2.481   2.598   0.643  0.2432 -0.1770 -0.0795
 3372TIP3    H131607   2.408   2.576   0.585  0.4446 -0.9580 -0.0432
 3372TIP3    H231608   2.469   2.541   0.719  1.1291 -0.6141 -0.2598
 3373TIP3   OH231609   5.483   1.529  16.556 -0.8973 -0.4248  0.4923
 3373TIP3    H131610   5.406   1.489  16.514 -0.1137 -0.8007 -0.6323
 3373TIP3    H231611   5.517   1.590  16.490  0.0958 -0.6808  0.7574
 3374TIP3   OH231612   6.816   3.701   1.963 -0.8242 -0.4195  0.0817
 3374TIP3    H131613   6.877   3.665   2.027 -0.3055  1.1005  0.4705
 3374TIP3    H231614   6.812   3.635   1.893  0.9622 -0.7087  0.2294
 3375TIP3   OH231615   5.707   5.302  14.850 -0.2617  0.3033 -0.7045
 3375TIP3    H131616   5.636   5.301  14.914  0.4832  2.6676  0.2234
 3375TIP3    H231617   5.779   5.257  14.893 -0.0428  1.1351 -0.1720
 3376TIP3   OH231618   1.078   3.037   1.308  0.5019 -0.4482 -0.3082
 3376TIP3    H131619   1.014   3.074   1.248 -0.0819 -0.5844  0.2164
 3376TIP3    H231620   1.025   3.001   1.379  1.1796 -0.3422  0.2538
 3377TIP3   OH231621   5.150   5.558  17.082  0.0803  0.3741 -0.5009
 3377TIP3    H131622   5.195   5.643  17.074  1.2240  0.0441  1.9646
 3377TIP3    H231623   5.170   5.529  17.171 -0.9576 -2.1326 -1.0570
 3378TIP3   OH231624   6.585   2.535   0.065  0.9666 -0.1879 -0.1555
 3378TIP3    H131625   6.678   2.556   0.071  1.6866 -2.8880 -0.9665
 3378TIP3    H231626   6.576   2.492  -0.020 -0.6762 -1.5477  0.6785
 3379TIP3   OH231627   6.147   2.898  13.369 -0.2234 -0.5568  0.0725
 3379TIP3    H131628   6.142   2.830  13.436  0.4532 -0.9396 -0.2556
 3379TIP3    H231629   6.064   2.945  13.375 -2.1870 -3.6120 -2.0445
 3380TIP3   OH231630   0.461   5.511   4.063  0.3515  0.0705 -0.6703
 3380TIP3    H131631   0.503   5.528   4.148 -0.3265 -1.2721 -0.0407
 3380TIP3    H231632   0.389   5.451   4.084  0.9266 -1.2462 -2.3579
 3381TIP3   OH231633   3.900   6.560   5.455  0.0913 -0.4654 -0.2062
 3381TIP3    H131634   3.891   6.494   5.523 -2.2878  0.4498  0.4315
 3381TIP3    H231635   3.978   6.534   5.406 -1.2993 -4.3077 -0.5954
 3382TIP3   OH231636   5.739   2.791   0.143 -0.6037 -0.1476  0.2331
 3382TIP3    H131637   5.677   2.787   0.215  0.7917 -1.7644  1.3782
 3382TIP3    H231638   5.808   2.729   0.167  0.9922  0.9269 -1.4450
 3383TIP3   OH231639   0.507   0.553  15.968 -0.6545 -0.0725 -0.2325
 3383TIP3    H131640   0.531   0.635  15.925  0.9520  0.5851  1.8501
 3383TIP3    H231641   0.427   0.525  15.924 -0.9566  2.3770 -1.2753
 3384TIP3   OH231642   1.578   0.366  13.466  0.0601  0.0946  0.6828
 3384TIP3    H131643   1.663   0.388  13.428 -0.3423 -1.3275 -1.1170
 3384TIP3    H231644   1.589   0.278  13.501 -1.3738 -1.1881 -1.9446
 3385TIP3   OH231645   6.001   3.193   4.665  0.3335  0.1934 -0.0167
 3385TIP3    H131646   5.934   3.126   4.682  1.6897 -2.0295 -2.9041
 3385TIP3    H231647   6.015   3.235   4.749 -2.2089 -1.6378  1.3919
 3386TIP3   OH231648   4.107   1.247  16.600  0.0738 -0.1905  0.2034
 3386TIP3    H131649   4.136   1.158  16.621  0.8856  0.0677  0.1935
 3386TIP3    H231650   4.012   1.245  16.615  0.3668 -0.5095  2.0964
 3387TIP3   OH231651   2.452   0.710  11.198 -0.3169 -0.4248  0.7393
 3387TIP3    H131652   2.361   0.683  11.186 -0.1331 -0.9940  0.6182
 3387TIP3    H231653   2.487   0.717  11.109 -0.6982  1.3943  0.7108
 3388TIP3   OH231654   2.540   1.344  13.639 -0.1145 -0.2127  0.5587
 3388TIP3    H131655   2.475   1.274  13.629  0.2692 -0.5234  0.1544
 3388TIP3    H231656   2.537   1.368  13.731 -2.0878  1.0503  0.1847
 3389TIP3   OH231657   2.908   1.439  13.803 -0.4370  0.1953 -0.0050
 3389TIP3    H131658   2.956   1.484  13.733 -1.3499  1.9662  0.4861
 3389TIP3    H231659   2.961   1.455  13.882 -0.6782  0.2820  0.1393
 3390TIP3   OH231660   3.288   2.804   4.308  0.0575  0.0074  0.0946
 3390TIP3    H131661   3.213   2.758   4.345  1.2424 -1.7190  0.4246
 3390TIP3    H231662   3.358   2.738   4.305  1.1046  1.1333 -1.6624
 3391TIP3   OH231663   1.153   0.132   2.221  0.0007  0.1445  0.7929
 3391TIP3    H131664   1.207   0.195   2.173 -1.2208  0.6914  0.1039
 3391TIP3    H231665   1.194   0.126   2.307  0.4929  1.4388  0.6605
 3392TIP3   OH231666   1.904   5.948   4.917 -0.3560  0.1636 -0.1528
 3392TIP3    H131667   1.982   5.992   4.883 -0.5100  0.0351 -0.6627
 3392TIP3    H231668   1.875   5.891   4.846 -1.1105  0.4620 -0.0850
 3393TIP3   OH231669   6.014   3.506  12.535 -0.6026  0.0421 -0.1800
 3393TIP3    H131670   6.019   3.453  12.614 -3.2689  0.1186  0.0965
 3393TIP3    H231671   5.985   3.444  12.467  1.1110  0.0992 -0.9839
 3394TIP3   OH231672   4.748   4.600   2.887 -0.0704  0.3338 -0.3977
 3394TIP3    H131673   4.664   4.565   2.856 -0.0296  0.1802 -0.3354
 3394TIP3    H231674   4.767   4.672   2.826  0.2544 -0.2941 -1.0435
 3395TIP3   OH231675   4.803   1.022   6.147  0.0652  0.1242  0.4910
 3395TIP3    H131676   4.729   1.020   6.207  1.4177  1.6307  2.2582
 3395TIP3    H231677   4.806   1.113   6.115  0.7286 -0.0995 -0.1096
 3396TIP3   OH231678   2.765   1.965   1.135 -0.5123  0.3157 -0.7641
 3396TIP3    H131679   2.828   2.035   1.154 -0.0107 -0.5064  0.7148
 3396TIP3    H231680   2.696   2.008   1.084 -0.0807  1.8283 -0.1198
 3397TIP3   OH231681   0.451   5.560  14.026  0.5322  0.6552 -0.0530
 3397TIP3    H131682   0.495   5.600  13.952 -1.0926 -1.8935 -2.4866
 3397TIP3    H231683   0.516   5.501  14.064  0.3910 -0.4116 -1.4284
 3398TIP3   OH231684   5.746   5.889   1.924 -0.3404  0.1844  0.3344
 3398TIP3    H131685   5.817   5.945   1.894 -0.7194  0.7127  0.4197
 3398TIP3    H231686   5.691   5.876   1.847 -1.3751  1.6360  0.8143
 3399TIP3   OH231687   1.213   4.346   3.576  0.0072  0.4019  0.1595
 3399TIP3    H131688   1.226   4.362   3.669  0.6200 -1.6688  0.4587
 3399TIP3    H231689   1.196   4.252   3.569 -0.3040  0.5658 -1.7860
 3400TIP3   OH231690   5.994   4.364  14.025 -0.0578 -0.1391  0.3938
 3400TIP3    H131691   6.042   4.326  13.951 -2.1653 -1.4199 -0.3368
 3400TIP3    H231692   6.031   4.322  14.102  1.0740  0.0439 -0.0422
 3401TIP3   OH231693   4.809   3.649  12.914  0.5215 -0.0862  0.0863
 3401TIP3    H131694   4.760   3.629  12.994  0.2997 -0.6808 -0.1936
 3401TIP3    H231695   4.751   3.621  12.843  0.2802  1.3883 -0.3248
 3402TIP3   OH231696   6.411   2.225  13.553  0.5098  0.0297  0.5994
 3402TIP3    H131697   6.505   2.215  13.534  0.4788  0.4439  0.2236
 3402TIP3    H231698   6.387   2.143  13.596  0.7986 -0.5405 -0.3167
 3403TIP3   OH231699   0.425   4.007   0.751 -0.4429  0.6068  0.1482
 3403TIP3    H131700   0.428   4.063   0.829 -2.1993  0.8180  0.0706
 3403TIP3    H231701   0.512   4.016   0.712  0.7096 -0.0456  2.4577
 3404TIP3   OH231702   2.218   0.071  13.573 -0.5694  0.4356 -0.5817
 3404TIP3    H131703   2.299   0.059  13.523  0.9689  0.9638  1.7246
 3404TIP3    H231704   2.187  -0.018  13.590  1.5945  0.0609  1.7388
 3405TIP3   OH231705   5.601   5.446   1.591  0.1094 -0.0790  0.0563
 3405TIP3    H131706   5.672   5.441   1.527 -0.4133  3.2802 -0.9059
 3405TIP3    H231707   5.553   5.364   1.581  3.2733 -2.0113  0.0688
 3406TIP3   OH231708   2.618   3.419  16.283 -0.2744  0.0831 -0.8394
 3406TIP3    H131709   2.556   3.354  16.317 -0.5110  0.7835  0.1002
 3406TIP3    H231710   2.577   3.503  16.302  0.5208  0.5292 -1.0846
 3407TIP3   OH231711   0.406   5.456  12.439  0.6395 -0.1367  0.0673
 3407TIP3    H131712   0.330   5.458  12.381  1.1663  1.5877 -0.5954
 3407TIP3    H231713   0.439   5.546  12.438  0.5578 -0.0315  3.1821
 3408TIP3   OH231714   2.545   4.723  15.872  0.4868 -0.5594 -0.0368
 3408TIP3    H131715   2.600   4.797  15.898 -0.2407 -1.0524  3.2018
 3408TIP3    H231716   2.465   4.764  15.839  1.1084  0.1065 -0.7395
 3409TIP3   OH231717   3.251   4.738  13.201  0.6270  0.3609  0.0313
 3409TIP3    H131718   3.192   4.814  13.197 -1.4585 -1.2651 -1.4145
 3409TIP3    H231719   3.194   4.666  13.227  2.4404 -0.8662  0.6551
 3410TIP3   OH231720   0.947   5.932   3.913  0.4935 -0.9036 -0.2003
 3410TIP3    H131721   0.963   5.870   3.984  3.1213 -2.0825 -1.7233
 3410TIP3    H231722   1.002   6.007   3.935 -2.8906  1.1201  1.7815
 3411TIP3   OH231723   4.136   6.332  14.843  0.1703 -0.3251  0.1657
 3411TIP3    H131724   4.086   6.403  14.802  1.5831 -1.0345 -2.9120
 3411TIP3    H231725   4.075   6.258  14.845 -0.4779  0.2213  1.0134
 3412TIP3   OH231726   5.702   1.527   1.968 -0.1701  0.1940 -0.0626
 3412TIP3    H131727   5.681   1.575   1.888  1.3406 -0.9246 -1.1505
 3412TIP3    H231728   5.617   1.503   2.005 -0.8922 -1.2759 -2.5708
 3413TIP3   OH231729   4.393   0.843  14.618  1.0033  0.2246  0.3724
 3413TIP3    H131730   4.375   0.804  14.704  0.3914  1.3295  0.7480
 3413TIP3    H231731   4.350   0.784  14.556  0.9627 -0.2620  0.8576
 3414TIP3   OH231732   6.695   2.234  11.165  0.3474  0.2256  0.1876
 3414TIP3    H131733   6.610   2.277  11.161  0.2420  0.1160  1.1436
 3414TIP3    H231734   6.758   2.305  11.151  0.1293  0.4396  0.2857
 3415TIP3   OH231735   0.856   6.757   1.974  0.2184  0.1643  0.4405
 3415TIP3    H131736   0.943   6.766   2.013  0.4655  1.5005 -0.3738
 3415TIP3    H231737   0.869   6.776   1.881 -1.2158  2.1231  0.5916
 3416TIP3   OH231738   1.997   5.781  12.007  0.1711 -0.1505 -0.6511
 3416TIP3    H131739   1.949   5.853  11.967 -1.1091 -0.5746  0.0881
 3416TIP3    H231740   1.964   5.777  12.097  0.6479 -1.2869 -0.5162
 3417TIP3   OH231741   4.473   1.001  12.265 -0.4201 -0.1749 -0.4577
 3417TIP3    H131742   4.399   1.021  12.207  0.7160 -1.3237 -2.3619
 3417TIP3    H231743   4.487   0.907  12.254  1.0590 -0.0456  0.1930
 3418TIP3   OH231744   0.850   6.687  16.284 -0.0991 -0.0220 -0.6943
 3418TIP3    H131745   0.768   6.644  16.261  0.2589 -1.4863  0.7099
 3418TIP3    H231746   0.906   6.617  16.317  1.4253  1.0978 -0.8360
 3419TIP3   OH231747   5.780   6.807  15.589 -0.2300 -0.3617  0.4283
 3419TIP3    H131748   5.752   6.747  15.520  1.0615  1.0840 -1.4299
 3419TIP3    H231749   5.861   6.768  15.623 -0.1306 -0.3842  0.1699
 3420TIP3   OH231750   0.367   5.203   2.285  0.3552 -0.0476  0.1473
 3420TIP3    H131751   0.397   5.113   2.301  0.2379 -0.1491 -0.1778
 3420TIP3    H231752   0.319   5.197   2.202  1.9716  0.6772 -0.8724
 3421TIP3   OH231753   4.812   3.353   5.300 -0.0071 -0.2334 -0.1810
 3421TIP3    H131754   4.839   3.407   5.226  0.6136  1.1877  1.0449
 3421TIP3    H231755   4.724   3.322   5.278  0.4959 -0.4978 -1.8505
 3422TIP3   OH231756   4.387   6.095   4.979 -0.3846 -0.4545 -0.4537
 3422TIP3    H131757   4.340   6.069   4.900  0.5120  1.3075 -1.6064
 3422TIP3    H231758   4.319   6.127   5.038 -0.7865  1.1958 -1.7547
 3423TIP3   OH231759   1.528   1.797   1.105  0.5722 -0.2353  0.0311
 3423TIP3    H131760   1.545   1.727   1.042 -0.9247  0.4306 -1.1595
 3423TIP3    H231761   1.458   1.762   1.161  1.0106 -0.3392  0.5152
 3424TIP3   OH231762   2.874   4.606  14.238  0.1154  0.4195 -0.4770
 3424TIP3    H131763   2.965   4.580  14.253  0.1655  0.1281 -1.2645
 3424TIP3    H231764   2.833   4.602  14.324  0.6153 -0.3554 -0.2779
 3425TIP3   OH231765   6.477   0.762   5.075  0.2956  0.4348  0.4685
 3425TIP3    H131766   6.426   0.834   5.037 -1.2064  0.1944  1.9430
 3425TIP3    H231767   6.414   0.690   5.083  1.6781 -0.9015 -0.5682
 3426TIP3   OH231768   6.134   3.252  11.414 -0.1286 -0.4092  0.3648
 3426TIP3    H131769   6.050   3.225  11.377 -0.3833  0.7292  0.1241
 3426TIP3    H231770   6.195   3.249  11.340  0.0175 -1.0504  0.5006
 3427TIP3   OH231771   6.243   0.189  14.600 -0.3457 -0.3051  1.0256
 3427TIP3    H131772   6.230   0.204  14.506 -1.1394  0.9188  1.3328
 3427TIP3    H231773   6.156   0.197  14.638  0.1731  0.4988  2.0545
 3428TIP3   OH231774   3.293   2.163  13.186  0.0033  0.4289  0.5049
 3428TIP3    H131775   3.297   2.231  13.118 -0.5861 -0.4418 -0.4172
 3428TIP3    H231776   3.292   2.212  13.268  2.1802  1.4610 -0.0368
 3429TIP3   OH231777   2.250   1.762   3.929 -1.2384  0.0803  0.0877
 3429TIP3    H131778   2.190   1.700   3.970  0.2215 -0.6659  1.1305
 3429TIP3    H231779   2.204   1.846   3.933 -1.8040 -0.2868  1.7970
 3430TIP3   OH231780   2.560   6.363  12.755 -0.2447 -0.1029 -0.8828
 3430TIP3    H131781   2.511   6.445  12.750 -0.1207 -0.0405 -1.1290
 3430TIP3    H231782   2.638   6.385  12.805 -0.7127 -0.3278 -0.0471
 3431TIP3   OH231783   1.509   1.166   1.053 -0.3326  0.5537  0.1779
 3431TIP3    H131784   1.602   1.181   1.037 -0.2385 -0.3283 -0.1249
 3431TIP3    H231785   1.478   1.248   1.091  0.7756  0.5434  1.1617
 3432TIP3   OH231786   2.801   5.192  16.592 -0.1563  0.0669 -0.2221
 3432TIP3    H131787   2.809   5.284  16.570  0.7353  0.2926  0.9926
 3432TIP3    H231788   2.871   5.176  16.656 -1.6097 -0.9580  1.1466
 3433TIP3   OH231789   1.885   6.311   2.172  0.0649  0.0048 -0.2902
 3433TIP3    H131790   1.943   6.316   2.247  1.2280  1.4871 -1.2587
 3433TIP3    H231791   1.882   6.218   2.149  0.2483 -0.3569  1.1497
 3434TIP3   OH231792   1.361   3.260  11.693 -0.3192 -0.3201 -0.1697
 3434TIP3    H131793   1.281   3.290  11.650 -2.2060 -3.8974  0.6119
 3434TIP3    H231794   1.432   3.295  11.639 -2.4070  1.8897 -1.5980
 3435TIP3   OH231795   5.370   5.091   4.229  0.0027 -0.3351  0.8503
 3435TIP3    H131796   5.392   5.094   4.136  1.1080 -0.5431  1.1066
 3435TIP3    H231797   5.391   5.002   4.257  2.4745  0.5466  1.9690
 3436TIP3   OH231798   0.293   5.799  16.171  0.3307  0.5782  0.2709
 3436TIP3    H131799   0.278   5.857  16.245  1.3150  1.6822 -0.3823
 3436TIP3    H231800   0.221   5.735  16.175 -0.0487  1.0864  1.7138
 3437TIP3   OH231801   6.014   6.540   2.991 -0.3818 -0.2040 -0.6014
 3437TIP3    H131802   6.066   6.543   3.072 -0.4429 -0.5192 -0.5505
 3437TIP3    H231803   6.007   6.632   2.964 -2.3120  0.1601  1.0059
 3438TIP3   OH231804   3.987   4.599  13.853 -0.0635 -0.4213  0.1518
 3438TIP3    H131805   4.011   4.507  13.853 -0.5075 -0.5446  1.0728
 3438TIP3    H231806   3.905   4.603  13.804  1.7871  0.0073 -3.0556
 3439TIP3   OH231807   3.144   6.660   5.556 -0.1032 -0.1707  0.9173
 3439TIP3    H131808   3.174   6.627   5.641  1.7932 -2.4027 -0.5376
 3439TIP3    H231809   3.068   6.606   5.536  0.6592 -1.0533  0.3215
 3440TIP3   OH231810   3.631   0.544  12.165  0.1245  0.9330  0.2537
 3440TIP3    H131811   3.542   0.508  12.156  1.2458 -2.1221  0.9803
 3440TIP3    H231812   3.669   0.533  12.078  0.5503  0.1018  0.5395
 3441TIP3   OH231813   1.048   1.244  15.917  0.5208  0.4751  0.1266
 3441TIP3    H131814   1.133   1.256  15.959  0.2210 -1.4486  1.3300
 3441TIP3    H231815   0.986   1.237  15.989 -0.3743 -0.1570 -0.6833
 3442TIP3   OH231816   5.633   1.056   0.401 -0.2890 -0.0465 -0.2994
 3442TIP3    H131817   5.560   1.062   0.339  0.6313 -1.5602 -1.5989
 3442TIP3    H231818   5.595   1.019   0.480 -1.3419  1.2103 -0.2017
 3443TIP3   OH231819   1.128   3.273  16.235 -0.0481 -0.6501  0.5043
 3443TIP3    H131820   1.205   3.328  16.221  0.3674 -1.3638 -0.0894
 3443TIP3    H231821   1.055   3.326  16.204  0.3701 -0.5057 -0.2511
 3444TIP3   OH231822   3.243   1.202   3.243  0.1643  0.3592 -0.6714
 3444TIP3    H131823   3.201   1.271   3.296  0.9162  0.9188 -0.8003
 3444TIP3    H231824   3.195   1.203   3.160 -0.5430 -0.0229 -0.2752
 3445TIP3   OH231825   4.235   3.280   0.143 -0.3297  0.0340 -0.0085
 3445TIP3    H131826   4.144   3.302   0.162 -0.3411  0.4626 -0.5619
 3445TIP3    H231827   4.286   3.332   0.205 -0.4251  0.4815 -0.3004
 3446TIP3   OH231828   4.564   1.091  16.682 -0.6736 -0.2182 -0.1529
 3446TIP3    H131829   4.510   1.163  16.650  0.4164  1.1320  1.0063
 3446TIP3    H231830   4.594   1.120  16.768 -0.2246 -2.0611  0.3339
 3447TIP3   OH231831   0.214   5.961   5.297  0.3890  0.0206 -0.5357
 3447TIP3    H131832   0.298   5.926   5.268  0.2423 -0.1062 -0.8098
 3447TIP3    H231833   0.150   5.921   5.238 -0.0649 -1.3266  0.8509
 3448TIP3   OH231834   3.897   5.344   3.667 -0.1636 -0.1729 -0.1019
 3448TIP3    H131835   3.987   5.320   3.690 -0.5680 -1.4118  0.2616
 3448TIP3    H231836   3.852   5.352   3.751 -0.1946  1.3036 -0.2491
 3449TIP3   OH231837   1.976   4.727   3.209 -0.1017 -0.3013  0.8884
 3449TIP3    H131838   1.965   4.683   3.124  0.2235  0.5588  0.3910
 3449TIP3    H231839   1.927   4.673   3.270 -1.0832 -0.4462 -0.0133
 3450TIP3   OH231840   6.676   1.968  14.034 -0.9987  0.2205 -0.1428
 3450TIP3    H131841   6.661   1.981  14.128  2.0434  2.1741  0.1140
 3450TIP3    H231842   6.642   2.048  13.993 -0.0348  0.4597 -0.4725
 3451TIP3   OH231843   1.502   0.872   2.594 -0.0586 -0.4282  0.6464
 3451TIP3    H131844   1.591   0.856   2.564  0.1526  2.4458 -0.4559
 3451TIP3    H231845   1.450   0.804   2.552  1.1632 -0.1809 -1.3644
 3452TIP3   OH231846   4.203   1.526   4.852 -0.4753  1.1260  0.4576
 3452TIP3    H131847   4.241   1.441   4.830 -1.9722  0.6267 -0.2680
 3452TIP3    H231848   4.270   1.570   4.904  0.7097 -0.0979 -0.0155
 3453TIP3   OH231849   1.692   4.028   3.767  0.2725 -0.6274  0.1567
 3453TIP3    H131850   1.658   4.087   3.834  1.5646  0.6773 -0.2966
 3453TIP3    H231851   1.640   4.049   3.689  0.6853 -0.1281  0.0137
 3454TIP3   OH231852   5.506   4.905   0.301  0.4550  0.0246 -0.5370
 3454TIP3    H131853   5.552   4.949   0.229  1.1767  1.3142  0.6852
 3454TIP3    H231854   5.438   4.854   0.257  2.8783 -1.7975 -2.3871
 3455TIP3   OH231855   1.213   2.529  11.932 -0.2564 -0.2361  0.1713
 3455TIP3    H131856   1.149   2.557  11.867 -1.0857 -2.1452  0.1231
 3455TIP3    H231857   1.180   2.564  12.015 -1.5027 -1.3801  0.1766
 3456TIP3   OH231858   2.706   4.682   5.176  0.0240  0.2351  0.3516
 3456TIP3    H131859   2.742   4.671   5.088 -1.5465 -0.6592 -0.1911
 3456TIP3    H231860   2.777   4.654   5.234  0.8597  0.2647 -0.6438
 3457TIP3   OH231861   1.996   3.549  15.352  0.1468 -0.2594  0.3599
 3457TIP3    H131862   1.921   3.529  15.296  0.6986  1.8887 -1.2292
 3457TIP3    H231863   2.029   3.464  15.380 -1.8725 -1.2772 -0.2987
 3458TIP3   OH231864   2.987   5.641  15.646  0.0657  0.2951  0.2999
 3458TIP3    H131865   2.915   5.703  15.640 -0.1406 -0.1103 -1.6068
 3458TIP3    H231866   2.945   5.556  15.661  0.2693  0.3599  1.3016
 3459TIP3   OH231867   3.693   6.331   1.041 -0.0953 -0.4692  0.6576
 3459TIP3    H131868   3.722   6.304   1.128  0.4063 -1.8885  0.0599
 3459TIP3    H231869   3.733   6.418   1.029  2.4929 -1.6392  0.5516
 3460TIP3   OH231870   2.679   4.765  17.264 -0.5484  0.0151  0.1813
 3460TIP3    H131871   2.623   4.842  17.268 -2.9899 -1.7224  0.7157
 3460TIP3    H231872   2.660   4.724  17.180  0.6956 -0.0419 -0.0842
 3461TIP3   OH231873   2.064   5.058  15.475  0.6712  0.6705 -0.5198
 3461TIP3    H131874   2.028   5.135  15.519  1.3285 -0.0180  1.2496
 3461TIP3    H231875   2.069   5.083  15.383 -3.0392  1.2841 -0.6156
 3462TIP3   OH231876   1.972   1.502   3.477 -0.0464 -0.2311  0.2933
 3462TIP3    H131877   2.039   1.460   3.423  1.7095  2.1191  0.6219
 3462TIP3    H231878   1.921   1.554   3.416 -0.3094 -0.3837  0.3778
 3463TIP3   OH231879   6.191   3.684   2.435  0.0851 -0.2517 -0.6412
 3463TIP3    H131880   6.166   3.619   2.369  1.0641 -1.3091  0.0000
 3463TIP3    H231881   6.170   3.643   2.519  0.8269  0.2049 -0.2215
 3464TIP3   OH231882   5.742   0.856   2.509  0.1148 -0.3827  0.3471
 3464TIP3    H131883   5.672   0.820   2.565  0.2545  2.3320  2.3628
 3464TIP3    H231884   5.821   0.810   2.537 -0.1112 -0.2241  1.2886
 3465TIP3   OH231885   1.928   4.411   0.237 -0.2228  0.0687 -0.3743
 3465TIP3    H131886   1.902   4.499   0.209 -1.4087  0.4296  1.7676
 3465TIP3    H231887   1.869   4.353   0.189 -1.0942  0.5828  0.0671
 3466TIP3   OH231888   3.297   3.976   4.224 -0.1429  0.6750 -0.2736
 3466TIP3    H131889   3.313   3.977   4.319  2.0744  0.5335 -0.6125
 3466TIP3    H231890   3.243   4.053   4.208 -0.9899  0.3919  1.1849
 3467TIP3   OH231891   3.161   5.166   5.674 -0.0125  0.0062  0.3614
 3467TIP3    H131892   3.141   5.123   5.757 -1.3758 -1.2706 -0.6033
 3467TIP3    H231893   3.199   5.098   5.619 -2.5645 -0.1586 -1.3248
 3468TIP3   OH231894   5.261   5.696   5.185 -0.2202 -0.0092  0.0506
 3468TIP3    H131895   5.171   5.698   5.152 -0.9039  1.9376  1.8892
 3468TIP3    H231896   5.298   5.780   5.157  0.0851  0.4447  1.7486
 3469TIP3   OH231897   4.776   4.624   0.359 -0.4957  0.6247  0.0505
 3469TIP3    H131898   4.701   4.581   0.401 -0.0568 -1.0662 -0.8460
 3469TIP3    H231899   4.741   4.661   0.278 -0.2942 -0.5250 -0.5731
 3470TIP3   OH231900   1.133   3.143   2.281  0.3775 -1.0278 -0.5464
 3470TIP3    H131901   1.167   3.188   2.358  0.2721 -0.0445 -1.0578
 3470TIP3    H231902   1.211   3.105   2.239  0.3550 -2.0871  0.3702
 3471TIP3   OH231903   2.774   4.667   1.186  1.1114  0.0303 -0.0645
 3471TIP3    H131904   2.828   4.677   1.264 -1.8470  0.3619  2.0039
 3471TIP3    H231905   2.720   4.590   1.203  0.4595  0.0606 -1.8258
 3472TIP3   OH231906   3.072   0.073  14.238  0.2478 -0.4255 -0.0670
 3472TIP3    H131907   3.058   0.166  14.250  0.7490 -0.6453  2.6848
 3472TIP3    H231908   2.985   0.036  14.225 -0.1522  0.2173  0.7267
 3473TIP3   OH231909   3.193   2.083  11.782 -0.0707 -0.1367  0.2334
 3473TIP3    H131910   3.174   2.176  11.776 -0.9659 -0.3793 -1.0462
 3473TIP3    H231911   3.283   2.074  11.752  0.5068  0.4773  1.7491
 3474TIP3   OH231912   3.793   5.432   0.388  0.7219  0.2540  0.0027
 3474TIP3    H131913   3.744   5.459   0.310 -0.7385  4.0632  2.1728
 3474TIP3    H231914   3.726   5.408   0.452  1.7894  1.2018  1.5012
 3475TIP3   OH231915   2.506   5.395   1.053 -0.1954 -0.0478 -0.0526
 3475TIP3    H131916   2.569   5.398   0.981 -1.0615 -0.2497 -0.8237
 3475TIP3    H231917   2.509   5.305   1.084 -0.2367 -0.1014 -0.2043
 3476TIP3   OH231918   3.415   3.488  13.621 -0.1348  0.4795  0.7059
 3476TIP3    H131919   3.406   3.395  13.601  2.0560  0.2579  0.6017
 3476TIP3    H231920   3.415   3.531  13.536 -0.9591  0.5700  0.7453
 3477TIP3   OH231921   3.586   0.074   3.378  0.2937  0.4282 -0.3054
 3477TIP3    H131922   3.607   0.166   3.364 -2.1426  0.7766 -1.8711
 3477TIP3    H231923   3.529   0.073   3.454  1.1178  0.0899  0.3189
 3478TIP3   OH231924   1.968   0.575   1.091  0.5270 -0.1729  0.0917
 3478TIP3    H131925   1.956   0.670   1.086 -0.7727 -0.2390  1.6258
 3478TIP3    H231926   1.881   0.539   1.079  0.3679 -0.9863  3.1677
 3479TIP3   OH231927   4.769   2.638   4.099  0.2113 -0.4080  0.0268
 3479TIP3    H131928   4.689   2.642   4.151  0.3272  1.1958  0.0858
 3479TIP3    H231929   4.830   2.696   4.144  1.0409 -0.7297 -0.6719
 3480TIP3   OH231930   4.902   1.877   0.502 -0.0210 -0.0223  0.1013
 3480TIP3    H131931   4.920   1.899   0.593 -0.1537 -1.2452  0.4386
 3480TIP3    H231932   4.810   1.900   0.488 -0.0426  0.0205  0.3244
 3481TIP3   OH231933   4.093   0.267  11.670  0.3250  0.1018 -0.4997
 3481TIP3    H131934   4.188   0.267  11.684  0.6715  0.0606 -2.6481
 3481TIP3    H231935   4.063   0.346  11.716  1.5602  0.7179 -0.7093
 3482TIP3   OH231936   3.548   2.699  13.972  0.1492 -0.2408  0.6757
 3482TIP3    H131937   3.496   2.779  13.979 -0.0594 -0.4304  1.2446
 3482TIP3    H231938   3.598   2.711  13.890  0.1065  0.4584  0.7446
 3483TIP3   OH231939   1.748   2.528  16.668 -0.0039  0.0937 -0.2109
 3483TIP3    H131940   1.763   2.437  16.643 -1.0409 -0.2714  0.4564
 3483TIP3    H231941   1.689   2.562  16.600  0.6479  0.3649 -0.6433
 3484TIP3   OH231942   5.769   4.366  15.691 -0.2932  0.0326 -0.3305
 3484TIP3    H131943   5.771   4.462  15.694  0.8599  0.2340 -4.0668
 3484TIP3    H231944   5.859   4.340  15.710  0.3961 -0.0050 -3.3096
 3485TIP3   OH231945   2.976   4.840  10.659 -0.0183  0.0717  0.3595
 3485TIP3    H131946   3.048   4.789  10.696 -1.2929 -0.4136  2.2665
 3485TIP3    H231947   2.990   4.929  10.691  0.8546  0.4092 -0.9517
 3486TIP3   OH231948   1.007   0.794   2.399 -0.1487  0.3195  0.0713
 3486TIP3    H131949   0.976   0.842   2.322 -0.8901 -1.1626 -0.5539
 3486TIP3    H231950   1.042   0.712   2.364 -0.3319 -0.2933  1.3055
 3487TIP3   OH231951   0.694   2.365   0.633 -0.0893 -0.4297  0.2244
 3487TIP3    H131952   0.679   2.282   0.589 -1.3206 -0.4059  0.5782
 3487TIP3    H231953   0.757   2.411   0.577 -1.7168 -0.3531 -1.5814
 3488TIP3   OH231954   1.667   6.160  13.191 -0.9701  0.2897  0.2119
 3488TIP3    H131955   1.594   6.111  13.229 -0.6867 -0.5444 -0.3185
 3488TIP3    H231956   1.676   6.126  13.102  1.3836 -1.0763  0.9277
 3489TIP3   OH231957   3.245   5.798   1.184  0.3630  0.3260 -0.1156
 3489TIP3    H131958   3.281   5.866   1.242 -0.6475 -0.6666  1.7217
 3489TIP3    H231959   3.153   5.822   1.173  0.1523 -0.3966  0.0453
 3490TIP3   OH231960   3.175   4.897  14.593 -0.0397 -0.5017  0.5171
 3490TIP3    H131961   3.110   4.831  14.616  0.8582 -1.5777 -0.0082
 3490TIP3    H231962   3.143   4.977  14.635 -1.6270 -1.0368  0.3756
 3491TIP3   OH231963   3.974   5.475  11.714 -0.1003 -0.3320  0.3087
 3491TIP3    H131964   4.033   5.549  11.731 -0.9694  0.2923  0.6074
 3491TIP3    H231965   4.023   5.419  11.654  2.5462 -1.9542  3.7673
 3492TIP3   OH231966   1.806   0.033  11.491  0.1574  0.0244  0.3357
 3492TIP3    H131967   1.724   0.008  11.451 -0.4799 -0.2918  1.8128
 3492TIP3    H231968   1.839  -0.047  11.532 -0.1148  0.7414  1.9895
 3493TIP3   OH231969   6.191   5.592  12.220 -0.2413  0.5057  0.2974
 3493TIP3    H131970   6.172   5.573  12.311 -1.2778  0.2086  0.0200
 3493TIP3    H231971   6.113   5.638  12.188  0.2064  0.8001 -0.3778
 3494TIP3   OH231972   6.617   4.210   4.326  0.8237 -0.2235  1.0444
 3494TIP3    H131973   6.538   4.261   4.346 -0.2737 -1.3021 -0.3562
 3494TIP3    H231974   6.684   4.246   4.384  0.0819  2.7165  0.1664
 3495TIP3   OH231975   4.565   2.975  15.346 -0.1753  0.2828 -0.0360
 3495TIP3    H131976   4.479   2.955  15.309  0.2861 -0.0956 -0.9256
 3495TIP3    H231977   4.575   2.914  15.418 -0.3951 -0.0792 -0.3104
 3496TIP3   OH231978   1.651   5.547   4.355 -0.2314  0.1305 -0.0188
 3496TIP3    H131979   1.628   5.514   4.268  0.8764  2.8295 -1.4343
 3496TIP3    H231980   1.746   5.560   4.351 -0.1625  0.2276  1.6162
 3497TIP3   OH231981   4.745   4.543  12.030 -0.4597 -0.0330 -0.0711
 3497TIP3    H131982   4.693   4.542  12.110  0.1771 -0.0526  0.3458
 3497TIP3    H231983   4.714   4.619  11.981  0.7109  1.3181  1.2359
 3498TIP3   OH231984   1.840   1.256   1.361 -0.0848  0.1862  0.8452
 3498TIP3    H131985   1.838   1.241   1.456  0.3063  0.1904  0.8527
 3498TIP3    H231986   1.807   1.345   1.351  2.1478  1.0892  1.1724
 3499TIP3   OH231987   4.542   0.699   1.570  0.0830 -0.1055 -0.0536
 3499TIP3    H131988   4.499   0.640   1.508  1.5460 -1.4005  0.1278
 3499TIP3    H231989   4.476   0.714   1.637 -0.9380 -0.0604 -1.0385
 3500TIP3   OH231990   2.639   2.364  12.204  0.5211 -0.2826  0.5011
 3500TIP3    H131991   2.643   2.418  12.282  0.1957  0.6939 -0.1463
 3500TIP3    H231992   2.720   2.383  12.157  1.4940 -2.1077  1.3870
 3501TIP3   OH231993   3.976   1.961   0.869 -0.8388  0.3728  0.1984
 3501TIP3    H131994   4.034   1.913   0.810 -1.3215  2.8881 -2.4295
 3501TIP3    H231995   3.888   1.936   0.842 -1.0512  0.3948  0.8637
 3502TIP3   OH231996   3.975   5.964   5.933 -0.3661  0.1763 -0.2782
 3502TIP3    H131997   3.912   5.927   5.995  0.8339 -0.8939  0.3488
 3502TIP3    H231998   3.929   5.969   5.850 -1.4291 -0.1092  0.2929
 3503TIP3   OH231999   5.907   4.226  13.663  0.1820  0.0724  0.2522
 3503TIP3    H132000   5.975   4.172  13.622  0.0336  0.7616 -0.9320
 3503TIP3    H232001   5.881   4.288  13.595 -3.6258 -1.9371 -0.3074
 3504TIP3   OH232002   6.337   2.483   4.445 -0.3378 -0.0627  0.7412
 3504TIP3    H132003   6.316   2.470   4.537  0.4314 -0.4654  0.8591
 3504TIP3    H232004   6.357   2.576   4.437  0.1974 -0.1493  1.0981
 3505TIP3   OH232005   2.738   2.154  12.854 -0.0948 -0.1893 -0.0079
 3505TIP3    H132006   2.723   2.221  12.920 -0.6429  1.1272 -1.4462
 3505TIP3    H232007   2.741   2.201  12.771  1.0500 -1.7636 -0.8938
 3506TIP3   OH232008   4.329   6.677   4.056  0.6737 -0.1526 -0.1449
 3506TIP3    H132009   4.283   6.593   4.061 -0.2953  0.2995 -1.1720
 3506TIP3    H232010   4.398   6.670   4.121 -0.2240 -1.2456  0.7191
 3507TIP3   OH232011   0.975   1.483   3.286 -0.7961  0.7518 -0.0157
 3507TIP3    H132012   0.952   1.479   3.378 -1.1955  3.6624  0.0660
 3507TIP3    H232013   1.012   1.571   3.274  0.9259 -0.2202 -2.2471
 3508TIP3   OH232014   2.309   2.916  14.332  0.1704 -0.1828 -0.0125
 3508TIP3    H132015   2.235   2.865  14.365  0.7686 -0.6776  0.5767
 3508TIP3    H232016   2.383   2.890  14.387  1.5733 -2.2179 -2.7282
 3509TIP3   OH232017   6.159   3.499  14.582  0.5356  0.1532  0.2776
 3509TIP3    H132018   6.118   3.557  14.518  1.6458 -0.9115 -1.4298
 3509TIP3    H232019   6.136   3.537  14.667 -2.8684  0.3119 -0.6474
 3510TIP3   OH232020   6.376   6.008  11.329  0.1013  0.7419 -0.3406
 3510TIP3    H132021   6.347   6.024  11.239 -0.3040  0.0154 -0.3415
 3510TIP3    H232022   6.326   5.932  11.357  0.6451  0.6204  0.3059
 3511TIP3   OH232023   3.929   3.436  11.202 -0.8138  0.3208 -0.3319
 3511TIP3    H132024   3.847   3.411  11.245 -0.6611  0.1753 -0.1241
 3511TIP3    H232025   3.980   3.355  11.200  0.4761  1.0314  2.0790
 3512TIP3   OH232026   3.185   0.634   1.825 -1.1857 -0.9189 -0.0270
 3512TIP3    H132027   3.247   0.562   1.837 -0.2546 -0.0293  0.5495
 3512TIP3    H232028   3.136   0.610   1.746  1.5254 -0.4924 -1.9324
 3513TIP3   OH232029   5.174   1.055   4.235  0.1436 -0.5045  0.4391
 3513TIP3    H132030   5.114   1.011   4.296  2.3474 -1.2260  2.1539
 3513TIP3    H232031   5.217   0.983   4.189  1.4122 -0.0649  0.9277
 3514TIP3   OH232032   1.759   4.563  13.731  0.3927 -0.2140 -0.0873
 3514TIP3    H132033   1.745   4.654  13.757 -1.0005 -0.1100 -1.1631
 3514TIP3    H232034   1.752   4.513  13.813  0.4627  0.5640  0.3982
 3515TIP3   OH232035   6.752   4.208   5.121  0.1402 -0.2718 -0.2839
 3515TIP3    H132036   6.672   4.171   5.084  0.3365 -1.7402  0.7419
 3515TIP3    H232037   6.731   4.300   5.137 -1.7704 -0.9241  1.1432
 3516TIP3   OH232038   4.216   2.692   3.427  0.1580 -0.1068  0.2848
 3516TIP3    H132039   4.145   2.738   3.382  1.8208  0.6433 -1.6502
 3516TIP3    H232040   4.195   2.599   3.416 -1.8305  0.1139  1.9313
 3517TIP3   OH232041   0.629   2.327  17.079 -0.1321  0.1903  0.0177
 3517TIP3    H132042   0.682   2.251  17.054 -2.4853 -1.0137 -1.5045
 3517TIP3    H232043   0.693   2.393  17.105  2.0624 -1.6289 -0.5768
 3518TIP3   OH232044   3.229   2.760   2.749 -0.1427  0.4884 -0.1959
 3518TIP3    H132045   3.288   2.730   2.817 -0.9405 -0.7973 -0.0633
 3518TIP3    H232046   3.204   2.849   2.776 -2.1891 -0.7971  2.3638
 3519TIP3   OH232047   2.070   2.095   1.863  0.1388 -0.8473  0.3045
 3519TIP3    H132048   2.073   2.000   1.848  0.4651 -0.9295  0.8822
 3519TIP3    H232049   2.034   2.104   1.951  1.3411 -0.4865  0.7757
 3520TIP3   OH232050   4.250   5.595  11.109  0.1829 -0.1020 -0.2980
 3520TIP3    H132051   4.200   5.604  11.027 -1.1466  0.5510  0.5649
 3520TIP3    H232052   4.220   5.513  11.146 -0.2840  0.2994  0.2291
 3521TIP3   OH232053   0.613   5.944   3.096  0.2423 -0.0674  0.7327
 3521TIP3    H132054   0.694   5.971   3.053  0.4972 -1.1087  0.5469
 3521TIP3    H232055   0.638   5.869   3.151 -0.6745 -0.6972  0.3151
 3522TIP3   OH232056   6.643   1.501  13.848 -0.7955  0.4318 -0.0801
 3522TIP3    H132057   6.654   1.518  13.755 -0.9691  0.5340 -0.0822
 3522TIP3    H232058   6.662   1.407  13.857  0.4254  0.6838 -0.0196
 3523TIP3   OH232059   6.179   3.866  14.248  0.3152 -0.0672  0.6646
 3523TIP3    H132060   6.174   3.819  14.165 -1.4563 -0.5416  1.0292
 3523TIP3    H232061   6.174   3.958  14.224  1.2344 -0.1443  0.1499
 3524TIP3   OH232062   6.398   0.917  12.948 -0.0361 -0.5689 -0.0857
 3524TIP3    H132063   6.481   0.881  12.978  1.3382  2.5059 -0.0036
 3524TIP3    H232064   6.338   0.904  13.021  1.1620 -0.2496  0.9808
 3525TIP3   OH232065   3.289   4.732   5.190  0.0374 -0.2339 -0.2212
 3525TIP3    H132066   3.361   4.771   5.240  1.5400 -1.3259 -1.4971
 3525TIP3    H232067   3.244   4.675   5.253  0.3541  0.3510  0.5459
 3526TIP3   OH232068   3.299   4.700  15.872  0.4449 -0.1638 -0.1986
 3526TIP3    H132069   3.362   4.742  15.813  0.8947 -0.6405 -0.0541
 3526TIP3    H232070   3.333   4.612  15.884  0.6559  0.1113  1.2337
 3527TIP3   OH232071   5.908   0.133   4.100 -0.0796  0.2350 -0.2057
 3527TIP3    H132072   5.940   0.218   4.071 -0.9440  0.4585 -0.5158
 3527TIP3    H232073   5.877   0.148   4.189  0.9666 -0.0576  0.2171
 3528TIP3   OH232074   4.192   6.182  14.305  0.5659 -0.0364 -0.2772
 3528TIP3    H132075   4.107   6.139  14.299  1.0893 -1.0948 -0.1962
 3528TIP3    H232076   4.200   6.231  14.223  0.6299 -1.3383 -1.0571
 3529TIP3   OH232077   6.574   3.989   2.192  0.3206 -0.5606  0.0358
 3529TIP3    H132078   6.615   4.032   2.267  1.4973 -1.3713 -0.1256
 3529TIP3    H232079   6.609   3.900   2.194  0.7048 -0.4714 -1.7148
 3530TIP3   OH232080   3.014   1.544  11.000  0.2423  0.6118 -0.5018
 3530TIP3    H132081   3.099   1.506  10.977 -1.7346 -4.2046 -0.4234
 3530TIP3    H232082   3.003   1.524  11.093 -1.2931  0.5526 -0.6816
 3531TIP3   OH232083   3.759   1.033  11.679 -0.1741 -0.4913  0.3872
 3531TIP3    H132084   3.800   0.963  11.730 -0.0292  0.2505  1.2965
 3531TIP3    H232085   3.700   0.987  11.618 -0.7131 -1.3657  1.5408
 3532TIP3   OH232086   5.632   2.469  11.516 -0.0761  0.6159 -1.1138
 3532TIP3    H132087   5.697   2.529  11.554  0.1212  0.8712 -1.8408
 3532TIP3    H232088   5.684   2.409  11.462 -0.1743 -0.8166  0.3608
 3533TIP3   OH232089   1.222   5.543  13.687 -0.1536  0.3721  0.1152
 3533TIP3    H132090   1.127   5.553  13.679 -0.0930  0.3073 -0.7867
 3533TIP3    H232091   1.236   5.521  13.779 -0.8363  2.4766  0.7573
 3534TIP3   OH232092   0.961   1.543   0.244  0.1408  0.1644  0.0675
 3534TIP3    H132093   0.960   1.599   0.167  0.6726  0.0839  0.0029
 3534TIP3    H232094   0.869   1.521   0.259  0.1686 -0.8998 -1.3156
 3535TIP3   OH232095   3.327   1.760  15.162  0.5079 -0.2468  0.3905
 3535TIP3    H132096   3.402   1.818  15.152  0.2340 -0.0522 -0.6341
 3535TIP3    H232097   3.251   1.818  15.162  0.2201 -0.5918 -0.8256
 3536TIP3   OH232098   3.531   6.584  15.744 -0.2821  0.0973  0.3922
 3536TIP3    H132099   3.440   6.611  15.756 -0.6773 -0.3681 -1.4718
 3536TIP3    H232100   3.544   6.515  15.809 -1.1323  0.4173  0.9162
 3537TIP3   OH232101   4.925   6.695  13.807  0.2774 -0.6544  0.9321
 3537TIP3    H132102   4.914   6.622  13.746  0.8500 -0.8432  1.0481
 3537TIP3    H232103   4.921   6.773  13.752 -1.9844 -0.6821  1.0129
 3538TIP3   OH232104   5.758   6.718   2.828 -0.2884 -0.7492 -0.0700
 3538TIP3    H132105   5.822   6.751   2.891  1.2707  0.2189 -2.1107
 3538TIP3    H232106   5.711   6.795   2.798 -1.1833 -1.2322  0.0614
 3539TIP3   OH232107   3.708   3.914   2.939 -0.0834 -0.1607  0.0840
 3539TIP3    H132108   3.671   3.859   3.008 -1.4030 -2.8876 -2.6667
 3539TIP3    H232109   3.648   3.989   2.934 -1.3424 -1.1316  0.3005
 3540TIP3   OH232110   1.856   0.031   5.567  0.1366  0.0447 -0.3335
 3540TIP3    H132111   1.888   0.096   5.504  0.7388 -1.1063 -1.2330
 3540TIP3    H232112   1.910  -0.046   5.551  0.2511 -0.2866  1.5648
 3541TIP3   OH232113   3.621   5.567   1.201  0.3743 -0.2866 -1.0270
 3541TIP3    H132114   3.711   5.596   1.190  0.7534 -1.4103 -0.9098
 3541TIP3    H232115   3.604   5.511   1.125  0.3502 -1.4968 -0.1448
 3542TIP3   OH232116   2.905   4.765   2.342  0.5684  0.2696 -0.0239
 3542TIP3    H132117   2.982   4.823   2.339  0.6373  0.1577 -0.4125
 3542TIP3    H232118   2.839   4.810   2.290  1.1784 -0.8107 -1.7591
 3543TIP3   OH232119   2.285   3.430  13.752  0.0003  0.2005  0.2642
 3543TIP3    H132120   2.284   3.347  13.705 -2.9595  0.4387 -0.1717
 3543TIP3    H232121   2.326   3.409  13.836  2.1873 -0.9710 -1.0423
 3544TIP3   OH232122   4.287   4.552  15.640 -0.8098 -0.3732 -0.1752
 3544TIP3    H132123   4.299   4.465  15.677 -0.0188 -1.1457 -2.1790
 3544TIP3    H232124   4.286   4.611  15.716  0.2514 -1.9485  1.0826
 3545TIP3   OH232125   0.452   1.034  14.975  0.4837  0.2282 -0.4037
 3545TIP3    H132126   0.484   0.946  14.997  0.1066  0.4000  0.8846
 3545TIP3    H232127   0.371   1.044  15.025 -0.0521  0.8996 -1.3953
 3546TIP3   OH232128   3.176   1.862   3.246 -0.5384  0.1259  0.0722
 3546TIP3    H132129   3.243   1.834   3.308 -2.1262 -0.7883  1.3944
 3546TIP3    H232130   3.178   1.958   3.250 -0.1357  0.0790  1.0065
 3547TIP3   OH232131   3.822   5.956   5.722 -0.0478 -0.0129  0.4143
 3547TIP3    H132132   3.814   5.885   5.659 -0.0096  0.5434 -0.2256
 3547TIP3    H232133   3.753   6.018   5.697  0.7907  0.8068  0.1297
 3548TIP3   OH232134   4.392   3.351   3.500 -0.2911 -0.2984  0.6623
 3548TIP3    H132135   4.434   3.272   3.467 -0.7600 -0.1777 -0.2589
 3548TIP3    H232136   4.311   3.359   3.448 -0.1831  0.8484  0.6447
 3549TIP3   OH232137   4.200   3.943   3.570 -0.2093 -0.0569  0.2676
 3549TIP3    H132138   4.115   3.944   3.615 -0.8055 -3.0322 -0.6504
 3549TIP3    H232139   4.263   3.967   3.637 -1.6809  1.3895  1.1720
 3550TIP3   OH232140   1.288   5.368  13.421 -0.1370 -0.4917 -0.0886
 3550TIP3    H132141   1.248   5.368  13.334  0.3237  1.0440 -0.3138
 3550TIP3    H232142   1.232   5.425  13.473  0.4768 -0.1670  0.2141
 3551TIP3   OH232143   0.767   1.328  14.670 -0.0437 -0.4042 -0.4675
 3551TIP3    H132144   0.742   1.283  14.589  0.4066 -1.4480 -0.0341
 3551TIP3    H232145   0.696   1.310  14.731 -0.3959  0.4059 -0.6228
 3552TIP3   OH232146   1.358   1.497   4.769  0.0664  0.0268  0.5719
 3552TIP3    H132147   1.384   1.523   4.681  0.9826 -0.2434  0.7572
 3552TIP3    H232148   1.265   1.477   4.762 -0.4533  2.4531  0.2239
 3553TIP3   OH232149   0.389   2.088   5.089  0.1943  0.2937  0.7489
 3553TIP3    H132150   0.348   2.005   5.067 -0.1609  0.5991  0.2602
 3553TIP3    H232151   0.335   2.125   5.158  2.0137 -1.2511  3.0742
 3554TIP3   OH232152   0.766   0.802  15.007  0.2921 -0.3553 -0.0940
 3554TIP3    H132153   0.777   0.890  15.043  0.8763 -0.9715  1.2495
 3554TIP3    H232154   0.681   0.773  15.040  0.4604 -0.6075  0.1157
 3555TIP3   OH232155   1.941   1.099  16.137 -0.5982 -0.1144  0.5349
 3555TIP3    H132156   1.882   1.129  16.068 -1.1678 -1.0190  0.6214
 3555TIP3    H232157   1.969   1.179  16.181 -3.2211  0.2133  1.6893
 3556TIP3   OH232158   4.860   4.617  16.896 -0.2198  0.8912 -0.6608
 3556TIP3    H132159   4.870   4.571  16.980 -1.2041 -0.1017 -1.0774
 3556TIP3    H232160   4.888   4.706  16.914 -0.0711  0.5925  0.6375
 3557TIP3   OH232161   1.338   3.428  11.159  0.1146  0.2647 -0.0921
 3557TIP3    H132162   1.259   3.443  11.212  0.1503 -0.3902  0.1570
 3557TIP3    H232163   1.336   3.497  11.094 -1.8853 -1.0662 -1.5242
 3558TIP3   OH232164   3.816   0.303   4.804 -0.0614  0.1520  0.5130
 3558TIP3    H132165   3.853   0.215   4.814 -1.2265 -0.3543  0.5266
 3558TIP3    H232166   3.777   0.301   4.716 -0.3576  0.5560  0.6387
 3559TIP3   OH232167   0.666   4.273   5.373 -0.3386  0.1119  0.1762
 3559TIP3    H132168   0.725   4.211   5.418 -0.5955  0.3938  0.9101
 3559TIP3    H232169   0.723   4.345   5.346 -0.4368  0.6455  1.3742
 3560TIP3   OH232170   1.558   3.553   3.945  0.4438  0.6911  0.2377
 3560TIP3    H132171   1.605   3.479   3.909 -0.1534  1.9384 -3.2668
 3560TIP3    H232172   1.609   3.630   3.918 -1.0046  1.7633  0.4877
 3561TIP3   OH232173   6.684   0.190   3.977 -0.0660  0.0419  0.5714
 3561TIP3    H132174   6.634   0.270   3.962 -1.5741 -1.0586 -0.4746
 3561TIP3    H232175   6.631   0.139   4.039  0.1022 -0.8061  0.0320
 3562TIP3   OH232176   5.790   6.058  13.037 -0.2355  0.2355  0.0637
 3562TIP3    H132177   5.698   6.045  13.062 -0.5225  0.3747 -0.8890
 3562TIP3    H232178   5.814   6.141  13.076 -0.3466 -0.0711  0.7876
 3563TIP3   OH232179   2.172   3.284   3.898  0.3445 -0.3289 -0.3834
 3563TIP3    H132180   2.152   3.336   3.976 -0.2011  1.6651 -1.8274
 3563TIP3    H232181   2.192   3.197   3.933 -0.9770  0.2233  1.9035
 3564TIP3   OH232182   3.802   1.449  11.474 -0.0211 -0.0423 -0.7410
 3564TIP3    H132183   3.827   1.527  11.424  0.0124 -1.0386 -2.3103
 3564TIP3    H232184   3.885   1.410  11.502 -0.0273  0.3070 -0.2347
 3565TIP3   OH232185   0.393   2.318   0.533  0.1445 -0.7793  0.1138
 3565TIP3    H132186   0.487   2.300   0.536  0.1666 -0.7360 -0.3087
 3565TIP3    H232187   0.352   2.232   0.527  0.2200 -0.7321 -1.1826
 3566TIP3   OH232188   4.764   0.118  15.474 -0.0508  0.0662 -0.1488
 3566TIP3    H132189   4.827   0.107  15.545  0.6161  1.2370 -0.5449
 3566TIP3    H232190   4.730   0.207  15.485 -1.7197 -0.5725  0.1123
 3567TIP3   OH232191   1.360   3.043   2.725  0.4255 -0.2729  0.0693
 3567TIP3    H132192   1.268   3.019   2.716  0.2714 -0.0761  1.0722
 3567TIP3    H232193   1.407   2.974   2.679 -0.2874  0.3746 -1.6710
 3568TIP3   OH232194   4.882   5.246   5.183  0.0835  0.3393 -0.2570
 3568TIP3    H132195   4.921   5.324   5.144  0.3864 -0.1979 -1.0389
 3568TIP3    H232196   4.950   5.180   5.178 -0.5386 -0.2822 -0.5954
 3569TIP3   OH232197   0.509   3.807   3.450  0.2250  0.1669  0.1780
 3569TIP3    H132198   0.590   3.838   3.491  0.9818  0.2629 -1.3494
 3569TIP3    H232199   0.506   3.713   3.471  1.3679 -0.0945 -0.7580
 3570TIP3   OH232200   2.898   6.138  16.070 -0.3108 -0.1516 -0.2135
 3570TIP3    H132201   2.868   6.175  16.153  0.8794  0.4512 -0.0392
 3570TIP3    H232202   2.984   6.177  16.057 -1.2688  1.1990 -2.6694
 3571TIP3   OH232203   2.059   1.113  14.183 -0.0823 -0.0189 -0.0695
 3571TIP3    H132204   1.983   1.057  14.197  1.1510 -1.9472 -0.8839
 3571TIP3    H232205   2.124   1.081  14.246 -0.3439  2.4434  1.5181
 3572TIP3   OH232206   5.818   5.497  16.749  0.9058  0.1052 -0.1122
 3572TIP3    H132207   5.791   5.408  16.729  1.5157 -0.6820  2.4007
 3572TIP3    H232208   5.740   5.539  16.785  0.7188  0.5024 -0.9575
 3573TIP3   OH232209   5.690   0.503   4.160 -0.0669  0.1202  0.4974
 3573TIP3    H132210   5.719   0.439   4.225  1.2795 -0.9750 -1.1593
 3573TIP3    H232211   5.595   0.511   4.175 -0.4945 -3.2356 -0.0949
 3574TIP3   OH232212   4.843   0.437   6.850 -0.5463 -0.5784 -0.2223
 3574TIP3    H132213   4.752   0.458   6.868  0.1039  0.2268  2.3316
 3574TIP3    H232214   4.841   0.346   6.819 -2.1476 -0.7449  0.3145
 3575TIP3   OH232215   2.065   2.386   2.168 -0.1808  0.7275  0.5174
 3575TIP3    H132216   2.116   2.441   2.109 -1.4801  0.2403 -1.1291
 3575TIP3    H232217   2.107   2.395   2.253  1.7397  1.4630 -0.4886
 3576TIP3   OH232218   0.593   6.733   2.108  0.0759  0.0413 -0.4581
 3576TIP3    H132219   0.617   6.771   2.192  0.7854 -0.2834 -0.5054
 3576TIP3    H232220   0.674   6.737   2.057 -0.1698 -0.4098 -0.8820
 3577TIP3   OH232221   2.924   3.245   2.639 -0.7698 -0.6467 -0.1355
 3577TIP3    H132222   2.996   3.289   2.594 -0.5749 -1.0727 -0.2445
 3577TIP3    H232223   2.939   3.263   2.732  0.0378 -1.5446 -0.0732
 3578TIP3   OH232224   2.844   1.964   3.684  0.3559  0.4085  0.1237
 3578TIP3    H132225   2.810   2.030   3.746 -1.0162 -0.8306  0.7331
 3578TIP3    H232226   2.885   1.899   3.740  1.3581  0.5438 -0.4547
 3579TIP3   OH232227   2.299   1.760  15.617 -0.3520  0.7758 -0.5221
 3579TIP3    H132228   2.232   1.777  15.683 -0.4973  0.5599 -0.6128
 3579TIP3    H232229   2.251   1.753  15.535 -0.6670 -2.8006 -0.1357
 3580TIP3   OH232230   3.140   0.398   0.821 -0.1351 -0.0104 -0.1346
 3580TIP3    H132231   3.147   0.375   0.728 -2.4967 -0.2689 -0.2738
 3580TIP3    H232232   3.066   0.347   0.853  0.5684  0.1876  1.8713
 3581TIP3   OH232233   3.215   3.909   2.478  0.3404  0.1014  0.0545
 3581TIP3    H132234   3.229   3.833   2.536 -0.9637 -0.5334 -0.4407
 3581TIP3    H232235   3.303   3.931   2.448  0.6311 -2.0128 -0.7736
 3582TIP3   OH232236   3.801   5.264   5.708  0.2827  0.0325 -0.1276
 3582TIP3    H132237   3.796   5.354   5.675 -0.0208 -0.4548 -1.4333
 3582TIP3    H232238   3.860   5.219   5.647  0.2788 -0.7069  0.4074
 3583TIP3   OH232239   0.509   6.018  13.939 -0.6098 -0.0099  0.2780
 3583TIP3    H132240   0.529   6.083  13.872  1.7055 -0.9059  0.0504
 3583TIP3    H232241   0.418   6.035  13.963 -0.3034  2.7640 -0.3680
 3584TIP3   OH232242   2.537   3.553   4.555 -0.3646 -0.5870  0.0798
 3584TIP3    H132243   2.619   3.569   4.601 -0.0067 -1.2226 -0.3307
 3584TIP3    H232244   2.482   3.629   4.576 -0.3897 -1.0904  1.9539
 3585TIP3   OH232245   3.092   0.985  16.824 -0.4253 -0.0690  0.4386
 3585TIP3    H132246   3.131   0.949  16.744 -1.7318 -0.9739  0.1890
 3585TIP3    H232247   3.106   0.918  16.890  1.3260  1.0022  1.1795
 3586TIP3   OH232248   5.765   2.282   2.810 -0.1945 -0.5223  0.6433
 3586TIP3    H132249   5.830   2.256   2.745 -0.3303  1.8543 -0.5082
 3586TIP3    H232250   5.685   2.298   2.760 -0.5791  0.3641  1.4968
 3587TIP3   OH232251   2.249   0.007   2.192 -0.0942  0.3597 -0.0673
 3587TIP3    H132252   2.194  -0.054   2.240  0.8961  0.9388  1.8226
 3587TIP3    H232253   2.285  -0.045   2.120 -0.0940 -1.0033  0.9018
 3588TIP3   OH232254   4.030   3.334   3.971  0.1247 -0.4495  0.1700
 3588TIP3    H132255   4.094   3.397   3.937 -0.4955  0.3919  0.5432
 3588TIP3    H232256   4.078   3.285   4.038  0.3584  0.2431  0.5172
 3589TIP3   OH232257   4.995   3.643  13.909  0.0832  0.4609 -0.9685
 3589TIP3    H132258   4.986   3.738  13.917 -0.4537  0.3342  0.0673
 3589TIP3    H232259   5.081   3.624  13.946 -0.1092  0.4761 -0.5010
 3590TIP3   OH232260   4.310   0.248  12.771  0.2234 -0.5727  0.5304
 3590TIP3    H132261   4.236   0.291  12.727 -0.8538 -1.1406  1.7479
 3590TIP3    H232262   4.280   0.159  12.786  0.8586 -0.5868  1.7368
 3591TIP3   OH232263   0.686   4.752  14.900 -0.4486 -0.3615  0.2272
 3591TIP3    H132264   0.643   4.716  14.822 -0.9432 -0.5541  0.5884
 3591TIP3    H232265   0.662   4.845  14.900  0.0818 -0.2235 -0.2033
 3592TIP3   OH232266   5.000   6.439  11.949 -0.2736 -0.1365  0.2638
 3592TIP3    H132267   4.925   6.412  12.002 -0.5406 -1.5147 -0.8102
 3592TIP3    H232268   4.999   6.381  11.873  2.3428 -0.7238  0.6188
 3593TIP3   OH232269   3.679   1.849  14.785  0.3706 -0.3300  0.1721
 3593TIP3    H132270   3.694   1.777  14.846  0.3704 -0.5985 -0.1432
 3593TIP3    H232271   3.587   1.841  14.760  0.9434 -1.6001 -1.6192
 3594TIP3   OH232272   0.598   4.560   4.821  0.3369 -0.2908 -0.5066
 3594TIP3    H132273   0.590   4.540   4.914  0.2792  1.1347 -0.1913
 3594TIP3    H232274   0.687   4.594   4.811  0.1696  0.0382 -0.8778
 3595TIP3   OH232275   1.862   6.003   0.013  0.7997 -0.1069  0.3199
 3595TIP3    H132276   1.839   5.975  -0.075 -1.2486  1.6796  0.2492
 3595TIP3    H232277   1.834   5.932   0.070  0.9901 -0.7192 -0.3573
 3596TIP3   OH232278   4.849   1.391   3.555 -0.4878  0.0163 -0.3284
 3596TIP3    H132279   4.907   1.464   3.533  0.4459 -0.0246  1.8741
 3596TIP3    H232280   4.904   1.313   3.543 -1.2746 -0.2896 -2.0093
 3597TIP3   OH232281   6.794   5.331   1.305  0.0760  0.1850  0.2964
 3597TIP3    H132282   6.817   5.411   1.352 -0.5495  0.0184  0.8857
 3597TIP3    H232283   6.754   5.275   1.371 -0.3073 -0.2685 -0.3144
 3598TIP3   OH232284   2.500   4.440   0.157  0.3897 -0.1540  0.3907
 3598TIP3    H132285   2.418   4.404   0.193  0.8825 -0.6417  1.0281
 3598TIP3    H232286   2.529   4.503   0.222 -1.6535  3.1474 -1.7529
 3599TIP3   OH232287   0.591   3.408   4.475 -0.4129 -0.3622 -0.5334
 3599TIP3    H132288   0.661   3.469   4.499 -1.3515  0.3512  0.4911
 3599TIP3    H232289   0.599   3.337   4.538  0.1304 -0.8675 -1.1714
 3600TIP3   OH232290   6.551   6.295  14.130  0.6780 -0.2611 -0.0308
 3600TIP3    H132291   6.611   6.359  14.168 -0.3108  1.0423 -0.6300
 3600TIP3    H232292   6.476   6.293  14.190 -0.4131  1.0126 -1.3293
 3601TIP3   OH232293   5.956   2.413  12.590  0.3358  0.3056 -0.2663
 3601TIP3    H132294   5.967   2.363  12.509  1.0023  1.9837 -1.2501
 3601TIP3    H232295   6.017   2.372  12.652  0.1563 -0.7013 -0.7489
 3602TIP3   OH232296   3.649   2.776  12.431  0.1246 -0.0026 -0.6661
 3602TIP3    H132297   3.619   2.691  12.463 -1.3310 -0.5835 -3.3523
 3602TIP3    H232298   3.592   2.839  12.475 -0.6290 -0.6330 -0.7165
 3603TIP3   OH232299   3.562   2.026  13.040 -0.4705  0.0190  0.0521
 3603TIP3    H132300   3.538   1.934  13.032 -0.6406  0.0256  0.5063
 3603TIP3    H232301   3.491   2.073  12.995 -0.7518 -0.0286  0.4428
 3604TIP3   OH232302   3.887   0.177   6.405 -0.0204  0.5638  0.0746
 3604TIP3    H132303   3.940   0.098   6.415 -0.1903  0.3910 -0.3487
 3604TIP3    H232304   3.926   0.240   6.464  0.1513  0.1761  0.3779
 3605TIP3   OH232305   4.567   2.321  16.460 -0.2253 -0.2232  0.2518
 3605TIP3    H132306   4.525   2.356  16.539 -1.5690 -1.5061  0.1219
 3605TIP3    H232307   4.657   2.304  16.487 -0.0370  1.5565  0.8421
 3606TIP3   OH232308   0.199   0.796  14.028 -0.8049  0.1296  0.8717
 3606TIP3    H132309   0.117   0.766  14.067 -2.2660  0.0258 -2.1648
 3606TIP3    H232310   0.243   0.715  14.001 -0.2112  0.2439  1.4949
 3607TIP3   OH232311   4.997   0.588   5.738 -0.3204 -0.1052 -0.7630
 3607TIP3    H132312   5.055   0.661   5.718 -0.0951 -0.1578 -0.3101
 3607TIP3    H232313   5.010   0.526   5.665  1.6323 -0.9915  0.2969
 3608TIP3   OH232314   1.201   0.830  12.648  0.1322 -0.3486  0.9372
 3608TIP3    H132315   1.225   0.894  12.716 -0.0548  0.0992  0.5864
 3608TIP3    H232316   1.106   0.837  12.642  0.1027 -0.7408  0.9741
 3609TIP3   OH232317   5.110   6.810   1.026 -0.2374 -0.4751  0.1998
 3609TIP3    H132318   5.123   6.803   1.121  2.4572  0.0369 -0.0821
 3609TIP3    H232319   5.016   6.825   1.015 -0.4217  0.5582  2.8412
 3610TIP3   OH232320   3.027   1.844   5.402 -0.1134  0.1676  0.0896
 3610TIP3    H132321   3.082   1.838   5.324 -0.2016  0.1016  0.0314
 3610TIP3    H232322   2.995   1.754   5.416 -0.5936  0.2957 -0.1615
 3611TIP3   OH232323   0.233   6.604  13.392  0.1081 -0.5074  0.2014
 3611TIP3    H132324   0.162   6.660  13.423 -0.5523 -2.0988  1.6431
 3611TIP3    H232325   0.312   6.640  13.432  0.2641  1.6693 -1.9313
 3612TIP3   OH232326   0.019   3.173  14.572  0.0903 -0.1654  0.6634
 3612TIP3    H132327   0.020   3.079  14.587  2.3192 -0.2976 -0.1528
 3612TIP3    H232328  -0.071   3.199  14.590 -1.1811 -2.8417 -1.5638
 3613TIP3   OH232329   6.308   1.295  14.659  0.3565  0.4774 -0.0054
 3613TIP3    H132330   6.381   1.246  14.697 -1.2985 -1.2629  0.9744
 3613TIP3    H232331   6.246   1.306  14.731 -2.0693 -1.4014 -1.7280
 3614TIP3   OH232332   0.197   1.937   1.472  0.1739 -0.3714  0.7507
 3614TIP3    H132333   0.265   1.997   1.500  0.4647 -0.9641  1.3278
 3614TIP3    H232334   0.242   1.871   1.419 -0.4734  1.1334 -1.7830
 3615TIP3   OH232335   6.475   6.727  14.931 -0.0856 -0.0255  0.1623
 3615TIP3    H132336   6.490   6.773  14.848 -2.4652 -1.3934 -1.0598
 3615TIP3    H232337   6.556   6.678  14.946  0.3327  0.1601 -1.3899
 3616TIP3   OH232338   4.274   2.009  16.810 -0.3041 -0.0604 -0.1020
 3616TIP3    H132339   4.229   1.981  16.890  0.6406 -0.8918  0.1507
 3616TIP3    H232340   4.349   2.060  16.841  0.5145 -1.0422 -0.4072
 3617TIP3   OH232341   0.240   3.791  17.204 -0.0427  0.4865 -0.0939
 3617TIP3    H132342   0.168   3.823  17.150 -1.9141 -0.0926  1.9835
 3617TIP3    H232343   0.255   3.702  17.174  0.0224  0.7136 -0.7435
 3618TIP3   OH232344   2.326   5.955  15.076 -0.0104 -0.2102 -0.4618
 3618TIP3    H132345   2.361   5.902  15.004  1.3444  0.3316 -0.2013
 3618TIP3    H232346   2.381   5.933  15.151  0.5563  1.5652 -0.3486
 3619TIP3   OH232347   0.081   4.994   1.681  0.2714  0.3663  0.2679
 3619TIP3    H132348   0.157   4.947   1.646  0.6406  0.8984  0.3459
 3619TIP3    H232349   0.032   4.928   1.729  0.9607  0.1325  0.6587
 3620TIP3   OH232350   3.250   0.705   2.208 -0.2866  0.0822 -0.2133
 3620TIP3    H132351   3.295   0.767   2.150 -0.6112  0.2064 -0.3353
 3620TIP3    H232352   3.200   0.760   2.267  1.6793  0.0325  1.5658
 3621TIP3   OH232353   0.979   3.542  15.761 -0.0619 -0.3397  0.1549
 3621TIP3    H132354   1.023   3.479  15.703  0.1567  1.0751 -1.2559
 3621TIP3    H232355   0.890   3.546  15.726 -0.8449 -1.8482  1.8985
 3622TIP3   OH232356   0.151   4.185   4.918 -0.6474  0.6906  0.0068
 3622TIP3    H132357   0.147   4.237   4.998 -2.3747 -0.0340  0.4098
 3622TIP3    H232358   0.064   4.194   4.879 -0.3706 -0.3773 -0.8758
 3623TIP3   OH232359   0.552   6.727  15.692  0.0017 -0.1634 -0.2903
 3623TIP3    H132360   0.533   6.636  15.669 -2.9374 -0.4055  2.6379
 3623TIP3    H232361   0.606   6.722  15.771  0.4198  0.6356 -0.5175
 3624TIP3   OH232362   1.602   1.856  12.437 -0.0316  0.2819 -0.1326
 3624TIP3    H132363   1.522   1.900  12.467 -0.6013 -0.3812 -0.6571
 3624TIP3    H232364   1.585   1.763  12.452  0.0892  0.0224 -1.5161
 3625TIP3   OH232365   0.837   5.066   6.014  0.1235 -0.1764  0.7414
 3625TIP3    H132366   0.744   5.071   5.994 -0.2721  0.0434  2.5593
 3625TIP3    H232367   0.845   4.993   6.075  1.0487  0.1836  1.0626
 3626TIP3   OH232368   3.168   5.261  14.564  0.4427 -0.0876  0.6389
 3626TIP3    H132369   3.174   5.244  14.658 -0.0480 -1.2493  0.4666
 3626TIP3    H232370   3.176   5.356  14.556 -0.4824  0.1081  1.9499
 3627TIP3   OH232371   0.729   2.005  15.366 -0.1371 -0.4005  0.9844
 3627TIP3    H132372   0.814   2.040  15.392  0.0993 -0.6329  0.5407
 3627TIP3    H232373   0.713   1.932  15.426 -0.4457  0.2098  1.6513
 3628TIP3   OH232374   5.726   4.193   4.613  0.5799 -0.0117  0.5609
 3628TIP3    H132375   5.682   4.250   4.676  0.9746  1.2575 -0.3142
 3628TIP3    H232376   5.786   4.250   4.566 -2.0741 -0.2277 -3.2492
 3629TIP3   OH232377   3.001   5.588   2.585  0.4139  0.2095 -0.3520
 3629TIP3    H132378   2.926   5.634   2.624  1.0602  1.1878 -0.2520
 3629TIP3    H232379   3.046   5.655   2.534  1.3746 -0.3187 -0.2118
 3630TIP3   OH232380   2.906   4.605   3.706  0.3835 -0.7592  0.3965
 3630TIP3    H132381   2.971   4.557   3.756 -0.3551 -1.1708  0.9662
 3630TIP3    H232382   2.831   4.546   3.700  0.1098 -0.3445 -0.3672
 3631TIP3   OH232383   5.719   4.297  14.331  0.0048 -0.0014  0.3099
 3631TIP3    H132384   5.778   4.223  14.350  1.1131  0.8692  0.3351
 3631TIP3    H232385   5.653   4.293  14.400  0.7184 -0.2854  0.9919
 3632TIP3   OH232386   2.622   3.816  15.071  0.7738 -0.2486  0.0979
 3632TIP3    H132387   2.527   3.818  15.083  0.7323  1.0549 -0.3273
 3632TIP3    H232388   2.645   3.723  15.074 -0.4173 -0.5339  0.9392
 3633TIP3   OH232389   4.430   1.634   0.393 -0.1532 -0.4593  0.4580
 3633TIP3    H132390   4.442   1.539   0.392 -0.2673 -0.4693 -0.5179
 3633TIP3    H232391   4.519   1.669   0.394 -0.1076 -0.5700  1.9794
 3634TIP3   OH232392   3.386   4.387   2.005 -0.3301 -0.1757  0.4868
 3634TIP3    H132393   3.341   4.383   2.089 -2.6924 -0.3560 -0.7371
 3634TIP3    H232394   3.435   4.469   2.008  0.6178 -0.7902  2.5111
 3635TIP3   OH232395   6.803   4.669   2.529  0.1359  0.1156  0.1816
 3635TIP3    H132396   6.827   4.687   2.619  1.8198 -2.4013  0.2839
 3635TIP3    H232397   6.794   4.755   2.488 -0.0445  1.2518  2.5751
 3636TIP3   OH232398   1.100   4.485   2.696  0.1745 -0.5110 -0.2010
 3636TIP3    H132399   1.157   4.506   2.622  1.7907 -0.6058  0.9933
 3636TIP3    H232400   1.136   4.536   2.769 -2.7175  1.3328  0.0466
 3637TIP3   OH232401   6.188   4.572  10.662 -0.0129  0.7853  0.1733
 3637TIP3    H132402   6.222   4.507  10.723 -1.2690 -0.2560 -0.2066
 3637TIP3    H232403   6.226   4.655  10.691  1.8729 -0.1512  0.4654
 3638TIP3   OH232404   6.012   0.144  11.738 -0.6084  0.5069  0.3258
 3638TIP3    H132405   6.017   0.149  11.833 -0.3492 -2.0349  0.4756
 3638TIP3    H232406   6.061   0.065  11.715 -1.5610  0.5009 -1.8444
 3639TIP3   OH232407   1.742   3.411  12.778  0.1205 -0.2232 -0.0147
 3639TIP3    H132408   1.793   3.345  12.730 -0.8753 -1.7617  1.0000
 3639TIP3    H232409   1.717   3.475  12.711  2.7525  0.1891 -0.6721
 3640TIP3   OH232410   1.928   6.216   1.471 -0.0117 -0.4929 -0.8404
 3640TIP3    H132411   1.918   6.132   1.515 -1.9867  0.7334  1.1048
 3640TIP3    H232412   1.952   6.278   1.540  0.5340  0.7346 -2.0921
 3641TIP3   OH232413   0.168   5.995  13.068  0.0515  0.0094  0.1974
 3641TIP3    H132414   0.141   6.039  13.149 -0.6269  0.1107 -0.0843
 3641TIP3    H232415   0.093   5.942  13.042  0.4802 -0.4843 -0.0487
 3642TIP3   OH232416   6.599   0.612  16.061 -0.2497 -0.7745  0.3113
 3642TIP3    H132417   6.582   0.579  16.149 -1.4392 -1.3082 -0.1118
 3642TIP3    H232418   6.692   0.592  16.045 -0.1356 -1.0330  1.2823
 3643TIP3   OH232419   0.596   2.144   3.408 -0.2382  0.0150  0.4726
 3643TIP3    H132420   0.533   2.202   3.449 -0.9064  0.4851 -1.1847
 3643TIP3    H232421   0.678   2.193   3.409  0.3148 -0.8926  3.3064
 3644TIP3   OH232422   1.245   0.589   2.130 -0.1951 -0.5124  0.2774
 3644TIP3    H132423   1.194   0.645   2.071 -0.5980 -1.7020 -0.5250
 3644TIP3    H232424   1.315   0.554   2.075  1.0766  0.5527  1.2053
 3645TIP3   OH232425   5.855   4.856   4.992  0.2748 -0.4140  0.4106
 3645TIP3    H132426   5.836   4.943   4.956  1.6107  1.1329  3.2147
 3645TIP3    H232427   5.769   4.820   5.014 -0.1907  1.5390  2.0422
 3646TIP3   OH232428   4.054   0.748  14.665  0.5988  0.4302  0.2162
 3646TIP3    H132429   4.054   0.658  14.698  2.5895  0.0664 -0.7181
 3646TIP3    H232430   4.000   0.744  14.586  2.0868 -0.3278 -0.7781
 3647TIP3   OH232431   5.714   2.838  12.910  0.1558 -0.2970 -0.1881
 3647TIP3    H132432   5.803   2.871  12.919  0.1983 -0.2325 -0.8589
 3647TIP3    H232433   5.659   2.917  12.909 -0.1400 -0.3991  2.6809
 3648TIP3   OH232434   1.021   2.915   2.919  0.4746  0.2622  0.2709
 3648TIP3    H132435   0.992   2.825   2.932  1.1884  0.1702  1.2623
 3648TIP3    H232436   0.955   2.968   2.963  0.3109  0.2036  0.0985
 3649TIP3   OH232437   2.020   1.469  15.077  0.1249  0.6078  0.3093
 3649TIP3    H132438   1.950   1.533  15.088  0.9784  1.8653 -1.2448
 3649TIP3    H232439   2.092   1.520  15.039  1.5581 -0.8488  1.0062
 3650TIP3   OH232440   3.206   5.676   6.178 -0.3947 -0.0398  0.3331
 3650TIP3    H132441   3.283   5.665   6.122  0.4440 -0.9525  1.6273
 3650TIP3    H232442   3.233   5.641   6.263 -0.6606  3.9212  2.1563
 3651TIP3   OH232443   5.464   2.223   4.616  0.1184 -0.4105  0.0112
 3651TIP3    H132444   5.393   2.174   4.657 -0.0533 -0.6031 -0.5198
 3651TIP3    H232445   5.516   2.255   4.690 -1.9123  1.8646  0.5101
 3652TIP3   OH232446   1.089   6.818  14.872 -0.0712 -0.6878 -0.7842
 3652TIP3    H132447   1.042   6.804  14.790  0.6541 -0.1514 -1.2909
 3652TIP3    H232448   1.020   6.844  14.934 -0.5859 -0.8821 -1.2695
 3653TIP3   OH232449   1.403   5.577   2.804 -0.0047  0.2391  0.2559
 3653TIP3    H132450   1.395   5.627   2.885  0.9476 -0.6136  0.8820
 3653TIP3    H232451   1.391   5.642   2.735 -2.6282  0.6583  1.0695
 3654TIP3   OH232452   5.177   3.307   0.174 -0.6128  0.3544 -0.1994
 3654TIP3    H132453   5.267   3.337   0.164 -0.4461  0.7595  2.0682
 3654TIP3    H232454   5.124   3.380   0.141 -0.1353  1.3460  1.1659
 3655TIP3   OH232455   5.970   3.494  12.207 -0.2862 -0.2094 -0.1246
 3655TIP3    H132456   5.943   3.513  12.117 -0.3759  3.2868  0.5781
 3655TIP3    H232457   5.907   3.429  12.237 -1.5597  0.1540 -1.9307
 3656TIP3   OH232458   3.915   3.145  16.509  0.0343  0.1908  0.3899
 3656TIP3    H132459   3.952   3.222  16.467  0.3740 -0.5886 -0.7481
 3656TIP3    H232460   3.823   3.145  16.483  0.8324 -1.7931 -2.6619
 3657TIP3   OH232461   6.412   5.190  11.631 -0.6030  0.5016  0.0586
 3657TIP3    H132462   6.507   5.198  11.641 -0.4808 -0.0184 -0.5838
 3657TIP3    H232463   6.393   5.101  11.660 -0.9394  0.7002  0.4533
 3658TIP3   OH232464   1.448   6.636  15.663 -0.0623 -0.4378 -0.0251
 3658TIP3    H132465   1.517   6.689  15.703 -0.7539  0.3558  0.1222
 3658TIP3    H232466   1.419   6.688  15.588 -0.5762 -0.7244 -0.0243
 3659TIP3   OH232467   3.743   3.546  15.299 -0.2487 -0.1514  0.4422
 3659TIP3    H132468   3.746   3.640  15.315  1.7353  0.1093 -1.1513
 3659TIP3    H232469   3.712   3.538  15.208 -1.3837 -1.0939  0.8950
 3660TIP3   OH232470   0.781   1.052  10.847 -0.4572 -0.4662  0.1803
 3660TIP3    H132471   0.786   1.126  10.787  1.7517 -0.5391  0.2418
 3660TIP3    H232472   0.814   0.977  10.797 -0.4289 -0.9294  0.8800
 3661TIP3   OH232473   2.428   2.724   2.393 -0.0597 -0.2012  0.6210
 3661TIP3    H132474   2.465   2.642   2.423 -1.0992 -0.2075  1.9273
 3661TIP3    H232475   2.393   2.705   2.306  0.5141 -0.8933  0.5422
 3662TIP3   OH232476   3.238   5.873  13.294  0.0630 -0.1445 -0.2016
 3662TIP3    H132477   3.207   5.928  13.223 -0.0640  0.0287 -0.0123
 3662TIP3    H232478   3.173   5.803  13.301 -0.7244  0.6753  0.7394
 3663TIP3   OH232479   4.956   3.193   3.997  0.4560  0.0519 -0.2871
 3663TIP3    H132480   5.042   3.215   3.961  0.0359  0.4641 -1.0620
 3663TIP3    H232481   4.973   3.123   4.059  1.4629  0.7003  0.1773
 3664TIP3   OH232482   5.598   4.194  11.359  0.1279 -0.5407 -0.0518
 3664TIP3    H132483   5.597   4.098  11.365 -0.0699 -0.5510 -0.2433
 3664TIP3    H232484   5.598   4.212  11.265  0.1975 -0.3519 -0.0155
 3665TIP3   OH232485   3.127   2.299   0.889  0.6591 -0.1325 -0.2641
 3665TIP3    H132486   3.105   2.356   0.963  1.8814  0.4419 -0.3328
 3665TIP3    H232487   3.135   2.212   0.927 -1.6137 -0.3571 -0.2215
 3666TIP3   OH232488   0.754   1.074  15.102 -0.2274 -0.2819 -0.0813
 3666TIP3    H132489   0.672   1.108  15.140 -0.4164 -0.3643 -0.4132
 3666TIP3    H232490   0.813   1.149  15.103  0.0935 -0.5469  1.3117
 3667TIP3   OH232491   2.302   3.128   2.667 -0.1374  0.3947  0.1704
 3667TIP3    H132492   2.279   3.221   2.664  0.6105  0.5792  0.0722
 3667TIP3    H232493   2.380   3.121   2.612 -0.0076 -0.2348  0.4302
 3668TIP3   OH232494   3.662   1.118  16.072  0.1189 -0.6592  0.0962
 3668TIP3    H132495   3.727   1.188  16.068 -0.4218 -0.0630  1.3818
 3668TIP3    H232496   3.707   1.047  16.119  0.1638 -0.6109  0.1252
 3669TIP3   OH232497   4.615   6.557   3.141 -0.1555  0.1671  0.3294
 3669TIP3    H132498   4.667   6.477   3.148 -1.4356 -0.4940  2.7525
 3669TIP3    H232499   4.526   6.531   3.163 -0.6466  2.1947  0.9088
 3670TIP3   OH232500   3.738   1.633   2.909 -0.1893  0.5394 -0.3955
 3670TIP3    H132501   3.736   1.539   2.930 -1.2855  0.1954 -1.8941
 3670TIP3    H232502   3.647   1.655   2.889  0.2582  1.5929 -1.3677
 3671TIP3   OH232503   3.488   6.504   4.830 -0.2787  0.2732  0.3564
 3671TIP3    H132504   3.582   6.520   4.832 -0.5336  2.0714 -0.9708
 3671TIP3    H232505   3.448   6.591   4.829 -1.8703 -0.4247 -1.6987
 3672TIP3   OH232506   1.542   4.055   2.276  0.0263  0.1510  0.1852
 3672TIP3    H132507   1.545   3.959   2.269  1.8057  0.2523 -0.7833
 3672TIP3    H232508   1.451   4.075   2.297 -1.0681 -1.5832 -2.6263
 3673TIP3   OH232509   5.367   3.842   3.605 -0.0762 -0.2139  0.1638
 3673TIP3    H132510   5.329   3.929   3.619  0.3609 -0.0587  0.4025
 3673TIP3    H232511   5.375   3.805   3.693 -0.3803 -0.5451  0.0503
 3674TIP3   OH232512   4.992   4.478   4.778  0.6263 -0.0764  0.5619
 3674TIP3    H132513   5.044   4.557   4.777  0.5652 -0.0303  0.8427
 3674TIP3    H232514   5.000   4.442   4.690  2.5018 -0.9693  1.0642
 3675TIP3   OH232515   3.578   6.055  11.849 -0.0653  0.3244 -0.1484
 3675TIP3    H132516   3.668   6.064  11.882 -0.3254 -0.0177  0.6737
 3675TIP3    H232517   3.588   6.053  11.754  0.8423 -0.2028 -0.0494
 3676TIP3   OH232518   6.694   5.531   4.680 -0.3192 -0.9159  0.0660
 3676TIP3    H132519   6.666   5.621   4.661 -1.1172 -1.3533 -0.8584
 3676TIP3    H232520   6.772   5.520   4.625 -0.7878 -1.1118 -0.5666
 3677TIP3   OH232521   6.764   3.517   3.845 -0.1807 -0.0737 -0.1982
 3677TIP3    H132522   6.741   3.452   3.911 -0.7931 -0.8970 -1.2043
 3677TIP3    H232523   6.775   3.467   3.764 -1.9342  1.2260 -1.2778
 3678TIP3   OH232524   2.055   4.608   5.273 -0.0234 -0.4879  0.2343
 3678TIP3    H132525   1.970   4.651   5.276  0.9812  1.4975  2.7679
 3678TIP3    H232526   2.111   4.670   5.226  0.2579 -1.3341 -0.5575
 3679TIP3   OH232527   6.117   1.367   2.354 -0.2861 -0.1074 -0.2187
 3679TIP3    H132528   6.053   1.418   2.305 -0.4192 -1.0298 -1.0056
 3679TIP3    H232529   6.189   1.351   2.292  0.3580  0.2564  0.4201
 3680TIP3   OH232530   2.825   0.951  14.162 -0.1231  0.1421  0.0907
 3680TIP3    H132531   2.912   0.922  14.189 -0.4638  0.2000  1.2370
 3680TIP3    H232532   2.840   1.038  14.125  0.3205  0.0995  0.1679
 3681TIP3   OH232533   5.902   6.784  11.343 -0.0839  0.2568  0.2429
 3681TIP3    H132534   5.931   6.796  11.253 -0.5915  1.8133  0.2613
 3681TIP3    H232535   5.869   6.870  11.368 -0.0505 -0.1983  1.8781
 3682TIP3   OH232536   5.980   1.147  13.304 -0.1816 -0.1577 -0.0930
 3682TIP3    H132537   6.007   1.088  13.234  1.2493  0.4162 -0.0478
 3682TIP3    H232538   6.017   1.108  13.384 -1.6399 -0.7072  0.3366
 3683TIP3   OH232539   4.449   0.036  12.585  0.3540  0.2018 -0.0187
 3683TIP3    H132540   4.462  -0.033  12.521  1.5392 -0.0016  0.4432
 3683TIP3    H232541   4.361   0.070  12.565  0.7719  0.2687 -1.8564
 3684TIP3   OH232542   2.552   1.785  16.484  0.0636 -0.0695 -0.0579
 3684TIP3    H132543   2.546   1.694  16.512  0.2192 -0.0607  0.0070
 3684TIP3    H232544   2.494   1.833  16.544 -1.6506 -0.4158 -1.4026
 3685TIP3   OH232545   6.031   6.437  15.358  0.2907  0.1460 -0.3215
 3685TIP3    H132546   6.121   6.460  15.334  1.3577 -0.6706  2.6723
 3685TIP3    H232547   5.985   6.521  15.359  1.9281  1.0922  1.5747
 3686TIP3   OH232548   1.291   1.890   3.244 -0.0160 -0.1729 -0.4698
 3686TIP3    H132549   1.288   1.865   3.337 -0.4589 -1.6586 -0.8597
 3686TIP3    H232550   1.382   1.874   3.218  0.0767  0.1185 -0.3293
 3687TIP3   OH232551   2.005   6.757   3.290 -0.1348 -0.3672  0.1163
 3687TIP3    H132552   1.986   6.839   3.335 -0.2123  0.3426 -1.1833
 3687TIP3    H232553   2.092   6.733   3.319  0.6500  1.1643 -0.9141
 3688TIP3   OH232554   4.063   3.507  13.959  0.0377  0.0788  0.3264
 3688TIP3    H132555   3.971   3.510  13.985 -0.2487 -0.9538 -0.5297
 3688TIP3    H232556   4.104   3.452  14.026 -0.2843 -0.7780 -0.1658
 3689TIP3   OH232557   0.271   0.788  11.036  0.5420  0.8092  0.0767
 3689TIP3    H132558   0.347   0.802  10.980  0.8791  2.0458  0.8174
 3689TIP3    H232559   0.230   0.874  11.043  0.6472  0.7413  1.9087
 3690TIP3   OH232560   3.608   5.821   0.236 -0.2777 -0.1313 -0.1718
 3690TIP3    H132561   3.625   5.847   0.327 -0.0674 -0.1855 -0.1946
 3690TIP3    H232562   3.585   5.902   0.191 -0.5484 -0.1304 -0.0305
 3691TIP3   OH232563   6.010   3.062  14.755 -0.1442 -0.9605  0.4348
 3691TIP3    H132564   6.002   2.967  14.763 -0.4502 -0.8060  2.0896
 3691TIP3    H232565   5.919   3.093  14.751 -0.0348 -0.8167 -1.2380
 3692TIP3   OH232566   4.639   0.744  14.360  0.0383  0.2456  0.2671
 3692TIP3    H132567   4.548   0.751  14.390 -0.4864 -0.5356 -1.0877
 3692TIP3    H232568   4.656   0.650  14.359  0.1200  0.2645 -1.6094
 3693TIP3   OH232569   4.562   2.813  13.695 -0.2103  0.2182 -0.4280
 3693TIP3    H132570   4.591   2.722  13.687 -0.1495  0.3071 -1.1787
 3693TIP3    H232571   4.489   2.808  13.757  1.3307 -0.0081  1.4358
 3694TIP3   OH232572   2.616   2.169   5.957  0.3462 -0.1985 -0.2967
 3694TIP3    H132573   2.686   2.144   5.896 -0.5401  1.3960 -2.0164
 3694TIP3    H232574   2.586   2.086   5.994  0.6110 -1.2509 -2.3677
 3695TIP3   OH232575   0.901   5.502   4.365  0.1452  0.1104  0.2934
 3695TIP3    H132576   0.942   5.417   4.377  2.2287  1.0083 -0.2131
 3695TIP3    H232577   0.926   5.551   4.444  1.1914  1.0966 -0.6302
 3696TIP3   OH232578   6.631   2.704  14.452  0.7367 -0.3375  0.0202
 3696TIP3    H132579   6.702   2.741  14.504  0.7713 -0.9518  0.4102
 3696TIP3    H232580   6.562   2.684  14.516 -0.0600  0.8911 -0.4336
 3697TIP3   OH232581   1.525   3.251   0.556  0.1993  0.2126 -0.0909
 3697TIP3    H132582   1.444   3.235   0.604 -0.2857 -0.5812 -1.1467
 3697TIP3    H232583   1.530   3.346   0.548 -0.9303  0.2470 -0.5060
 3698TIP3   OH232584   4.597   2.472  14.660  0.3873  0.0267 -0.2662
 3698TIP3    H132585   4.641   2.415  14.597  0.7474 -1.1062  0.9847
 3698TIP3    H232586   4.628   2.442  14.745  0.7703  2.2585  0.4179
 3699TIP3   OH232587   1.821   3.031  16.185 -0.2087 -0.5699  0.0038
 3699TIP3    H132588   1.732   3.062  16.170  0.2711  0.9966  0.3067
 3699TIP3    H232589   1.875   3.109  16.176  1.0726 -1.3945  0.4404
 3700TIP3   OH232590   2.934   2.512   1.988  0.2701 -0.3770  0.6218
 3700TIP3    H132591   2.944   2.528   2.082 -0.4143  0.3088  0.5880
 3700TIP3    H232592   2.890   2.428   1.983 -1.5230  0.5088  0.9843
 3701TIP3   OH232593   3.566   3.402  16.314  0.0182 -0.5803  0.1499
 3701TIP3    H132594   3.606   3.361  16.391 -0.2955  0.1173  0.6747
 3701TIP3    H232595   3.638   3.406  16.250 -0.2862 -3.2837 -0.4455
 3702TIP3   OH232596   5.272   4.558   4.169 -0.0515 -0.2927 -0.2815
 3702TIP3    H132597   5.258   4.629   4.233 -2.1699  1.5764 -2.7061
 3702TIP3    H232598   5.366   4.542   4.172  0.1264  0.8772  2.1330
 3703TIP3   OH232599   5.305   4.091  13.047 -0.5094  0.3453 -0.7149
 3703TIP3    H132600   5.320   4.182  13.073  0.6608  0.5758 -2.1516
 3703TIP3    H232601   5.382   4.043  13.079 -0.9045 -0.0737 -0.3702
 3704TIP3   OH232602   4.087   6.249   0.674 -0.0507 -0.2652  0.3136
 3704TIP3    H132603   4.037   6.179   0.632  0.6707  0.8896 -2.5797
 3704TIP3    H232604   4.174   6.242   0.635  1.2497 -0.3922  3.1273
 3705TIP3   OH232605   1.714   5.225   2.061  0.6967  0.5236 -0.1865
 3705TIP3    H132606   1.803   5.232   2.027  0.2948  0.1282 -1.3123
 3705TIP3    H232607   1.658   5.253   1.989 -0.2517 -1.9176 -0.4455
 3706TIP3   OH232608   5.894   1.119  11.784  0.0777 -0.3081  0.2044
 3706TIP3    H132609   5.799   1.112  11.790 -0.0378  0.3902 -0.6307
 3706TIP3    H232610   5.911   1.213  11.776  0.8813 -0.3708  1.0617
 3707TIP3   OH232611   5.506   3.834   1.496 -0.3025 -0.3930 -0.2325
 3707TIP3    H132612   5.523   3.863   1.407  1.9228 -0.9294 -0.0067
 3707TIP3    H232613   5.578   3.871   1.548 -0.6379 -1.4692  1.0412
 3708TIP3   OH232614   4.030   6.319  12.371  1.0081 -0.3300  0.2339
 3708TIP3    H132615   3.998   6.322  12.280  1.3241  2.7492  0.1778
 3708TIP3    H232616   3.992   6.239  12.407  0.1474 -1.1323 -2.3517
 3709TIP3   OH232617   5.116   2.196  12.399  0.3237 -0.2997  0.1345
 3709TIP3    H132618   5.144   2.142  12.473  0.5154  0.9581  1.0001
 3709TIP3    H232619   5.020   2.191  12.401  0.3453 -0.7014  0.1442
 3710TIP3   OH232620   2.152   0.951   2.929 -0.0838 -0.0768 -0.0711
 3710TIP3    H132621   2.229   0.930   2.981  1.0119  1.1990 -1.1739
 3710TIP3    H232622   2.118   0.865   2.902  0.0325 -0.7055  1.6768
 3711TIP3   OH232623   4.113   4.930  14.382 -0.1240  0.1789 -0.2139
 3711TIP3    H132624   4.050   4.913  14.311 -1.2943  0.7315  0.6763
 3711TIP3    H232625   4.129   4.844  14.420  1.3357 -0.2860 -1.8163
 3712TIP3   OH232626   4.709   1.815  16.332 -0.2175  0.1295 -0.1564
 3712TIP3    H132627   4.640   1.788  16.392 -0.2714  0.3239 -0.1316
 3712TIP3    H232628   4.707   1.751  16.261  1.0234 -1.1650  0.9405
 3713TIP3   OH232629   6.375   0.323  11.961  0.4981 -0.2912 -0.3272
 3713TIP3    H132630   6.295   0.354  12.003  0.9425  1.4831 -0.7606
 3713TIP3    H232631   6.348   0.246  11.910 -0.7035 -0.3483  0.3907
 3714TIP3   OH232632   6.538   4.295   2.942 -0.2973  0.0662 -0.3892
 3714TIP3    H132633   6.454   4.296   2.987 -0.3174 -0.2400 -0.4172
 3714TIP3    H232634   6.525   4.352   2.866  0.1877  1.7546  0.7888
 3715TIP3   OH232635   2.630   1.982   5.301  0.4411 -0.6540 -0.0218
 3715TIP3    H132636   2.607   2.056   5.357  1.3594 -0.4613  0.1185
 3715TIP3    H232637   2.692   2.018   5.238  0.5360 -1.1974 -0.2398
 3716TIP3   OH232638   2.204   5.700   5.085 -0.0361 -0.2658 -0.2754
 3716TIP3    H132639   2.242   5.721   5.171 -2.1708 -0.6764  0.8075
 3716TIP3    H232640   2.269   5.644   5.043  2.5308  2.5955 -0.2954
 3717TIP3   OH232641   6.777   0.595   4.305  0.2413 -0.3232 -0.6642
 3717TIP3    H132642   6.821   0.625   4.225  0.7515 -1.6273 -0.8848
 3717TIP3    H232643   6.710   0.533   4.273 -2.4693  2.3616 -0.4332
 3718TIP3   OH232644   2.540   6.759  13.742 -0.3828  0.4306 -0.3644
 3718TIP3    H132645   2.478   6.722  13.679 -0.5837 -1.6673  1.0286
 3718TIP3    H232646   2.604   6.805  13.687 -0.4860 -1.4481 -2.1571
 3719TIP3   OH232647   4.447   0.919  16.116  0.3743 -0.6056 -0.1733
 3719TIP3    H132648   4.487   0.831  16.116 -1.1304 -1.3462  1.8518
 3719TIP3    H232649   4.356   0.903  16.141  0.6205  1.7049  2.4890
 3720TIP3   OH232650   2.483   3.348  14.895  0.2133 -0.0730  0.2473
 3720TIP3    H132651   2.436   3.328  14.976 -0.4907 -0.9449 -0.3648
 3720TIP3    H232652   2.545   3.416  14.920 -0.7092  0.4099  1.2914
 3721TIP3   OH232653   1.270   2.615   2.802  0.0877  0.3708 -0.1966
 3721TIP3    H132654   1.183   2.631   2.767  0.3367  0.5328 -0.7553
 3721TIP3    H232655   1.259   2.617   2.897 -0.0553  3.0298 -0.2197
 3722TIP3   OH232656   2.479   0.023   4.859  0.6164  0.1708  0.5271
 3722TIP3    H132657   2.408  -0.015   4.807  0.2332  0.3785  0.8952
 3722TIP3    H232658   2.493  -0.040   4.930  0.7987  0.1307  0.4547
 3723TIP3   OH232659   0.603   1.354  16.348  0.3879 -0.0815 -0.0932
 3723TIP3    H132660   0.644   1.272  16.378 -1.5802 -1.0987 -0.1243
 3723TIP3    H232661   0.509   1.336  16.349 -0.1038  2.3514  0.3421
 3724TIP3   OH232662   2.990   5.192   2.500  0.5354 -0.2162  0.3490
 3724TIP3    H132663   2.940   5.219   2.578 -1.2718  1.2957 -1.2811
 3724TIP3    H232664   3.005   5.098   2.512 -1.2742 -0.3635  1.6724
 3725TIP3   OH232665   1.902   6.113   3.323  0.2285 -0.3956 -0.0455
 3725TIP3    H132666   1.988   6.086   3.291  0.7690  0.9603  0.2042
 3725TIP3    H232667   1.922   6.173   3.396 -0.8855  1.6680 -1.4081
 3726TIP3   OH232668   3.516   1.126  17.058  0.0819  0.1847 -0.4712
 3726TIP3    H132669   3.467   1.069  17.116  0.5093  0.1075 -0.1813
 3726TIP3    H232670   3.540   1.071  16.983  1.4684 -0.3146  0.3405
 3727TIP3   OH232671   5.435   3.200   5.657  0.2428  0.6593  0.3269
 3727TIP3    H132672   5.485   3.207   5.575  1.8023 -0.9224  1.1043
 3727TIP3    H232673   5.369   3.133   5.638 -1.4021  2.5072 -0.5937
 3728TIP3   OH232674   2.103   2.097  16.632 -0.5826 -0.1331  0.4599
 3728TIP3    H132675   2.026   2.048  16.602  0.9368 -1.9898 -0.5719
 3728TIP3    H232676   2.129   2.054  16.713  0.2419 -0.4958  0.0123
 3729TIP3   OH232677   4.359   2.830   0.440 -0.4874  0.8068  0.3882
 3729TIP3    H132678   4.393   2.856   0.354 -0.2994  1.3134  0.6145
 3729TIP3    H232679   4.356   2.911   0.491 -1.2436  0.6202  0.6441
 3730TIP3   OH232680   3.578   4.079   0.133 -0.0367 -0.4148  0.4486
 3730TIP3    H132681   3.516   4.075   0.206 -0.7670 -2.5352 -0.2509
 3730TIP3    H232682   3.590   3.988   0.106  2.0285  0.1256 -0.5800
 3731TIP3   OH232683   0.032   4.595   2.930 -0.4163 -0.7604  0.1087
 3731TIP3    H132684   0.077   4.618   3.011  1.3625 -1.2077 -0.7489
 3731TIP3    H232685   0.017   4.501   2.937  1.7385 -1.2103 -1.0528
 3732TIP3   OH232686   4.176   4.788  13.733 -0.0779  0.1236  0.1164
 3732TIP3    H132687   4.111   4.726  13.765  0.8061  0.4310  2.6004
 3732TIP3    H232688   4.260   4.754  13.763  0.6905  1.0743 -0.8651
 3733TIP3   OH232689   3.493   4.486  12.378 -0.0008  0.4411  0.1237
 3733TIP3    H132690   3.565   4.442  12.333 -1.9398 -0.5598 -2.1107
 3733TIP3    H232691   3.530   4.512  12.463  3.0674  0.3080 -1.1099
 3734TIP3   OH232692   1.845   6.036   2.119 -0.3920 -0.1813 -0.0290
 3734TIP3    H132693   1.753   6.038   2.092 -1.0631 -0.0125  2.1749
 3734TIP3    H232694   1.848   5.969   2.188  1.0070  0.2394  0.3287
 3735TIP3   OH232695   2.185   0.449   4.290 -0.0267 -0.0200  0.0748
 3735TIP3    H132696   2.274   0.415   4.283 -0.2650 -0.8248  0.9522
 3735TIP3    H232697   2.169   0.490   4.205  0.9326 -0.4682 -0.3312
 3736TIP3   OH232698   5.869   1.212   0.082 -0.1495 -0.9550 -0.1765
 3736TIP3    H132699   5.784   1.216   0.038 -0.9458 -0.0694  1.3943
 3736TIP3    H232700   5.868   1.128   0.128  0.5556 -1.7389 -1.5675
 3737TIP3   OH232701   5.001   4.872   1.912  0.0277  0.0574 -0.1279
 3737TIP3    H132702   5.052   4.880   1.831  0.6520 -2.4400 -0.0321
 3737TIP3    H232703   5.060   4.904   1.980 -0.0427  1.0125 -0.5127
 3738TIP3   OH232704   5.711   2.693   2.145  0.2233 -0.0922 -0.0185
 3738TIP3    H132705   5.619   2.688   2.170  0.0141  2.7943 -0.0879
 3738TIP3    H232706   5.758   2.666   2.224 -0.6253  2.3535  1.3836
 3739TIP3   OH232707   2.405   2.329  11.286 -0.4766 -0.7295  0.3398
 3739TIP3    H132708   2.466   2.402  11.281 -0.8923 -0.4535 -0.8718
 3739TIP3    H232709   2.460   2.251  11.286 -0.0090 -0.4271  2.0141
 3740TIP3   OH232710   2.139   4.067   4.733  0.1875  0.0883  0.3460
 3740TIP3    H132711   2.067   4.014   4.699  1.1953 -0.9980 -0.1389
 3740TIP3    H232712   2.142   4.047   4.826  1.2317 -1.5619 -0.0138
 3741TIP3   OH232713   2.345   3.325  15.131 -0.2843 -0.7532 -0.2394
 3741TIP3    H132714   2.280   3.343  15.199  0.2865  2.5165 -0.4722
 3741TIP3    H232715   2.379   3.238  15.153 -1.7733 -0.7456  2.2822
 3742TIP3   OH232716   4.136   0.278  15.565  0.3605  0.4985  0.1463
 3742TIP3    H132717   4.115   0.367  15.592  1.2995  0.7338  0.1308
 3742TIP3    H232718   4.103   0.272  15.475 -0.0635  0.6965  0.2890
 3743TIP3   OH232719   3.922   0.318  16.300  0.7696 -0.2093  0.3908
 3743TIP3    H132720   3.870   0.238  16.296  1.7874 -0.7997 -1.4812
 3743TIP3    H232721   4.006   0.294  16.261  1.3150  1.5941  0.4277
 3744TIP3   OH232722   1.059   3.849  17.208 -0.0754 -0.2686  0.0223
 3744TIP3    H132723   1.046   3.760  17.241  0.8271 -0.9674 -1.4435
 3744TIP3    H232724   1.104   3.895  17.279 -0.2039 -1.0849  0.6426
 3745TIP3   OH232725   4.682   3.480   4.617  0.1299  0.5806 -0.0467
 3745TIP3    H132726   4.625   3.533   4.562 -2.1398 -2.2788 -0.6008
 3745TIP3    H232727   4.642   3.483   4.704  0.5776  0.6046  0.1620
 3746TIP3   OH232728   0.266   6.596  16.967 -0.0831 -0.7303  0.0357
 3746TIP3    H132729   0.289   6.505  16.981  1.1525 -0.8090 -2.1151
 3746TIP3    H232730   0.259   6.605  16.872  1.6000  1.7865  0.0781
 3747TIP3   OH232731   0.829   5.575   2.206 -0.4297  0.3844 -0.0842
 3747TIP3    H132732   0.776   5.580   2.127 -1.5557  0.6404  0.6805
 3747TIP3    H232733   0.808   5.490   2.244  0.9872 -0.2436 -0.6614
 3748TIP3   OH232734   4.146   0.663  13.771 -0.2955  0.4514  0.1907
 3748TIP3    H132735   4.186   0.643  13.686 -1.4685 -0.5581 -0.1442
 3748TIP3    H232736   4.159   0.583  13.823 -2.2062 -0.0404 -0.0623
 3749TIP3   OH232737   2.842   6.420  15.594  0.0279 -0.5764  0.2461
 3749TIP3    H132738   2.865   6.497  15.646  0.9093  0.2762 -1.3861
 3749TIP3    H232739   2.750   6.434  15.570  0.3497  0.2631 -0.5304
 3750TIP3   OH232740   3.508   1.652  14.750 -0.1074  0.6155  0.5958
 3750TIP3    H132741   3.443   1.615  14.809  1.7383 -1.3716  1.4809
 3750TIP3    H232742   3.517   1.588  14.680  2.0144  0.0680  1.3243
 3751TIP3   OH232743   3.260   6.411   3.293 -0.1483 -0.6773  0.2161
 3751TIP3    H132744   3.347   6.371   3.282  1.0481  1.3453  1.9476
 3751TIP3    H232745   3.275   6.484   3.352 -2.5163  1.5583 -1.8355
 3752TIP3   OH232746   6.758   0.904   2.676 -0.3706  0.0840  0.3332
 3752TIP3    H132747   6.746   0.856   2.758  0.2590  2.0466  1.6049
 3752TIP3    H232748   6.681   0.882   2.624 -0.3188 -1.9211  1.0692
 3753TIP3   OH232749   4.869   0.215   6.722  0.2166 -0.0330  0.4084
 3753TIP3    H132750   4.942   0.226   6.661 -0.9008  1.7585 -0.6429
 3753TIP3    H232751   4.821   0.140   6.688  0.6935 -0.2604  0.2291
 3754TIP3   OH232752   6.705   4.855  13.858  0.2254  0.2104  1.2437
 3754TIP3    H132753   6.702   4.854  13.953  0.9710  0.3687  1.2696
 3754TIP3    H232754   6.750   4.937  13.836  0.5689 -0.1042  0.7674
 3755TIP3   OH232755   4.279   0.749   3.967  0.4963 -0.3924  0.7055
 3755TIP3    H132756   4.222   0.762   4.043 -1.3860  0.1901 -0.7520
 3755TIP3    H232757   4.273   0.656   3.948  2.4783 -0.9062  2.3733
 3756TIP3   OH232758   0.621   0.191   2.439 -0.0277 -0.6744  0.1294
 3756TIP3    H132759   0.659   0.274   2.409 -1.3042 -0.2022 -0.2139
 3756TIP3    H232760   0.679   0.124   2.403  1.0916  0.0638  0.5153
 3757TIP3   OH232761   1.407   0.355   3.633  0.2791 -0.0523 -0.3161
 3757TIP3    H132762   1.351   0.406   3.574 -0.6055  0.0505  0.5974
 3757TIP3    H232763   1.358   0.274   3.648  0.6470 -0.2111  0.0264
 3758TIP3   OH232764   2.272   4.272   2.290 -0.6812  0.4359 -0.1749
 3758TIP3    H132765   2.281   4.180   2.311  1.1372  0.5884 -0.2655
 3758TIP3    H232766   2.313   4.283   2.204 -2.0953  1.0881 -0.8025
 3759TIP3   OH232767   1.395   5.392  11.693 -0.2148 -0.1109 -0.6150
 3759TIP3    H132768   1.417   5.444  11.770 -1.4449 -1.7437  0.8748
 3759TIP3    H232769   1.463   5.325  11.688 -0.8873 -0.8375 -0.1404
 3760TIP3   OH232770   2.135   5.243   4.431 -0.3643 -0.3722  0.2087
 3760TIP3    H132771   2.090   5.324   4.454  1.5886  0.6267  0.6372
 3760TIP3    H232772   2.092   5.176   4.483 -1.1912  0.5876  0.7760
 3761TIP3   OH232773   6.475   4.786  17.249 -0.3036  0.1641 -0.3465
 3761TIP3    H132774   6.554   4.819  17.293  0.7897 -0.8908 -1.4590
 3761TIP3    H232775   6.464   4.845  17.174  1.2563 -1.5066 -1.9507
 3762TIP3   OH232776   5.042   6.738  16.211 -0.4845 -0.2968  0.0046
 3762TIP3    H132777   5.082   6.818  16.245  0.3223 -0.1642 -1.2278
 3762TIP3    H232778   4.968   6.721  16.270  1.1281 -0.3254  2.0844
 3763TIP3   OH232779   1.390   6.262  13.640  0.0349  0.6821  0.2438
 3763TIP3    H132780   1.430   6.325  13.701  2.7556  1.0664 -1.8717
 3763TIP3    H232781   1.458   6.244  13.576 -1.9394 -1.6850 -1.2607
 3764TIP3   OH232782   5.920   3.279  15.933 -0.4540  0.1902 -0.0576
 3764TIP3    H132783   5.973   3.308  15.858  1.1471  1.0582  1.3832
 3764TIP3    H232784   5.889   3.192  15.907  1.0176 -0.0015 -1.2947
 3765TIP3   OH232785   1.594   5.989   0.457 -0.3502  0.5393 -0.1383
 3765TIP3    H132786   1.520   5.953   0.408  0.4385 -0.4846 -0.5945
 3765TIP3    H232787   1.597   5.937   0.537 -0.7552  1.2683  0.3581
 3766TIP3   OH232788   3.949   1.441  17.165  0.1214  0.4332 -0.9388
 3766TIP3    H132789   3.936   1.527  17.206  0.6734 -1.6164  3.8441
 3766TIP3    H232790   3.867   1.394  17.179  0.6197 -0.6333 -1.5195
 3767TIP3   OH232791   1.728   2.084  12.007 -0.3708 -0.0384 -0.1813
 3767TIP3    H132792   1.724   2.015  12.072 -0.4201 -0.2502 -0.4099
 3767TIP3    H232793   1.820   2.085  11.978 -0.4097 -0.1304 -0.3098
 3768TIP3   OH232794   2.457   0.328  16.087  0.0649  0.3500  0.1338
 3768TIP3    H132795   2.464   0.391  16.015 -2.0136 -0.4302 -0.8019
 3768TIP3    H232796   2.408   0.255  16.050 -0.0138 -0.5790  2.0218
 3769TIP3   OH232797   1.984   1.752  14.216 -0.2655 -0.4990 -0.3935
 3769TIP3    H132798   1.953   1.791  14.297 -0.1926  0.9743 -1.0553
 3769TIP3    H232799   2.070   1.716  14.238 -0.0471  0.2985  0.0681
 3770TIP3   OH232800   6.667   4.459   3.349 -0.2575  0.0728  0.2103
 3770TIP3    H132801   6.650   4.422   3.262  2.5608 -0.4962 -0.1252
 3770TIP3    H232802   6.735   4.524   3.334 -1.4976  1.7634  1.6453
 3771TIP3   OH232803   5.697   0.653  16.474 -0.3421 -0.2638 -0.1186
 3771TIP3    H132804   5.740   0.718  16.418 -2.0669 -1.3152 -2.7654
 3771TIP3    H232805   5.740   0.570  16.451  0.3013 -0.4400  1.6106
 3772TIP3   OH232806   1.651   3.223   5.383 -0.3685  0.0310  0.0608
 3772TIP3    H132807   1.683   3.313   5.385 -0.7432  0.1783 -0.4599
 3772TIP3    H232808   1.729   3.169   5.392 -0.0116  0.3884 -0.8463
 3773TIP3   OH232809   3.787   6.227  10.932  0.7063  0.5129  0.0509
 3773TIP3    H132810   3.769   6.148  10.881  2.6927 -0.4407  0.7581
 3773TIP3    H232811   3.834   6.284  10.871  1.9442 -0.1072  0.3997
 3774TIP3   OH232812   0.853   4.925   6.451  0.1620  0.4111 -0.2947
 3774TIP3    H132813   0.786   4.979   6.409 -0.0435  1.4153  1.2643
 3774TIP3    H232814   0.814   4.902   6.536  0.1983 -2.2815 -0.9528
 3775TIP3   OH232815   6.088   5.401  11.481  0.3001  0.0024  0.7886
 3775TIP3    H132816   6.059   5.492  11.493  0.5532  0.2003 -0.0783
 3775TIP3    H232817   6.122   5.376  11.567 -0.1985  0.5715  1.1574
 3776TIP3   OH232818   0.454   3.569  16.830 -0.4204  0.1674 -1.1276
 3776TIP3    H132819   0.516   3.640  16.814 -1.3547  1.5994  1.3656
 3776TIP3    H232820   0.461   3.551  16.923 -1.5736 -1.7443 -1.3871
 3777TIP3   OH232821   0.997   5.208   5.231  0.0820 -0.1847 -0.1194
 3777TIP3    H132822   0.967   5.270   5.296 -1.0226 -0.9770  0.1573
 3777TIP3    H232823   1.088   5.230   5.215  0.0616  0.6600  0.9358
 3778TIP3   OH232824   5.794   4.740  12.313 -0.4689 -0.2330 -0.0199
 3778TIP3    H132825   5.862   4.766  12.375 -0.2003 -0.7672 -0.0920
 3778TIP3    H232826   5.753   4.663  12.352  0.5809 -1.3766 -1.1275
 3779TIP3   OH232827   4.041   5.693  11.242  0.1053 -0.2604  0.2983
 3779TIP3    H132828   4.120   5.692  11.188  1.0697  2.4524  1.6069
 3779TIP3    H232829   3.993   5.770  11.214 -1.0802 -0.7367  0.9758
 3780TIP3   OH232830   1.305   4.703   5.288  0.2346  0.4899 -0.4231
 3780TIP3    H132831   1.384   4.738   5.330 -0.0751  0.3715  0.2692
 3780TIP3    H232832   1.310   4.735   5.198  1.2271  0.2386 -0.4688
 3781TIP3   OH232833   4.693   6.351  11.391 -0.0823  0.0174 -0.0988
 3781TIP3    H132834   4.743   6.366  11.471 -0.4880  1.6852 -0.1353
 3781TIP3    H232835   4.710   6.429  11.337 -1.1080 -0.3278 -0.9413
 3782TIP3   OH232836   6.782   0.205  16.315  0.1038  0.1866 -0.0071
 3782TIP3    H132837   6.790   0.148  16.391  1.9250  1.0417  0.4796
 3782TIP3    H232838   6.844   0.169  16.251 -1.5762 -0.6616 -1.1875
 3783TIP3   OH232839   4.699   6.696   0.917 -0.3933 -0.2675  0.0930
 3783TIP3    H132840   4.734   6.742   0.993 -0.7212 -0.3864  0.3179
 3783TIP3    H232841   4.775   6.653   0.878 -0.2773 -0.4815  0.5487
 3784TIP3   OH232842   2.422   5.058   1.109  0.7122 -0.9322  0.2025
 3784TIP3    H132843   2.358   5.004   1.155  0.3552 -1.3657 -0.7792
 3784TIP3    H232844   2.417   5.028   1.018 -0.0715  1.2984 -0.5162
 3785TIP3   OH232845   5.233   0.838  14.662  0.1590  0.2899  0.1283
 3785TIP3    H132846   5.234   0.933  14.653  0.7385  0.3467  0.7752
 3785TIP3    H232847   5.146   0.812  14.631 -0.8865  1.2437  2.1931
 3786TIP3   OH232848   3.978   1.767  13.781  0.3572 -0.0876  0.1093
 3786TIP3    H132849   4.034   1.844  13.798  2.0046 -1.1264 -0.5418
 3786TIP3    H232850   3.991   1.748  13.689 -2.4990  0.7284 -0.5017
 3787TIP3   OH232851   2.960   4.471   0.193 -0.2726 -0.1791 -0.2411
 3787TIP3    H132852   2.955   4.558   0.232  1.1705  0.2323 -0.9126
 3787TIP3    H232853   2.891   4.471   0.126 -2.1078 -0.5504  1.6168
 3788TIP3   OH232854   5.565   0.975   3.509 -0.2935 -0.6495 -0.2709
 3788TIP3    H132855   5.540   0.928   3.430 -0.5146 -1.0852  0.0512
 3788TIP3    H232856   5.652   0.940   3.531 -0.8119 -1.5110  0.4280
 3789TIP3   OH232857   5.072   5.272   0.583  0.1279 -0.2366  0.0995
 3789TIP3    H132858   5.164   5.291   0.598  0.0856  0.7499 -0.8347
 3789TIP3    H232859   5.062   5.274   0.488 -1.2357  1.5204  0.2635
 3790TIP3   OH232860   5.352   4.278  11.412  0.6240 -0.5480  0.3141
 3790TIP3    H132861   5.296   4.233  11.349  0.1552  0.6800 -0.1628
 3790TIP3    H232862   5.440   4.247  11.394  0.7594  1.1793 -2.2002
 3791TIP3   OH232863   1.332   2.916   1.851  0.2724  0.9704 -0.0774
 3791TIP3    H132864   1.304   2.963   1.772 -0.0293  0.7453 -0.1071
 3791TIP3    H232865   1.389   2.846   1.819  1.4609  1.8680  0.0432
 3792TIP3   OH232866   4.634   5.676   4.402  0.4709 -0.2143  0.4287
 3792TIP3    H132867   4.691   5.745   4.434  0.7996 -0.3073  0.0473
 3792TIP3    H232868   4.558   5.722   4.366  0.3529 -0.0883  0.8388
 3793TIP3   OH232869   5.280   1.140  11.079 -0.5235 -0.0328 -0.7002
 3793TIP3    H132870   5.204   1.169  11.130  0.2561 -2.7288  2.1618
 3793TIP3    H232871   5.327   1.221  11.058 -1.3280  1.2624  2.2070
 3794TIP3   OH232872   0.375   3.101  11.255  0.5370 -0.3855 -0.3245
 3794TIP3    H132873   0.280   3.096  11.269  0.5202 -0.7694 -0.5583
 3794TIP3    H232874   0.389   3.055  11.172  0.7218  1.1354 -1.1533
 3795TIP3   OH232875   1.613   5.038  16.099 -0.3729  0.0240  0.5465
 3795TIP3    H132876   1.642   4.972  16.162 -0.2562  0.7864  1.2995
 3795TIP3    H232877   1.549   5.091  16.147 -0.2410  0.6472  0.0502
 3796TIP3   OH232878   5.346   3.753   2.008 -0.2313  0.4680 -0.2992
 3796TIP3    H132879   5.406   3.733   2.079  1.7497  0.6466 -1.8833
 3796TIP3    H232880   5.338   3.672   1.958 -0.0678  0.8835 -1.0050
 3797TIP3   OH232881   1.343   0.412   6.902  0.1446  0.0963  0.7438
 3797TIP3    H132882   1.256   0.389   6.937  1.4244 -0.2009  3.8919
 3797TIP3    H232883   1.374   0.482   6.959  2.5831 -0.8051  0.5993
 3798TIP3   OH232884   2.117   6.574  10.917  0.2585 -0.0514  0.3196
 3798TIP3    H132885   2.078   6.560  10.831  0.2212 -0.2656  0.3706
 3798TIP3    H232886   2.194   6.516  10.918  0.1378 -0.2070  0.5122
 3799TIP3   OH232887   2.528   1.075  15.106 -0.2982 -0.1860 -0.3397
 3799TIP3    H132888   2.515   1.119  15.190 -0.1190 -1.6000  0.4529
 3799TIP3    H232889   2.483   1.130  15.042 -3.2274 -0.7586  1.1490
 3800TIP3   OH232890   0.177   0.833   6.170  0.2135 -0.4024 -0.1300
 3800TIP3    H132891   0.120   0.786   6.232 -0.3304  1.9877  1.2354
 3800TIP3    H232892   0.247   0.868   6.225 -0.5633  2.1999 -0.7643
 3801TIP3   OH232893   2.322   6.297  16.615 -0.2823  0.0644  0.0186
 3801TIP3    H132894   2.290   6.305  16.525 -2.1483 -1.3232  0.5266
 3801TIP3    H232895   2.335   6.387  16.644 -2.7885  0.6734 -0.5926
 3802TIP3   OH232896   4.077   6.786  12.818 -0.1686 -0.1999 -0.1566
 3802TIP3    H132897   4.093   6.746  12.733  1.1935 -1.1924  0.5382
 3802TIP3    H232898   4.068   6.879  12.800 -1.8206 -0.6239 -1.6076
 3803TIP3   OH232899   2.003   4.322   0.493  0.6628 -0.0456 -0.0420
 3803TIP3    H132900   1.956   4.318   0.409 -1.9673 -1.7418  1.4417
 3803TIP3    H232901   2.086   4.278   0.475  0.1301 -0.4107 -1.7895
 3804TIP3   OH232902   3.426   4.694   2.102  0.2584 -0.5831  0.0272
 3804TIP3    H132903   3.484   4.674   2.175  0.2919 -0.4934  0.0248
 3804TIP3    H232904   3.442   4.786   2.083  0.0775 -0.5441  0.0620
 3805TIP3   OH232905   1.309   6.288  11.945  0.4356  0.0410  0.0785
 3805TIP3    H132906   1.283   6.308  12.035  0.3772  0.3469 -0.0028
 3805TIP3    H232907   1.345   6.371  11.912  2.2387 -0.5976  0.4365
 3806TIP3   OH232908   3.482   4.431  14.226 -0.0104 -0.5926 -0.4457
 3806TIP3    H132909   3.446   4.518  14.240 -0.0855 -0.8514  0.9836
 3806TIP3    H232910   3.414   4.386  14.174  0.8699  0.7777 -2.8460
 3807TIP3   OH232911   4.283   1.896  12.886  0.6254 -0.0463 -0.6322
 3807TIP3    H132912   4.290   1.980  12.931 -0.4486  0.2551 -1.0122
 3807TIP3    H232913   4.294   1.917  12.793 -1.5509 -0.0296 -0.9162
 3808TIP3   OH232914   4.415   1.893   2.686  0.0019  0.7229 -0.8824
 3808TIP3    H132915   4.403   1.800   2.664 -1.8459  0.5413  0.7469
 3808TIP3    H232916   4.343   1.913   2.746 -0.7012  3.7194 -2.6504
 3809TIP3   OH232917   5.340   5.736   5.698 -0.7350 -0.3199  0.1484
 3809TIP3    H132918   5.375   5.679   5.629 -4.1896 -3.7387  1.1044
 3809TIP3    H232919   5.396   5.719   5.774 -1.0053 -1.5144  0.0802
 3810TIP3   OH232920   6.704   1.528  15.126  0.5960 -0.3197  0.4490
 3810TIP3    H132921   6.750   1.451  15.157 -1.1142 -0.8711  1.6788
 3810TIP3    H232922   6.646   1.495  15.057 -0.2397 -0.1646  1.0711
 3811TIP3   OH232923   3.316   1.302   5.166  0.1633 -0.8511  0.5275
 3811TIP3    H132924   3.352   1.213   5.161 -1.6473 -1.6019  0.7507
 3811TIP3    H232925   3.263   1.310   5.087  0.2604  0.0065  0.5529
 3812TIP3   OH232926   5.370   3.795  15.991 -0.6811 -0.2897  0.0176
 3812TIP3    H132927   5.438   3.861  16.004 -0.9290  0.2254 -1.1596
 3812TIP3    H232928   5.418   3.715  15.968 -0.4489 -0.0627 -0.2901
 3813TIP3   OH232929   4.989   6.489  11.569  0.3560 -0.4414 -0.6771
 3813TIP3    H132930   5.045   6.557  11.607  0.9130 -0.7828 -0.8793
 3813TIP3    H232931   5.012   6.487  11.476 -0.6366  0.0351 -0.9423
 3814TIP3   OH232932   4.022   0.494  15.701 -0.3902  0.3795  0.3808
 3814TIP3    H132933   3.961   0.553  15.745 -0.8514  0.7402 -0.7342
 3814TIP3    H232934   4.094   0.551  15.674 -0.5775  0.3260 -0.2176
 3815TIP3   OH232935   6.812   5.436   1.677 -0.2218  0.2379 -0.3546
 3815TIP3    H132936   6.749   5.452   1.747  1.1371 -1.5076  1.3311
 3815TIP3    H232937   6.887   5.491   1.698  0.1893 -0.2867 -0.4263
 3816TIP3   OH232938   5.604   1.140  15.395 -0.0306 -0.1103 -0.7084
 3816TIP3    H132939   5.621   1.233  15.386  0.8017 -0.4269 -2.4821
 3816TIP3    H232940   5.557   1.116  15.315  0.1678 -1.2983 -0.4812
 3817TIP3   OH232941   4.554   3.103   1.496  0.6250  0.3776 -0.1402
 3817TIP3    H132942   4.520   3.182   1.539 -0.1941  1.1409 -2.1315
 3817TIP3    H232943   4.606   3.136   1.423  1.1242 -0.9142 -0.3816
 3818TIP3   OH232944   2.642   0.063  12.155 -0.8023  0.6897 -0.0744
 3818TIP3    H132945   2.688   0.040  12.074 -0.2775  1.0930  0.1054
 3818TIP3    H232946   2.710   0.101  12.210 -0.5920 -1.9043  1.5258
 3819TIP3   OH232947   3.165   3.678  13.763 -0.4733  0.5746 -0.5581
 3819TIP3    H132948   3.223   3.608  13.734 -1.3591  0.3363 -1.7788
 3819TIP3    H232949   3.101   3.688  13.693 -2.0443  0.7151  0.8517
 3820TIP3   OH232950   5.295   5.903  14.373 -0.0507  0.6414 -0.2951
 3820TIP3    H132951   5.377   5.915  14.325  0.4431  2.5851  0.9917
 3820TIP3    H232952   5.227   5.927  14.309  0.4198  0.0989 -1.0132
 3821TIP3   OH232953   1.428   5.826   5.955 -0.1125 -0.1223 -0.5929
 3821TIP3    H132954   1.371   5.772   6.010  1.8745 -0.3521  1.3082
 3821TIP3    H232955   1.440   5.907   6.005 -1.8824  1.5449 -2.7565
 3822TIP3   OH232956   1.742   3.610   3.668 -0.6118  0.1882  0.0747
 3822TIP3    H132957   1.775   3.640   3.583 -0.2037  0.3963  0.3061
 3822TIP3    H232958   1.815   3.562   3.707 -0.9471 -0.2888  0.1183
 3823TIP3   OH232959   3.955   4.698   4.363 -0.2551 -0.1714 -0.1557
 3823TIP3    H132960   3.976   4.627   4.425  1.3385 -0.7981 -1.3831
 3823TIP3    H232961   3.875   4.669   4.320 -1.4499  0.3252  1.6863
 3824TIP3   OH232962   3.719   5.971  11.328 -0.2242 -0.2891 -0.2656
 3824TIP3    H132963   3.788   5.974  11.262 -0.4695 -1.0809 -0.5517
 3824TIP3    H232964   3.744   5.900  11.387  0.0249  0.4470  0.5360
 3825TIP3   OH232965   6.070   0.041   0.861 -0.1135  0.2069  0.3433
 3825TIP3    H132966   6.040   0.045   0.770 -0.5016  0.4836  0.4823
 3825TIP3    H232967   6.053  -0.049   0.888 -0.2389  0.1946  0.2236
 3826TIP3   OH232968   1.733   5.687   3.988 -0.1625  0.1983 -0.0017
 3826TIP3    H132969   1.748   5.728   4.073 -2.7970 -3.4476  2.3443
 3826TIP3    H232970   1.654   5.729   3.954 -1.2520 -0.8845  1.1233
 3827TIP3   OH232971   3.432   6.403  14.783 -0.3159 -1.0397  0.1484
 3827TIP3    H132972   3.495   6.442  14.722  1.3763 -3.2610  0.3966
 3827TIP3    H232973   3.351   6.452  14.769  0.8223  0.3250 -1.8806
 3828TIP3   OH232974   3.070   3.771  15.241 -0.2379  0.4480  0.4323
 3828TIP3    H132975   2.992   3.826  15.246 -0.2469  0.3565  1.3997
 3828TIP3    H232976   3.108   3.791  15.156 -0.3427  1.8088  0.6923
 3829TIP3   OH232977   6.579   5.716   0.129 -0.2262  0.1652  0.0248
 3829TIP3    H132978   6.663   5.758   0.117 -0.4336  0.6655  0.2927
 3829TIP3    H232979   6.530   5.734   0.049  0.4069 -1.2896 -0.7052
 3830TIP3   OH232980   4.308   3.707  11.542 -0.3522 -0.0649  0.2307
 3830TIP3    H132981   4.248   3.772  11.577  0.8618  0.8539  0.6670
 3830TIP3    H232982   4.337   3.742  11.458 -2.3165 -1.6868 -1.1534
 3831TIP3   OH232983   0.894   6.628  12.502 -0.0081  0.2530 -0.7832
 3831TIP3    H132984   0.915   6.596  12.589 -0.6995 -1.8893 -1.3823
 3831TIP3    H232985   0.859   6.716  12.516 -0.7197 -0.3222  1.1474
 3832TIP3   OH232986   1.592   5.038  15.812  0.4465 -0.7391  0.5345
 3832TIP3    H132987   1.601   5.046  15.907  1.2241 -0.7437  0.4679
 3832TIP3    H232988   1.522   5.099  15.789  1.8958  1.0746  0.8273
 3833TIP3   OH232989   5.191   5.608   1.927  0.1062 -0.0492  0.8106
 3833TIP3    H132990   5.155   5.521   1.910 -1.1876  0.2718  1.7994
 3833TIP3    H232991   5.273   5.591   1.975  0.6393 -0.7487 -0.3297
 3834TIP3   OH232992   3.516   4.310   2.703  0.5432  0.8454  0.4469
 3834TIP3    H132993   3.503   4.401   2.730  1.0596  1.6865 -2.0007
 3834TIP3    H232994   3.598   4.310   2.655 -0.3387 -0.5375 -1.1381
 3835TIP3   OH232995   5.924   3.798  12.671 -0.3592 -0.2043  0.6136
 3835TIP3    H132996   5.905   3.749  12.591 -0.6870  1.0145 -0.0790
 3835TIP3    H232997   5.874   3.754  12.739 -1.3936 -0.2704 -0.1783
 3836TIP3   OH232998   5.503   0.608  16.174  0.5249  0.0013 -0.3195
 3836TIP3    H132999   5.505   0.701  16.192 -1.2866  0.3742 -1.8149
 3836TIP3    H233000   5.563   0.596  16.100  0.6797  0.0020 -0.1943
 3837TIP3   OH233001   6.202   0.254   6.546  0.1671  0.0461 -0.0295
 3837TIP3    H133002   6.279   0.197   6.559  0.9197  0.9994 -0.2310
 3837TIP3    H233003   6.131   0.194   6.526  0.9994 -0.8185 -0.4322
 3838TIP3   OH233004   3.663   0.875  17.019  0.4157 -0.1189  0.0077
 3838TIP3    H133005   3.673   0.787  16.984 -0.3817  0.2953 -1.3111
 3838TIP3    H233006   3.692   0.869  17.110  1.4102 -1.4785 -0.3969
 3839TIP3   OH233007   1.960   3.492  15.672 -0.0732  0.5445  0.2506
 3839TIP3    H133008   1.894   3.478  15.604  1.7634  0.2228 -1.5257
 3839TIP3    H233009   1.973   3.587  15.673  0.7655  0.4484 -0.7198
 3840TIP3   OH233010   5.315   5.984  14.628 -0.5469 -0.1356 -0.0497
 3840TIP3    H133011   5.242   6.045  14.638  0.3348  0.5957  2.2539
 3840TIP3    H233012   5.311   5.957  14.536 -0.8558  3.5034 -1.1975
 3841TIP3   OH233013   5.109   5.696  11.338 -0.0340 -0.4881  0.9972
 3841TIP3    H133014   5.139   5.610  11.365  1.5698  0.0896  1.1190
 3841TIP3    H233015   5.152   5.711  11.253  0.1261  0.4138  1.2325
 3842TIP3   OH233016   6.118   3.089  16.578 -0.3228 -0.3011  0.5885
 3842TIP3    H133017   6.061   3.161  16.551  0.0821 -0.5556 -0.9661
 3842TIP3    H233018   6.068   3.010  16.556  0.5356 -0.5212 -0.5709
 3843TIP3   OH233019   0.233   1.078   3.507 -0.3023 -0.2086 -0.8019
 3843TIP3    H133020   0.321   1.099   3.538  0.8961 -0.6312 -3.7302
 3843TIP3    H233021   0.207   1.153   3.453 -1.4965 -0.3558 -0.4570
 3844TIP3   OH233022   1.667   0.243  14.886  0.4074 -0.0423 -0.2470
 3844TIP3    H133023   1.698   0.200  14.965  1.5832 -0.4327 -0.9040
 3844TIP3    H233024   1.662   0.173  14.821 -0.1727  0.3431 -0.6234
 3845TIP3   OH233025   1.132   0.831   1.950  0.8243 -0.2531  0.2210
 3845TIP3    H133026   1.075   0.762   1.918  0.2463  0.4498 -0.2764
 3845TIP3    H233027   1.163   0.875   1.871 -0.4663  1.3777  0.5984
 3846TIP3   OH233028   2.534   3.559   0.511 -0.1998  1.0388  0.0950
 3846TIP3    H133029   2.489   3.612   0.445  1.0269  2.6550  0.5491
 3846TIP3    H233030   2.464   3.508   0.552 -1.3998  2.3161 -0.3332
 3847TIP3   OH233031   1.230   2.543  13.201 -0.3745 -0.1464 -0.0334
 3847TIP3    H133032   1.176   2.622  13.202 -0.4407 -0.1796 -0.9630
 3847TIP3    H233033   1.277   2.546  13.118  1.6640  0.2673  1.1007
 3848TIP3   OH233034   5.262   5.457  16.857 -0.3342  0.6464  0.7812
 3848TIP3    H133035   5.256   5.477  16.951 -0.7862  1.4091  0.5893
 3848TIP3    H233036   5.180   5.488  16.820  0.0111  0.7140  0.0583
 3849TIP3   OH233037   4.572   2.602  10.431 -0.3996  0.1544 -0.3807
 3849TIP3    H133038   4.488   2.601  10.386 -0.2984 -2.8751 -0.6213
 3849TIP3    H233039   4.550   2.620  10.523 -1.2991 -0.2435 -0.5096
 3850TIP3   OH233040   2.875   2.675   1.746  0.4225  0.1037  0.2149
 3850TIP3    H133041   2.839   2.763   1.737 -0.5038 -0.4187 -1.3268
 3850TIP3    H233042   2.855   2.650   1.836 -0.6621  0.8857  0.1997
 3851TIP3   OH233043   2.181   0.960  15.209 -0.0154 -0.2279  0.6939
 3851TIP3    H133044   2.162   1.049  15.178  1.3153 -0.7014 -1.5748
 3851TIP3    H233045   2.240   0.973  15.283  2.8481  0.7364 -1.6536
 3852TIP3   OH233046   0.022   0.849   0.910  0.7698 -0.3078  0.1219
 3852TIP3    H133047   0.064   0.781   0.857  0.4203 -0.3633 -0.0862
 3852TIP3    H233048  -0.057   0.871   0.861  0.7879  0.1157  0.2849
 3853TIP3   OH233049   0.808   4.102   4.319 -0.3793  0.2285  0.5786
 3853TIP3    H133050   0.759   4.173   4.278 -0.3770 -0.0566  0.0758
 3853TIP3    H233051   0.745   4.060   4.378 -0.8421 -0.3522 -0.3228
 3854TIP3   OH233052   1.341   0.374  15.419 -0.2952  0.2576 -0.0266
 3854TIP3    H133053   1.433   0.393  15.439  0.5373 -0.8410 -2.6016
 3854TIP3    H233054   1.338   0.280  15.405 -1.8778  0.2541  0.1894
 3855TIP3   OH233055   1.821   4.977   4.041  1.1193  0.3242  0.2611
 3855TIP3    H133056   1.861   4.999   3.957  1.2331 -3.3848 -0.7738
 3855TIP3    H233057   1.734   5.015   4.037  1.0261 -0.0103 -1.6790
 3856TIP3   OH233058   4.661   0.928  15.210 -0.1039  0.3478  0.1500
 3856TIP3    H133059   4.744   0.969  15.185 -0.1539 -0.2817 -1.0607
 3856TIP3    H233060   4.639   0.969  15.294  1.4270  0.5141  0.4846
 3857TIP3   OH233061   6.274   5.158   6.283  0.3084  0.2675 -0.2580
 3857TIP3    H133062   6.320   5.080   6.313 -0.0267 -0.9464 -2.7307
 3857TIP3    H233063   6.182   5.132   6.280 -0.0237  1.3181  0.5769
 3858TIP3   OH233064   5.350   6.332   3.868  0.5582 -0.2835 -0.3556
 3858TIP3    H133065   5.260   6.355   3.892  0.6556  0.6284 -0.8551
 3858TIP3    H233066   5.340   6.255   3.810  0.1152 -0.3106 -0.2485
 3859TIP3   OH233067   6.221   0.358   5.484 -0.0706  0.0212  0.2624
 3859TIP3    H133068   6.268   0.280   5.453  1.5339  0.7724  0.7643
 3859TIP3    H233069   6.228   0.354   5.579  1.5258  1.6802  0.2316
 3860TIP3   OH233070   6.562   0.881   0.432  0.2531  0.1280  0.4149
 3860TIP3    H133071   6.531   0.895   0.343 -0.4469  0.7475  0.7488
 3860TIP3    H233072   6.612   0.799   0.428 -2.3978 -1.5245  0.0831
 3861TIP3   OH233073   4.998   4.190  14.181 -1.2427  0.0960 -0.4091
 3861TIP3    H133074   5.030   4.207  14.270 -0.0316 -0.0989 -0.7982
 3861TIP3    H233075   4.920   4.137  14.194 -0.3866 -0.9725  0.5090
 3862TIP3   OH233076   5.602   6.318  12.494 -0.4569  0.0530  0.1171
 3862TIP3    H133077   5.548   6.247  12.460 -0.1953 -0.1309  0.0846
 3862TIP3    H233078   5.662   6.276  12.556 -0.2167  0.2224  0.0023
 3863TIP3   OH233079   1.899   4.199   5.299 -0.1362 -0.1064  0.0545
 3863TIP3    H133080   1.961   4.136   5.335  1.2586  1.7109  0.9663
 3863TIP3    H233081   1.822   4.193   5.355 -0.3863 -1.6513 -0.4447
 3864TIP3   OH233082   6.310   3.021   2.672  0.1550  0.7545  0.4580
 3864TIP3    H133083   6.333   3.071   2.593 -0.4027 -0.2203 -0.3336
 3864TIP3    H233084   6.356   3.066   2.743 -2.0204  3.6868  0.0959
 3865TIP3   OH233085   2.500   3.113  16.908  0.0411 -0.1888  0.0966
 3865TIP3    H133086   2.467   3.135  16.820  1.2949  2.1673  0.1704
 3865TIP3    H233087   2.540   3.027  16.897  2.6456  1.2270 -2.3647
 3866TIP3   OH233088   0.199   5.228   2.013  0.1277 -0.2695 -0.2087
 3866TIP3    H133089   0.129   5.173   1.978 -0.4322  0.7716 -0.7552
 3866TIP3    H233090   0.277   5.201   1.964  0.0788 -1.2855  0.2563
 3867TIP3   OH233091   0.200   3.433   0.192 -0.0202 -0.6785 -0.4072
 3867TIP3    H133092   0.113   3.459   0.163  0.8097  1.8828 -0.7665
 3867TIP3    H233093   0.198   3.445   0.287  0.6360  1.7657 -0.6599
 3868TIP3   OH233094   2.298   1.950  12.408 -0.1468  0.1550  0.2290
 3868TIP3    H133095   2.286   2.006  12.331 -2.6868 -0.5465  0.0881
 3868TIP3    H233096   2.278   2.006  12.483  1.5339  0.6104  0.3575
 3869TIP3   OH233097   5.152   1.240   3.076  0.4539 -0.0483 -0.2325
 3869TIP3    H133098   5.087   1.235   3.006 -0.9324  1.3913  0.8998
 3869TIP3    H233099   5.202   1.319   3.057  0.0086  0.4055  0.4007
 3870TIP3   OH233100   0.527   4.518   5.452 -0.1297 -0.2113 -0.3005
 3870TIP3    H133101   0.497   4.427   5.458 -1.2712  0.1977  0.4256
 3870TIP3    H233102   0.597   4.524   5.517  0.8905 -0.9087 -1.2973
 3871TIP3   OH233103   2.729   2.221   0.078 -0.0600 -1.1120 -0.1079
 3871TIP3    H133104   2.811   2.215   0.028  0.3745 -1.8008  0.6550
 3871TIP3    H233105   2.749   2.281   0.150 -0.3789 -0.8793 -0.2162
 3872TIP3   OH233106   1.690   5.503  15.328 -0.4316 -0.0885 -0.2974
 3872TIP3    H133107   1.606   5.524  15.288  0.1868  2.5139 -0.3504
 3872TIP3    H233108   1.747   5.576  15.303  1.6412 -1.4419  0.3319
 3873TIP3   OH233109   5.413   6.331  13.141 -0.1801  0.1808 -0.3607
 3873TIP3    H133110   5.428   6.350  13.234 -0.1565 -1.2646 -0.0617
 3873TIP3    H233111   5.389   6.239  13.139  3.0064 -0.6747 -2.1081
 3874TIP3   OH233112   5.934   2.062   4.447  0.2831  0.2102  0.4055
 3874TIP3    H133113   6.021   2.086   4.479  1.0190 -0.8332 -0.7497
 3874TIP3    H233114   5.919   2.119   4.372  1.1286 -1.4346 -1.0389
 3875TIP3   OH233115   6.330   2.995   3.413  0.6352 -0.2615 -0.2340
 3875TIP3    H133116   6.319   3.033   3.500 -2.7467 -0.5308 -0.5016
 3875TIP3    H233117   6.377   2.913   3.428 -2.7307 -1.9119  1.7529
 3876TIP3   OH233118   0.548   0.153  14.181  0.1256 -0.0132 -0.0388
 3876TIP3    H133119   0.589   0.069  14.203  0.4074 -0.1537 -1.0835
 3876TIP3    H233120   0.457   0.130  14.162 -0.2821  0.1952  1.5357
 3877TIP3   OH233121   0.906   1.727   0.046 -0.1876 -0.0877  0.1891
 3877TIP3    H133122   0.888   1.720  -0.048 -0.6089 -1.3432  0.3628
 3877TIP3    H233123   0.820   1.731   0.087 -0.0744 -2.2058  0.7054
 3878TIP3   OH233124   2.396   3.696  13.246  0.2560  0.0798 -0.2359
 3878TIP3    H133125   2.356   3.613  13.271  0.2355  0.5626  1.4044
 3878TIP3    H233126   2.490   3.681  13.258  0.2677  0.2168 -0.1588
 3879TIP3   OH233127   6.108   2.756   0.634 -0.0079 -0.2817 -0.7814
 3879TIP3    H133128   6.195   2.717   0.640  0.1470 -0.0746 -1.7463
 3879TIP3    H233129   6.105   2.797   0.548 -0.2957  1.5464  0.0738
 3880TIP3   OH233130   4.946   2.004  15.162 -1.0270 -0.5022  0.1198
 3880TIP3    H133131   4.974   2.040  15.245 -0.1503 -0.9805  0.0356
 3880TIP3    H233132   4.872   2.059  15.135 -0.4648  0.4734  0.5628
 3881TIP3   OH233133   3.412   4.283  16.554 -0.3321  0.4002 -0.2432
 3881TIP3    H133134   3.343   4.216  16.552 -0.0945  0.1515 -0.2183
 3881TIP3    H233135   3.405   4.328  16.470 -1.7927  1.6666  0.5451
 3882TIP3   OH233136   5.806   1.491  11.844  0.4111  0.2782  0.4965
 3882TIP3    H133137   5.744   1.421  11.868  0.6830  0.0905  0.6455
 3882TIP3    H233138   5.809   1.487  11.748  0.0217  0.4329  0.4753
 3883TIP3   OH233139   6.059   5.492  14.002 -0.4742  0.0810 -0.8361
 3883TIP3    H133140   6.128   5.508  14.067 -1.1381  0.9706 -0.3341
 3883TIP3    H233141   6.067   5.564  13.940  1.2590 -1.6932 -2.7378
 3884TIP3   OH233142   4.639   1.825   3.355 -0.0500  0.1165 -0.1257
 3884TIP3    H133143   4.614   1.907   3.398  0.6362  0.0046  0.4804
 3884TIP3    H233144   4.568   1.809   3.293 -0.3576  0.9954 -0.0127
 3885TIP3   OH233145   5.718   5.750   0.035  0.0699 -0.2859  0.3304
 3885TIP3    H133146   5.665   5.822  -0.001  0.3848 -0.7227 -1.0224
 3885TIP3    H233147   5.792   5.742  -0.025 -0.2985 -2.1769  0.0975
 3886TIP3   OH233148   4.797   3.259  14.421  0.0839  0.0443 -0.0033
 3886TIP3    H133149   4.857   3.283  14.351  0.4233 -0.6704  0.0358
 3886TIP3    H233150   4.710   3.267  14.382  0.1917  1.1731 -0.0308
 3887TIP3   OH233151   5.323   0.913   5.035  0.0747  0.5475 -0.4694
 3887TIP3    H133152   5.369   0.840   4.994 -1.4906  0.6126 -2.3983
 3887TIP3    H233153   5.392   0.962   5.080  1.2787 -1.5694  0.0503
 3888TIP3   OH233154   3.816   4.689  15.629  0.2531  0.1814  0.6723
 3888TIP3    H133155   3.766   4.672  15.549  2.9255  0.7887 -1.2271
 3888TIP3    H233156   3.839   4.782  15.623 -1.4592  0.8294  3.3595
 3889TIP3   OH233157   5.288   3.638  10.592 -0.4307  0.2701  0.2894
 3889TIP3    H133158   5.259   3.578  10.661  1.0874  0.3256  1.0023
 3889TIP3    H233159   5.271   3.591  10.510  0.1879 -0.8931  0.8193
 3890TIP3   OH233160   5.365   5.625  14.243 -0.1898 -0.0542 -0.6046
 3890TIP3    H133161   5.416   5.546  14.224  2.2299  1.1219  0.7761
 3890TIP3    H233162   5.329   5.609  14.330  0.3040  0.3565 -0.3235
 3891TIP3   OH233163   3.774   6.159   2.105  0.7077 -0.0612 -0.2622
 3891TIP3    H133164   3.709   6.207   2.155 -0.8728 -0.4103 -1.9163
 3891TIP3    H233165   3.726   6.126   2.028  2.7019 -0.7695 -1.2514
 3892TIP3   OH233166   1.665   5.445  11.860  0.3035  0.7458  0.1314
 3892TIP3    H133167   1.717   5.491  11.926 -0.0955  0.6628  0.5143
 3892TIP3    H233168   1.632   5.367  11.906  2.1273 -0.6704 -0.9276
 3893TIP3   OH233169   1.670   4.577  15.383  0.2015 -0.2097 -0.1647
 3893TIP3    H133170   1.615   4.502  15.407  0.5931 -0.7576 -0.9837
 3893TIP3    H233171   1.608   4.646  15.360 -0.1530 -0.7693 -0.9106
 3894TIP3   OH233172   3.723   6.102  15.785  0.2419  0.1231 -0.3827
 3894TIP3    H133173   3.663   6.174  15.805  1.5701  1.6444 -1.7856
 3894TIP3    H233174   3.668   6.037  15.741 -0.7863  0.6475  0.1136
 3895TIP3   OH233175   1.939   2.738   4.750 -0.3539 -0.0874 -0.9380
 3895TIP3    H133176   1.920   2.779   4.665 -2.8762  0.3260 -0.2054
 3895TIP3    H233177   1.894   2.654   4.746  0.8116 -0.7357 -0.5777
 3896TIP3   OH233178   3.899   0.177  14.644  0.4274  0.2250 -0.1599
 3896TIP3    H133179   3.908   0.213  14.556  0.7370  1.7365  0.4725
 3896TIP3    H233180   3.910   0.252  14.702  2.6270 -1.1203  1.2543
 3897TIP3   OH233181   5.776   2.302  11.352 -0.3169  0.4757 -0.0760
 3897TIP3    H133182   5.843   2.370  11.347  0.5129 -0.1818  1.8751
 3897TIP3    H233183   5.822   2.221  11.331 -1.0125  0.3053 -1.0122
 3898TIP3   OH233184   6.208   3.370  14.318  0.2975 -0.0292  0.3293
 3898TIP3    H133185   6.252   3.413  14.391  1.6384  2.0501 -1.6039
 3898TIP3    H233186   6.273   3.310  14.282 -0.6078 -1.6056  1.2453
 3899TIP3   OH233187   0.471   5.544  15.848  0.7626 -0.0677 -0.0807
 3899TIP3    H133188   0.402   5.568  15.910  0.5165 -1.1903  0.1062
 3899TIP3    H233189   0.543   5.602  15.869  0.2375  0.4107  0.4373
 3900TIP3   OH233190   2.833   1.577   0.507  0.5559 -0.4417 -0.0568
 3900TIP3    H133191   2.898   1.506   0.508  2.2728  1.1072 -0.5738
 3900TIP3    H233192   2.858   1.634   0.579  0.8231  1.0895 -1.3405
 3901TIP3   OH233193   5.434   4.936   2.202  0.1782  0.9967 -0.0823
 3901TIP3    H133194   5.413   4.998   2.272 -0.1561  1.9805 -1.0441
 3901TIP3    H233195   5.495   4.983   2.145  1.2996 -0.1830  0.1287
 3902TIP3   OH233196   4.272   2.387   4.554  0.2392 -0.3595  0.6574
 3902TIP3    H133197   4.214   2.317   4.525  1.0225 -0.5207 -0.6092
 3902TIP3    H233198   4.355   2.343   4.572  0.5471  0.1362  0.4823
 3903TIP3   OH233199   1.725   3.818   3.944  0.4415  0.3227 -0.2380
 3903TIP3    H133200   1.720   3.889   4.007 -0.5754  0.4082 -0.4067
 3903TIP3    H233201   1.722   3.861   3.859 -0.2034  0.0796 -0.3407
 3904TIP3   OH233202   3.605   3.639  16.856  0.4570  0.0876  0.9328
 3904TIP3    H133203   3.521   3.595  16.840  0.8862 -0.4983  0.3075
 3904TIP3    H233204   3.637   3.603  16.938  1.5520 -1.9077 -0.3439
 3905TIP3   OH233205   4.109   4.266   0.402 -0.2668 -0.2503 -0.6111
 3905TIP3    H133206   4.088   4.193   0.460 -0.4340 -1.3475 -2.0150
 3905TIP3    H233207   4.175   4.317   0.449  2.9510 -3.5755 -1.3041
 3906TIP3   OH233208   3.766   2.862  13.359  0.4244 -0.3962 -0.4807
 3906TIP3    H133209   3.843   2.883  13.413  1.1917  0.1701 -1.7675
 3906TIP3    H233210   3.785   2.901  13.274 -1.4114 -0.0237 -0.7474
 3907TIP3   OH233211   1.991   6.711  14.116 -0.1501 -0.3206 -0.0726
 3907TIP3    H133212   2.030   6.634  14.075  0.7452 -0.3976  0.8896
 3907TIP3    H233213   1.899   6.687  14.129 -0.5864 -0.0702 -2.5073
 3908TIP3   OH233214   0.808   4.513  12.745 -0.0023 -0.1442  0.0619
 3908TIP3    H133215   0.808   4.484  12.836 -1.1338 -0.4778 -0.0389
 3908TIP3    H233216   0.813   4.608  12.750  1.8175 -0.2508  0.4332
 3909TIP3   OH233217   4.720   5.124   2.917  0.0063  0.2434 -0.6593
 3909TIP3    H133218   4.778   5.190   2.880 -1.7940  3.0744  1.3479
 3909TIP3    H233219   4.742   5.122   3.010 -1.2321 -0.6439 -0.3662
 3910TIP3   OH233220   0.942   4.743   6.282  0.7396  0.5725  0.2024
 3910TIP3    H133221   0.926   4.661   6.329 -2.0910  0.2717 -1.1823
 3910TIP3    H233222   0.920   4.811   6.346 -2.5638  0.1664 -0.4202
 3911TIP3   OH233223   6.137   4.902  13.644 -0.3906  0.4158  0.3872
 3911TIP3    H133224   6.214   4.939  13.688  0.3430 -1.8127  1.0402
 3911TIP3    H233225   6.142   4.937  13.555 -0.9288  3.5848  1.5543
 3912TIP3   OH233226   0.733   3.538   4.163  0.0116  0.0745  0.0665
 3912TIP3    H133227   0.688   3.554   4.246 -0.4891 -1.1641  0.0457
 3912TIP3    H233228   0.788   3.615   4.150  1.8695 -0.7821  2.6770
 3913TIP3   OH233229   1.468   4.779  13.814  0.2743 -0.3439  0.3846
 3913TIP3    H133230   1.560   4.766  13.839  0.2506 -1.5074 -0.0829
 3913TIP3    H233231   1.471   4.848  13.748  0.7580 -0.0026  0.7582
 3914TIP3   OH233232   3.517   3.977   2.725 -0.5665  0.2080 -0.3802
 3914TIP3    H133233   3.500   4.018   2.640  2.5086  0.5515 -0.9025
 3914TIP3    H233234   3.526   4.051   2.785 -1.5377  0.0094  0.0163
 3915TIP3   OH233235   2.406   4.914   5.422 -0.2219 -0.1009 -0.3341
 3915TIP3    H133236   2.402   4.924   5.327  0.0525 -1.6529 -0.5369
 3915TIP3    H233237   2.483   4.858   5.436  0.1452  0.6982  0.8481
 3916TIP3   OH233238   3.737   5.646   3.339 -0.3660 -0.7054 -0.1783
 3916TIP3    H133239   3.702   5.575   3.286 -1.0025  0.2017 -0.9916
 3916TIP3    H233240   3.782   5.703   3.277 -1.5862  0.6616  0.1456
 3917TIP3   OH233241   5.662   6.501  14.676 -0.3328 -0.4146  0.3041
 3917TIP3    H133242   5.614   6.459  14.605 -0.1505 -0.6225  0.3039
 3917TIP3    H233243   5.608   6.577  14.700  0.1922  0.3530 -0.8803
 3918TIP3   OH233244   2.943   3.624  14.809  0.4191  0.5472  0.4521
 3918TIP3    H133245   2.921   3.543  14.763 -0.5210  0.9440  0.2088
 3918TIP3    H233246   3.029   3.606  14.848 -0.5524 -1.1650  1.8472
 3919TIP3   OH233247   4.192   6.095  15.922  0.2057  0.5074  0.5895
 3919TIP3    H133248   4.161   6.173  15.876 -1.2702 -1.0298 -1.1160
 3919TIP3    H233249   4.261   6.127  15.979  0.2700  2.9221 -0.7579
 3920TIP3   OH233250   5.496   5.261   0.324  0.0639 -0.2919 -0.1867
 3920TIP3    H133251   5.580   5.223   0.298  0.9916  1.3897  0.2868
 3920TIP3    H233252   5.455   5.195   0.380  0.6076 -1.5443 -1.2545
 3921TIP3   OH233253   0.201   3.928   0.384  0.5512  0.1532  0.2617
 3921TIP3    H133254   0.155   3.988   0.443 -0.4970 -0.5178  0.1390
 3921TIP3    H233255   0.254   3.873   0.442 -1.7348 -1.5975  0.7402
 3922TIP3   OH233256   5.379   0.147   3.714  0.0134  0.0844 -0.3773
 3922TIP3    H133257   5.460   0.176   3.756 -0.3815  0.1632  0.3382
 3922TIP3    H233258   5.309   0.185   3.767 -0.4977  0.0775 -1.0331
 3923TIP3   OH233259   2.491   1.310   6.210  0.4518 -0.2865 -0.2617
 3923TIP3    H133260   2.483   1.287   6.302  0.4170  1.1457  0.1031
 3923TIP3    H233261   2.414   1.270   6.169 -0.1212 -0.0053  0.5213
 3924TIP3   OH233262   4.558   0.033  14.459  0.0975  0.2886 -1.1160
 3924TIP3    H133263   4.590  -0.039  14.405  0.2205  0.8612 -1.8370
 3924TIP3    H233264   4.634   0.061  14.510 -0.0998 -0.4591 -0.4209
 3925TIP3   OH233265   1.923   3.936  15.382 -0.4376 -0.2366 -0.0988
 3925TIP3    H133266   1.869   3.867  15.344  0.1209 -0.4346 -0.5369
 3925TIP3    H233267   1.872   4.016  15.369 -1.2998 -0.6229  0.8341
 3926TIP3   OH233268   1.684   5.682  16.422  0.0585  0.0427  0.6025
 3926TIP3    H133269   1.700   5.775  16.406  0.8096 -0.1200  0.4098
 3926TIP3    H233270   1.596   5.679  16.461  0.1587  0.8539  0.8889
 3927TIP3   OH233271   1.185   6.167  14.052  0.3938 -0.6372 -0.3837
 3927TIP3    H133272   1.192   6.106  13.978 -1.5878 -0.2984 -0.8783
 3927TIP3    H233273   1.103   6.144  14.094 -1.0797  2.5556 -1.3749
 3928TIP3   OH233274   3.534   1.290  11.356  0.0612 -0.7071  0.0374
 3928TIP3    H133275   3.557   1.210  11.403 -0.0359 -0.4596  0.5083
 3928TIP3    H233276   3.519   1.355  11.425 -0.0690 -0.3403 -0.3348
 3929TIP3   OH233277   3.098   2.664  14.463 -0.4735  0.1663  0.6272
 3929TIP3    H133278   3.155   2.727  14.507  0.4648 -0.5581  0.4819
 3929TIP3    H233279   3.101   2.586  14.519  0.4269 -0.6288 -0.4987
 3930TIP3   OH233280   0.198   6.034  15.688  0.0310  0.6869  0.0092
 3930TIP3    H133281   0.133   5.965  15.671  0.5389  0.3439 -0.5645
 3930TIP3    H233282   0.189   6.052  15.781 -1.9219  1.6977 -0.3321
 3931TIP3   OH233283   2.483   2.939   1.987 -0.1690  0.8495  0.3655
 3931TIP3    H133284   2.462   2.984   1.906 -1.6527 -1.7716 -0.7916
 3931TIP3    H233285   2.440   2.991   2.055  0.6487  2.7765 -0.5819
 3932TIP3   OH233286   0.344   4.931  16.544 -0.1592 -0.4955  0.2873
 3932TIP3    H133287   0.266   4.884  16.572 -1.2979  1.3064  0.2072
 3932TIP3    H233288   0.335   5.019  16.582  2.0812 -0.4069  0.7171
 3933TIP3   OH233289   0.729   2.068  13.516 -0.6661 -0.1012  0.4003
 3933TIP3    H133290   0.716   2.129  13.588 -0.2365 -0.5003  0.8198
 3933TIP3    H233291   0.678   2.105  13.444 -1.3079  0.1585  0.9842
 3934TIP3   OH233292   6.692   5.961  11.099  0.4580  0.1089  0.1357
 3934TIP3    H133293   6.722   5.905  11.028  0.1145 -0.4311  0.4137
 3934TIP3    H233294   6.625   6.016  11.060 -1.1534 -1.5454  0.5010
 3935TIP3   OH233295   6.538   4.590  10.784 -0.0883 -0.0285 -0.2757
 3935TIP3    H133296   6.578   4.593  10.697  2.1358  1.4508  0.7425
 3935TIP3    H233297   6.495   4.675  10.794 -1.1957 -0.5785 -0.3089
 3936TIP3   OH233298   4.845   4.770   5.601 -0.5656  0.0460 -1.0943
 3936TIP3    H133299   4.774   4.813   5.553  0.4816  2.6472 -0.4390
 3936TIP3    H233300   4.813   4.682   5.618 -2.8870  0.5869 -2.4029
 3937TIP3   OH233301   2.884   1.311  12.655 -0.0839  0.1260  0.3294
 3937TIP3    H133302   2.859   1.218  12.649 -2.5289  0.7998 -0.5718
 3937TIP3    H233303   2.899   1.325  12.749  0.0113 -1.1088  0.5106
 3938TIP3   OH233304   0.897   2.243  16.628 -0.2341  0.2226  0.1571
 3938TIP3    H133305   0.877   2.255  16.721  1.3362  0.3921  0.4892
 3938TIP3    H233306   0.993   2.233  16.625 -0.3983 -1.0819 -1.3023
 3939TIP3   OH233307   3.993   1.585  11.947  0.0196 -0.6056 -0.0334
 3939TIP3    H133308   4.034   1.597  11.861 -1.3964 -0.0227 -0.6521
 3939TIP3    H233309   3.917   1.530  11.930 -1.9586  1.9029  0.3158
 3940TIP3   OH233310   4.552   5.040  13.047 -0.1106 -0.4944 -0.2806
 3940TIP3    H133311   4.633   4.990  13.055  1.8597  2.6927  0.6593
 3940TIP3    H233312   4.511   5.034  13.134 -1.2574 -2.5904 -0.9193
 3941TIP3   OH233313   2.062   1.950  17.287  0.6146 -0.2334 -0.0261
 3941TIP3    H133314   2.017   2.023  17.246 -0.0113 -0.2848  0.5528
 3941TIP3    H233315   2.022   1.872  17.248  0.3376 -0.2784  0.3493
 3942TIP3   OH233316   1.938   0.888   2.222 -0.1041 -0.5578 -0.5528
 3942TIP3    H133317   1.872   0.890   2.291  2.0063 -2.6570  1.6254
 3942TIP3    H233318   2.012   0.938   2.257  0.7421 -1.0872 -1.5438
 3943TIP3   OH233319   0.607   2.950   4.935  0.0217 -0.0050  0.6188
 3943TIP3    H133320   0.696   2.933   4.967  0.8832  0.3608 -1.4790
 3943TIP3    H233321   0.590   2.879   4.873 -0.3073  1.1430 -0.6191
 3944TIP3   OH233322   6.813   3.632   3.488  1.2609  0.9606 -0.2974
 3944TIP3    H133323   6.735   3.689   3.490  0.0279 -0.7101  0.4159
 3944TIP3    H233324   6.786   3.554   3.536  2.8194 -0.3587 -1.5447
 3945TIP3   OH233325   3.213   3.507  10.947 -0.1094  0.1395 -0.1680
 3945TIP3    H133326   3.180   3.531  11.034  0.9754  0.6309  0.1061
 3945TIP3    H233327   3.175   3.572  10.888  1.4534  1.5389  0.3390
 3946TIP3   OH233328   4.737   3.017  12.202 -0.2732  0.2541  0.3797
 3946TIP3    H133329   4.810   3.026  12.263 -0.3141  0.3724  0.4128
 3946TIP3    H233330   4.659   3.036  12.254 -0.4173 -0.8443  0.5812
 3947TIP3   OH233331   4.012   4.253   3.008  0.0114 -0.2943  0.3196
 3947TIP3    H133332   3.964   4.280   3.086  0.1997 -1.4103  0.8346
 3947TIP3    H233333   4.008   4.157   3.010  0.0275 -0.3262 -1.0353
 3948TIP3   OH233334   4.996   3.418  15.689  0.7316 -0.1088 -0.4702
 3948TIP3    H133335   4.941   3.453  15.619 -0.0280  1.4816  0.9068
 3948TIP3    H233336   5.045   3.347  15.647 -0.5189  0.0940 -2.3354
 3949TIP3   OH233337   4.620   2.065  16.137  0.2804 -0.8431  0.4509
 3949TIP3    H133338   4.668   2.018  16.205  1.2147 -0.5784 -0.0125
 3949TIP3    H233339   4.546   2.106  16.183  0.3822 -1.4228  1.1351
 3950TIP3   OH233340   0.885   6.688  13.059  0.1354 -0.7383 -0.3360
 3950TIP3    H133341   0.869   6.677  13.153  2.4513  2.7436  0.5915
 3950TIP3    H233342   0.976   6.659  13.047  0.0891 -0.4827 -1.3338
 3951TIP3   OH233343   2.239   2.404   1.916 -0.2757 -0.1047  0.0032
 3951TIP3    H133344   2.262   2.312   1.904  0.1723 -0.0983  0.7797
 3951TIP3    H233345   2.318   2.452   1.891 -0.7337  0.0970 -1.0414
 3952TIP3   OH233346   5.230   0.143  16.687  0.0232  0.3327 -0.3641
 3952TIP3    H133347   5.316   0.186  16.686  0.1816  0.0166 -0.1971
 3952TIP3    H233348   5.243   0.065  16.633 -0.7414  1.4245 -2.1932
 3953TIP3   OH233349   6.761   4.107   1.960  0.5466 -0.1845  0.1513
 3953TIP3    H133350   6.692   4.043   1.940  0.3950 -0.8144  2.4987
 3953TIP3    H233351   6.718   4.172   2.016  0.7773  1.8546 -1.9883
 3954TIP3   OH233352   1.531   3.242  12.882 -0.3155  0.4670  0.0439
 3954TIP3    H133353   1.609   3.297  12.869 -0.1908  0.1054 -0.7724
 3954TIP3    H233354   1.520   3.239  12.977  0.9280  0.1751  0.1908
 3955TIP3   OH233355   6.818   6.011  14.628 -0.3005 -0.3241  0.0154
 3955TIP3    H133356   6.892   6.018  14.568 -0.0228  0.8889  0.4962
 3955TIP3    H233357   6.770   5.934  14.596  1.2068 -1.1951 -0.2329
 3956TIP3   OH233358   1.433   3.874   4.029  0.1693  0.8351 -0.2313
 3956TIP3    H133359   1.429   3.926   3.948  0.6006  0.8511 -0.2412
 3956TIP3    H233360   1.518   3.831   4.026 -0.7656 -1.0051 -0.9096
 3957TIP3   OH233361   5.164   4.763  15.271 -0.0652  0.1795  0.5885
 3957TIP3    H133362   5.108   4.817  15.326 -1.5089 -0.4443 -0.2423
 3957TIP3    H233363   5.151   4.798  15.182  1.7816  0.7980  0.5386
 3958TIP3   OH233364   0.466   2.954  15.959  0.4477 -0.0766  0.3257
 3958TIP3    H133365   0.408   2.953  15.883 -1.4792 -1.9104  1.7480
 3958TIP3    H233366   0.492   3.046  15.968  0.5162  0.2075 -2.3657
 3959TIP3   OH233367   6.190   4.412  12.334  0.0244  0.4007  0.0250
 3959TIP3    H133368   6.236   4.424  12.251  1.5314 -1.9689  0.4904
 3959TIP3    H233369   6.258   4.389  12.397 -1.3038  0.6720  1.6018
 3960TIP3   OH233370   2.563   4.323   5.090  0.3159 -0.8295 -0.1653
 3960TIP3    H133371   2.480   4.317   5.043 -0.6123  1.1146  1.1715
 3960TIP3    H233372   2.607   4.398   5.051  0.4462 -0.4814  0.6398
 3961TIP3   OH233373   3.624   0.124   6.394 -1.1738 -0.1707  0.3587
 3961TIP3    H133374   3.567   0.166   6.459 -0.6848  1.8699 -0.4687
 3961TIP3    H233375   3.712   0.144   6.424 -0.9500  1.8583 -1.5620
 3962TIP3   OH233376   2.968   0.072   5.603  0.2308 -0.1332 -0.3860
 3962TIP3    H133377   2.998  -0.017   5.584  1.1250  0.2872 -0.9583
 3962TIP3    H233378   3.034   0.108   5.662 -0.7905 -0.2740  0.8670
 3963TIP3   OH233379   6.738   2.767  13.694  0.4485  0.5385  0.1657
 3963TIP3    H133380   6.783   2.764  13.609  0.7973  0.8900  0.3387
 3963TIP3    H233381   6.653   2.727  13.676  1.2030 -1.0698  0.0768
 3964TIP3   OH233382   1.017   3.615   3.863  0.3593 -0.7107  0.1996
 3964TIP3    H133383   0.964   3.535   3.851  1.3573 -1.2788 -0.5201
 3964TIP3    H233384   1.107   3.585   3.853  0.7165  0.6123 -0.6197
 3965TIP3   OH233385   5.517   4.018   2.466 -0.1158 -0.5581  0.2220
 3965TIP3    H133386   5.434   3.973   2.453 -0.7322  0.3359  0.9984
 3965TIP3    H233387   5.569   3.996   2.388 -0.8206 -1.6636  0.0574
 3966TIP3   OH233388   6.251   2.145  16.468  0.3213 -0.0523 -0.3013
 3966TIP3    H133389   6.182   2.183  16.522 -1.1557  1.4910 -3.1718
 3966TIP3    H233390   6.218   2.058  16.444  1.2059 -0.9591  1.5639
 3967TIP3   OH233391   2.321   2.838   5.596 -0.2832  0.0464  0.8859
 3967TIP3    H133392   2.323   2.857   5.503 -1.2170  0.1828  0.8871
 3967TIP3    H233393   2.405   2.796   5.614 -0.5605 -1.0500 -0.2473
 3968TIP3   OH233394   2.488   4.737  10.688 -0.1140 -0.0305  0.1086
 3968TIP3    H133395   2.430   4.672  10.726 -1.5693  0.8138 -0.6356
 3968TIP3    H233396   2.542   4.688  10.625  0.9382 -1.0552  1.7588
 3969TIP3   OH233397   3.312   0.308  12.729 -0.2375  0.1548  0.3549
 3969TIP3    H133398   3.356   0.276  12.808 -0.3723  2.1892  1.2921
 3969TIP3    H233399   3.300   0.402  12.745 -1.2393  0.3863 -1.6324
 3970TIP3   OH233400   1.517   6.156  11.776 -0.3490  0.5075  0.4263
 3970TIP3    H133401   1.433   6.179  11.815 -0.6768  0.2994 -0.1375
 3970TIP3    H233402   1.494   6.097  11.704  0.3054  0.2005  0.4658
 3971TIP3   OH233403   6.167   6.240  14.505 -0.0936  0.4013  0.0277
 3971TIP3    H133404   6.096   6.185  14.538  1.0462 -0.8346  0.4651
 3971TIP3    H233405   6.196   6.290  14.581 -0.0215  0.3778  0.0151
 3972TIP3   OH233406   2.076   2.510  13.041 -0.1223 -0.3962  0.1082
 3972TIP3    H133407   2.004   2.485  12.983 -1.3441  0.4207  1.2406
 3972TIP3    H233408   2.070   2.448  13.114 -0.4553  0.4438  0.8028
 3973TIP3   OH233409   4.914   5.328  11.280  0.3267 -0.6728  0.4148
 3973TIP3    H133410   4.908   5.388  11.355 -0.3838 -1.2567  0.8314
 3973TIP3    H233411   4.873   5.376  11.208  1.9918  0.3299  0.1085
 3974TIP3   OH233412   3.357   4.421  14.715 -0.0813  0.4435 -0.0763
 3974TIP3    H133413   3.443   4.384  14.693  0.2293  0.3444  1.2501
 3974TIP3    H233414   3.370   4.460  14.802 -2.0832 -2.0223  1.4075
 3975TIP3   OH233415   6.331   5.238  12.937 -0.2040  0.0322  0.1379
 3975TIP3    H133416   6.383   5.318  12.927 -1.3700  0.8205  0.3733
 3975TIP3    H233417   6.371   5.176  12.875  0.1738  1.0546 -0.6566
 3976TIP3   OH233418   6.167   3.189  14.554  0.0571  0.0812  0.3005
 3976TIP3    H133419   6.220   3.265  14.577  2.4635 -1.8999  1.4119
 3976TIP3    H233420   6.138   3.153  14.637  1.0071 -1.6538 -0.0894
 3977TIP3   OH233421   1.120   1.734   4.249  0.2623 -0.3841 -0.8571
 3977TIP3    H133422   1.104   1.671   4.319 -2.0849  0.5071 -0.5322
 3977TIP3    H233423   1.181   1.690   4.190  0.8809 -1.8326  0.8292
 3978TIP3   OH233424   6.192   6.537   0.686  0.0190 -0.5063 -0.3487
 3978TIP3    H133425   6.208   6.443   0.695 -0.1653 -0.9551 -3.8055
 3978TIP3    H233426   6.147   6.562   0.766  1.9140 -2.9246  1.5490
 3979TIP3   OH233427   5.982   4.303   5.969  0.3632 -0.0045  0.7621
 3979TIP3    H133428   6.070   4.332   5.990  0.2842  1.5373 -0.9785
 3979TIP3    H233429   5.988   4.269   5.880 -0.9919  0.9536  0.2926
 3980TIP3   OH233430   1.321   2.854   0.807 -0.1148 -0.4458 -0.2807
 3980TIP3    H133431   1.356   2.799   0.736  1.0597 -1.2052  0.8628
 3980TIP3    H233432   1.288   2.791   0.872 -1.5029  0.2502 -0.2906
 3981TIP3   OH233433   4.065   5.894  13.761 -0.1672 -0.0078 -0.4740
 3981TIP3    H133434   3.979   5.922  13.794 -0.2691 -0.2392 -0.5436
 3981TIP3    H233435   4.122   5.969  13.777  0.0978 -0.6024  1.4520
 3982TIP3   OH233436   1.533   5.466   5.920  0.4101  0.0393 -0.4629
 3982TIP3    H133437   1.590   5.389   5.915  0.2516 -0.1890  1.2246
 3982TIP3    H233438   1.582   5.530   5.971 -0.5287  0.1166  0.3507
 3983TIP3   OH233439   4.543   5.849  16.190  0.1482 -0.5044  0.0459
 3983TIP3    H133440   4.589   5.850  16.274 -0.1433  0.4221  0.2088
 3983TIP3    H233441   4.606   5.886  16.127  0.0425 -0.3225  0.0458
 3984TIP3   OH233442   6.055   3.964   4.667 -0.0913 -0.6444  0.4958
 3984TIP3    H133443   6.067   3.962   4.762  1.2424 -1.2743  0.3212
 3984TIP3    H233444   5.961   3.954   4.654 -0.6861  2.4782  1.8556
 3985TIP3   OH233445   5.323   5.172  15.227  0.6297  0.4363 -0.2746
 3985TIP3    H133446   5.326   5.213  15.141  0.6157 -0.3249 -0.6472
 3985TIP3    H233447   5.377   5.093  15.218  1.7151  1.0314  0.7934
 3986TIP3   OH233448   6.279   3.739   5.919 -0.2247  0.0408  0.3988
 3986TIP3    H133449   6.266   3.734   5.824  1.4453 -1.1571  0.2197
 3986TIP3    H233450   6.191   3.727   5.956 -0.4914 -2.4580 -0.9236
 3987TIP3   OH233451   3.067   2.552   4.669  0.2588  0.7270 -0.2422
 3987TIP3    H133452   3.149   2.567   4.715  0.1440  0.7651 -0.0471
 3987TIP3    H233453   3.000   2.588   4.728  0.3146  3.2192 -1.6195
 3988TIP3   OH233454   4.826   2.417   4.488  0.3292  0.1018 -0.1581
 3988TIP3    H133455   4.868   2.490   4.442  0.5957 -0.3112 -0.5770
 3988TIP3    H233456   4.893   2.349   4.492 -0.1084 -0.3463 -0.3095
 3989TIP3   OH233457   4.563   4.023   0.814  0.7233 -0.0409 -0.3989
 3989TIP3    H133458   4.476   4.053   0.843 -0.8792 -2.0971 -2.9072
 3989TIP3    H233459   4.608   3.999   0.895 -1.6934 -0.5899  0.8268
 3990TIP3   OH233460   2.701   0.061  13.568  1.0696 -0.3273  0.3444
 3990TIP3    H133461   2.728  -0.019  13.523  1.0809 -0.0820 -0.0887
 3990TIP3    H233462   2.774   0.121  13.556  0.2960  0.3764 -0.9301
 3991TIP3   OH233463   6.356   3.224  10.841  0.4445 -0.6221  0.9107
 3991TIP3    H133464   6.280   3.237  10.897 -0.1407 -1.6125  0.3512
 3991TIP3    H233465   6.391   3.138  10.868 -0.8806 -1.9484 -1.4320
 3992TIP3   OH233466   2.685   5.140   2.991  0.4397 -0.7883 -0.4154
 3992TIP3    H133467   2.737   5.169   3.066  0.1289 -0.9093 -0.1546
 3992TIP3    H233468   2.731   5.062   2.959 -0.7498 -2.1407  1.1094
 3993TIP3   OH233469   1.780   1.151   1.011 -0.1917  0.1593 -0.1167
 3993TIP3    H133470   1.827   1.109   0.939  0.8350  1.4155 -0.1914
 3993TIP3    H233471   1.805   1.100   1.088  0.6456  0.3003 -0.2877
 3994TIP3   OH233472   5.930   2.954   0.445  0.0694 -0.6411  0.0461
 3994TIP3    H133473   6.009   2.900   0.446  0.2694 -0.3536  2.0421
 3994TIP3    H233474   5.919   2.978   0.353  1.7179 -1.5223 -0.4157
 3995TIP3   OH233475   6.083   4.759   5.938 -0.0462 -0.2567  0.4717
 3995TIP3    H133476   6.099   4.757   6.032  2.3577 -0.2125  0.1084
 3995TIP3    H233477   6.041   4.843   5.922 -0.8160 -0.4316  1.5556
 3996TIP3   OH233478   5.249   1.622   2.634 -0.1012 -0.2632  0.4115
 3996TIP3    H133479   5.175   1.630   2.694  0.1885 -1.0402  0.8809
 3996TIP3    H233480   5.245   1.532   2.602  0.3480 -0.1591  0.0505
 3997TIP3   OH233481   1.112   5.830   4.238  0.6764 -0.5807 -0.1510
 3997TIP3    H133482   1.052   5.756   4.231 -0.0268 -0.2255  1.7038
 3997TIP3    H233483   1.089   5.871   4.322  2.7791  0.2033  0.0682
 3998TIP3   OH233484   2.498   6.213  11.253 -0.1765 -0.1000  0.0996
 3998TIP3    H133485   2.564   6.168  11.199  0.4247  0.2257  0.5516
 3998TIP3    H233486   2.435   6.144  11.275 -0.5793 -0.1660 -1.2481
 3999TIP3   OH233487   1.335   0.380  11.882  0.2482 -0.1174 -0.5289
 3999TIP3    H133488   1.259   0.339  11.923 -0.3304  0.7001 -0.7925
 3999TIP3    H233489   1.300   0.453  11.832  1.1862  0.1599 -0.7950
 4000TIP3   OH233490   0.593   4.929   4.597 -0.0875  0.4730 -0.5229
 4000TIP3    H133491   0.542   4.880   4.661  1.7340 -0.8161  0.0060
 4000TIP3    H233492   0.667   4.871   4.576  0.8086  2.0069 -1.7308
 4001TIP3   OH233493   1.913   2.628   2.768  0.3668 -0.3969  0.1100
 4001TIP3    H133494   1.842   2.648   2.830  1.4090  0.3369  1.0781
 4001TIP3    H233495   1.883   2.665   2.685 -0.0746  0.5415  0.6839
 4002TIP3   OH233496   2.525   0.485   1.069  0.0621  0.9977 -0.2242
 4002TIP3    H133497   2.592   0.525   1.125 -0.2979  1.1224  0.1193
 4002TIP3    H233498   2.546   0.516   0.981  0.9071  0.4310 -0.2258
 4003TIP3   OH233499   0.558   2.719   3.471 -0.8653  0.1779  0.1575
 4003TIP3    H133500   0.569   2.629   3.440  0.2211 -0.1888  1.5522
 4003TIP3    H233501   0.485   2.715   3.532 -2.2778  0.6897 -1.4539
 4004TIP3   OH233502   1.405   5.698   5.214  0.1254  0.0322 -0.3379
 4004TIP3    H133503   1.453   5.629   5.167  1.6210  0.8280 -0.0227
 4004TIP3    H233504   1.316   5.693   5.178  1.4903  1.4159 -4.2322
 4005TIP3   OH233505   1.862   6.078  12.664 -0.5625 -0.2711 -0.3468
 4005TIP3    H133506   1.771   6.106  12.676  0.0540  0.6216  2.5489
 4005TIP3    H233507   1.882   6.026  12.741  1.3029 -0.7659 -1.1229
 4006TIP3   OH233508   6.382   4.316  14.078 -0.0513  0.3392  0.4387
 4006TIP3    H133509   6.306   4.346  14.127 -0.5086 -0.8967  0.4977
 4006TIP3    H233510   6.364   4.341  13.988 -1.7839 -2.3142  0.0094
 4007TIP3   OH233511   0.209   5.213   0.827  0.5898 -0.0381  0.2387
 4007TIP3    H133512   0.144   5.271   0.788  1.2674  1.1021  0.7890
 4007TIP3    H233513   0.163   5.169   0.898 -0.0367 -0.4876 -0.4416
 4008TIP3   OH233514   6.799   1.802   4.651 -0.6288  0.2775 -0.0012
 4008TIP3    H133515   6.759   1.886   4.627 -0.5918  0.0147 -1.0244
 4008TIP3    H233516   6.879   1.797   4.598  0.1288  0.2480  1.1362
 4009TIP3   OH233517   5.958   0.030   1.439 -0.0974 -0.3665 -0.8877
 4009TIP3    H133518   6.032   0.004   1.493  0.6512 -3.9018 -3.4772
 4009TIP3    H233519   5.883  -0.014   1.479  0.0031 -0.7532 -1.1246
 4010TIP3   OH233520   1.669   4.173   5.488  0.1487 -0.2704  0.2995
 4010TIP3    H133521   1.645   4.159   5.580 -1.2571  0.4785  0.0622
 4010TIP3    H233522   1.628   4.256   5.465  0.7058 -0.3311 -0.9435
 4011TIP3   OH233523   0.492   4.691  14.728  0.1334 -0.2206  0.1771
 4011TIP3    H133524   0.441   4.758  14.774 -0.1366 -0.6854  0.5552
 4011TIP3    H233525   0.475   4.709  14.635  0.5915  0.6491  0.2520
 4012TIP3   OH233526   2.668   5.219  15.399  0.1300 -0.0226 -0.1299
 4012TIP3    H133527   2.667   5.126  15.423 -0.8686 -0.2420 -1.0254
 4012TIP3    H233528   2.597   5.229  15.336  0.9083  1.1429 -0.8334
 4013TIP3   OH233529   0.889   3.106  13.336 -0.1659  0.2429  0.2316
 4013TIP3    H133530   0.817   3.136  13.390 -0.7495 -0.3355 -0.2152
 4013TIP3    H233531   0.925   3.186  13.297 -0.3795  0.5587  0.6795
 4014TIP3   OH233532   2.648   0.865   4.423  0.0407  0.1198 -0.1063
 4014TIP3    H133533   2.596   0.802   4.473  1.5798 -1.3882 -0.3702
 4014TIP3    H233534   2.731   0.821   4.407  1.5589  2.6211  0.5648
 4015TIP3   OH233535   5.431   2.204   3.605 -0.6222  0.5159 -0.1440
 4015TIP3    H133536   5.520   2.198   3.569 -0.8070  2.0044 -0.8668
 4015TIP3    H233537   5.376   2.222   3.529 -1.6442 -0.9641  0.2115
 4016TIP3   OH233538   0.205   3.100   0.584  0.5430 -0.2053 -0.0781
 4016TIP3    H133539   0.125   3.048   0.576  0.6472 -0.4261  0.3257
 4016TIP3    H233540   0.210   3.123   0.677 -0.8760  2.7085 -0.6594
 4017TIP3   OH233541   4.777   0.770   5.752 -0.0465  0.7036 -0.0261
 4017TIP3    H133542   4.818   0.684   5.761 -1.6209 -0.3783 -2.6928
 4017TIP3    H233543   4.846   0.832   5.775  1.3916 -1.2348  1.0308
 4018TIP3   OH233544   1.769   0.898  11.959  0.1070 -0.3992 -0.2414
 4018TIP3    H133545   1.812   0.894  11.873  1.1166 -0.5929  0.2614
 4018TIP3    H233546   1.813   0.970  12.005  0.4797 -1.1583  0.5964
 4019TIP3   OH233547   2.716   4.191   4.900 -0.5015  0.3369  0.0226
 4019TIP3    H133548   2.790   4.251   4.895  0.6760 -1.1812 -1.1879
 4019TIP3    H233549   2.669   4.218   4.979 -0.0125  2.8335 -0.4779
 4020TIP3   OH233550   3.120   6.528   5.097  0.1264 -0.8434 -0.0071
 4020TIP3    H133551   3.190   6.494   5.153 -0.4031 -1.9239  0.0215
 4020TIP3    H233552   3.106   6.618   5.127  1.7266 -0.5033 -0.2409
 4021TIP3   OH233553   2.345   2.150   2.333 -0.0034 -0.0325  0.4261
 4021TIP3    H133554   2.387   2.105   2.259 -0.2545 -0.5363  0.5900
 4021TIP3    H233555   2.262   2.103   2.346  0.8454 -1.0826  2.1817
 4022TIP3   OH233556   2.542   3.955  12.969 -0.0637 -0.0724  0.1121
 4022TIP3    H133557   2.515   4.003  13.048  1.1193  1.0114 -0.1320
 4022TIP3    H233558   2.601   3.887  13.002  0.9103  0.7635  0.0994
 4023TIP3   OH233559   0.231   5.285  14.548  0.1498  0.5192 -0.2653
 4023TIP3    H133560   0.183   5.226  14.607  1.5527 -0.7321 -0.3438
 4023TIP3    H233561   0.167   5.310  14.481 -0.7878  0.0355  0.4447
 4024TIP3   OH233562   5.679   2.083  12.475  0.2451 -0.0844  0.2918
 4024TIP3    H133563   5.726   2.089  12.392 -1.3157  0.8312 -0.5485
 4024TIP3    H233564   5.721   2.010  12.521 -0.2375 -1.9884 -2.1826
 4025TIP3   OH233565   5.055   2.874  15.363 -0.3245 -0.0102  0.0434
 4025TIP3    H133566   5.088   2.894  15.451 -0.8925  0.0627  0.2395
 4025TIP3    H233567   5.099   2.793  15.339  0.9386  0.7271 -0.1911
 4026TIP3   OH233568   3.097   0.776   0.444  0.3515 -0.0647 -0.8401
 4026TIP3    H133569   3.044   0.697   0.443 -2.0812  1.5436 -1.7712
 4026TIP3    H233570   3.109   0.799   0.352  0.8642  0.7821 -0.5736
 4027TIP3   OH233571   3.604   2.664  16.364 -0.3374  0.5514  0.0016
 4027TIP3    H133572   3.638   2.591  16.311  0.2428  1.6897 -1.2439
 4027TIP3    H233573   3.678   2.725  16.371 -1.8012  2.6426 -1.9593
 4028TIP3   OH233574   1.858   6.469  16.384 -0.0911  0.6596  0.4660
 4028TIP3    H133575   1.896   6.451  16.470 -4.0727  0.8078  2.3664
 4028TIP3    H233576   1.883   6.560  16.366 -0.0602  0.9557  1.9337
 4029TIP3   OH233577   0.450   1.087  11.066 -0.1928 -0.5546  0.5836
 4029TIP3    H133578   0.356   1.068  11.075  0.0243 -1.1562  1.7571
 4029TIP3    H233579   0.492   1.000  11.067  0.4061 -0.2689  0.4719
 4030TIP3   OH233580   6.738   5.885  16.407 -0.2939 -0.2568  0.6247
 4030TIP3    H133581   6.671   5.820  16.427 -0.1104  0.0718  2.4087
 4030TIP3    H233582   6.705   5.967  16.445 -0.3050  0.6089 -1.1777
 4031TIP3   OH233583   6.602   5.060  13.388  0.4133 -0.2558 -0.2257
 4031TIP3    H133584   6.583   4.967  13.400  0.6056 -0.0228  2.1323
 4031TIP3    H233585   6.698   5.066  13.389  0.3905  0.0496  0.3545
 4032TIP3   OH233586   1.072   1.571  15.984  0.5131 -0.6860 -0.4341
 4032TIP3    H133587   0.990   1.559  16.032 -0.1066 -0.2119 -1.3583
 4032TIP3    H233588   1.050   1.550  15.893  0.5744  2.7008 -1.2836
 4033TIP3   OH233589   0.777   1.580   5.301  0.3420 -0.6352 -0.4014
 4033TIP3    H133590   0.788   1.602   5.393  1.5136  0.0982 -0.7076
 4033TIP3    H233591   0.830   1.502   5.288 -0.1323 -0.9664 -0.3743
 4034TIP3   OH233592   3.641   4.219   4.391  0.1098  0.1945 -0.2349
 4034TIP3    H133593   3.590   4.282   4.441  0.4306  1.6644 -1.6937
 4034TIP3    H233594   3.709   4.189   4.452 -1.8161 -0.9867  1.3753
 4035TIP3   OH233595   1.713   6.808   2.914  0.5257 -0.2691 -0.1600
 4035TIP3    H133596   1.788   6.860   2.884 -0.1352  0.6721 -0.2165
 4035TIP3    H233597   1.701   6.833   3.005 -0.1543  0.1207 -0.3496
 4036TIP3   OH233598   5.269   3.707  12.735  0.1446  0.1040 -0.1821
 4036TIP3    H133599   5.205   3.772  12.766  1.4932  0.6678  1.4851
 4036TIP3    H233600   5.232   3.674  12.653 -3.1399 -0.8131  1.5873
 4037TIP3   OH233601   0.881   2.954  13.088  0.4613 -0.2782  0.4852
 4037TIP3    H133602   0.967   2.967  13.046  0.4273 -0.9557  0.2031
 4037TIP3    H233603   0.887   3.003  13.170  0.1694  1.9391 -0.7631
 4038TIP3   OH233604   0.193   5.817   4.620  0.3224 -0.2200  0.0159
 4038TIP3    H133605   0.156   5.738   4.578  1.5475 -0.8912  0.1863
 4038TIP3    H233606   0.288   5.806   4.612  0.5079  1.6962 -0.7983
 4039TIP3   OH233607   1.458   5.023   3.111  0.0599  0.2437 -0.3703
 4039TIP3    H133608   1.399   5.011   3.186  1.6777 -0.7358  0.7702
 4039TIP3    H233609   1.503   5.106   3.129 -0.6219  0.7605 -1.0117
 4040TIP3   OH233610   5.976   4.375   0.387  0.2205  0.1979 -0.3088
 4040TIP3    H133611   5.890   4.333   0.389  0.0598  0.4035 -2.2605
 4040TIP3    H233612   6.022   4.338   0.462 -0.8837 -1.4152 -0.3935
 4041TIP3   OH233613   3.116   1.539  13.266 -0.0954 -0.3932  0.0460
 4041TIP3    H133614   3.077   1.623  13.289  0.9116 -0.1108  0.7950
 4041TIP3    H233615   3.136   1.546  13.173 -1.1402 -0.2655 -0.1699
 4042TIP3   OH233616   6.699   4.613  14.907  0.0301 -0.2656  0.2116
 4042TIP3    H133617   6.638   4.606  14.981 -0.3717 -1.5291 -0.2258
 4042TIP3    H233618   6.783   4.585  14.943 -0.5077 -2.5102 -0.2057
 4043TIP3   OH233619   3.996   5.019   0.955  0.4099 -0.0865 -0.3277
 4043TIP3    H133620   3.945   5.057   0.883  0.7455  0.5287 -0.2482
 4043TIP3    H233621   3.933   4.969   1.006  0.3526 -1.4117 -1.6431
 4044TIP3   OH233622   5.922   3.194  16.299  0.1922  0.4636 -0.1123
 4044TIP3    H133623   5.954   3.254  16.367  1.7015 -1.4008  0.8866
 4044TIP3    H233624   5.991   3.192  16.234 -0.4225  0.7784 -0.7831
 4045TIP3   OH233625   3.063   4.471   2.508  0.0915  0.5237  0.1102
 4045TIP3    H133626   3.042   4.463   2.414 -0.6139 -1.0388  0.3758
 4045TIP3    H233627   3.141   4.527   2.510  0.4657  0.1066 -1.4564
 4046TIP3   OH233628   1.653   6.163  15.431  0.2133  0.3994 -0.3867
 4046TIP3    H133629   1.559   6.150  15.432  0.0431  1.6092 -0.6923
 4046TIP3    H233630   1.671   6.210  15.349  1.2324 -0.9228 -0.9561
 4047TIP3   OH233631   3.260   5.148   0.061  0.3638 -0.1927  0.2199
 4047TIP3    H133632   3.332   5.208   0.075 -0.2890  0.3099  1.5265
 4047TIP3    H233633   3.247   5.105   0.146 -0.9964 -0.1223  0.0662
 4048TIP3   OH233634   1.040   5.332   3.675 -0.1626 -0.0019  0.3108
 4048TIP3    H133635   0.971   5.371   3.728 -0.7049  0.0115 -0.3929
 4048TIP3    H233636   0.995   5.302   3.596  1.1336  2.9166 -1.6180
 4049TIP3   OH233637   2.692   1.925   3.228 -0.3391 -0.0937 -0.2220
 4049TIP3    H133638   2.696   1.841   3.275 -1.3521 -0.2221 -0.3474
 4049TIP3    H233639   2.723   1.990   3.291 -1.7299 -0.2576  0.6546
 4050TIP3   OH233640   0.117   0.733   1.404  0.4014  0.2403  0.0323
 4050TIP3    H133641   0.180   0.786   1.451  2.5209 -0.9617 -1.3493
 4050TIP3    H233642   0.159   0.714   1.320 -1.7860 -0.6070 -0.9244
 4051TIP3   OH233643   1.329   0.541  15.202 -0.5787 -0.1592  0.3317
 4051TIP3    H133644   1.348   0.465  15.257  1.3202  0.7829  1.0249
 4051TIP3    H233645   1.382   0.528  15.123  0.9696  1.1550  1.1106
 4052TIP3   OH233646   6.803   4.434  13.643  0.2185  0.3583  0.1177
 4052TIP3    H133647   6.735   4.413  13.579 -1.5908 -0.5947  2.2818
 4052TIP3    H233648   6.812   4.529  13.637 -1.5185  0.5407 -0.0062
 4053TIP3   OH233649   6.326   5.405  14.160  0.0346 -0.1673  0.0300
 4053TIP3    H133650   6.401   5.464  14.163 -0.5651  0.5394  1.1499
 4053TIP3    H233651   6.360   5.326  14.116  1.0306  0.6972 -0.7793
 4054TIP3   OH233652   3.522   4.701  16.687 -0.1182  0.3255 -0.2448
 4054TIP3    H133653   3.592   4.671  16.745  0.3827  0.9391 -0.5220
 4054TIP3    H233654   3.567   4.758  16.624 -0.2853 -1.9762 -2.5159
 4055TIP3   OH233655   5.559   1.362   5.643  0.2747 -0.3564 -0.0551
 4055TIP3    H133656   5.548   1.334   5.733 -1.9804 -1.0675 -0.5291
 4055TIP3    H233657   5.648   1.333   5.620  1.1815  0.5537  2.1483
 4056TIP3   OH233658   2.293   4.616  13.694 -0.7320  0.2940 -0.0077
 4056TIP3    H133659   2.329   4.530  13.672 -1.0000  0.2418 -0.2508
 4056TIP3    H233660   2.249   4.602  13.778 -1.2462  0.0585 -0.3136
 4057TIP3   OH233661   2.805   5.654   0.102 -0.1701 -0.2229  0.3352
 4057TIP3    H133662   2.897   5.680   0.107  0.1973 -1.5685  0.5942
 4057TIP3    H233663   2.804   5.578   0.043 -1.5058  1.5740 -2.0832
 4058TIP3   OH233664   2.203   5.527   0.748 -0.2838 -0.5315 -0.5133
 4058TIP3    H133665   2.209   5.467   0.822  3.5062 -3.2166 -2.7897
 4058TIP3    H233666   2.166   5.474   0.677 -0.3511  0.9153 -1.6001
 4059TIP3   OH233667   5.223   1.607  15.221  0.0654  0.8106 -0.4864
 4059TIP3    H133668   5.182   1.663  15.154 -1.2824 -0.3414 -0.6570
 4059TIP3    H233669   5.167   1.529  15.223 -0.6620  1.3581  2.8776
 4060TIP3   OH233670   1.540   6.221  14.655  0.0488  0.1119 -0.1437
 4060TIP3    H133671   1.509   6.211  14.564 -1.3950 -0.7159  0.4232
 4060TIP3    H233672   1.564   6.132  14.682 -0.0906  0.2606  0.4770
 4061TIP3   OH233673   4.261   1.794   5.925  0.6794 -0.0301  0.2029
 4061TIP3    H133674   4.353   1.819   5.933  0.5182  0.5207  0.3651
 4061TIP3    H233675   4.233   1.776   6.014 -0.1206  2.5277  0.5199
 4062TIP3   OH233676   6.578   1.715   5.449 -0.2521  0.3490 -0.0234
 4062TIP3    H133677   6.548   1.724   5.358 -0.6099  1.3897  0.1790
 4062TIP3    H233678   6.541   1.792   5.493 -1.4210 -0.9850  1.3651
 4063TIP3   OH233679   0.014   3.657   2.863 -0.5322  0.6363 -0.1420
 4063TIP3    H133680  -0.045   3.625   2.931  0.4332  1.1010  0.9188
 4063TIP3    H233681   0.056   3.577   2.829 -2.4794  0.1971 -1.5993
 4064TIP3   OH233682   1.356   5.809  16.858  0.8247 -0.5106  0.2988
 4064TIP3    H133683   1.265   5.829  16.837  0.3956 -1.9142  0.7730
 4064TIP3    H233684   1.405   5.886  16.829 -0.2729 -0.5705 -1.7877
 4065TIP3   OH233685   6.109   4.918   2.113 -0.2325 -0.8291 -0.0927
 4065TIP3    H133686   6.166   4.876   2.048  0.4618 -0.9677  0.6050
 4065TIP3    H233687   6.136   4.881   2.196 -0.3634  0.1870  0.4104
 4066TIP3   OH233688   1.017   4.373   2.380  0.8085  0.4226  0.2079
 4066TIP3    H133689   0.979   4.301   2.331  2.3918 -0.3088  0.0228
 4066TIP3    H233690   0.942   4.423   2.412 -0.2856 -0.8451 -0.3397
 4067TIP3   OH233691   1.610   5.460  17.157  0.0812 -0.8217  0.5802
 4067TIP3    H133692   1.696   5.416  17.154  0.3426 -0.1797 -2.7128
 4067TIP3    H233693   1.629   5.545  17.195  0.2033 -2.0704  3.4756
 4068TIP3   OH233694   0.042   2.502   0.885 -0.6890  0.2120  0.0144
 4068TIP3    H133695  -0.008   2.564   0.832 -1.8089 -0.1281  0.6477
 4068TIP3    H233696   0.098   2.456   0.822 -2.8972 -1.0544 -1.1053
 4069TIP3   OH233697   1.101   3.670  15.980 -0.3043  0.1512 -0.3038
 4069TIP3    H133698   1.036   3.638  15.918  1.4535 -1.0799 -1.5396
 4069TIP3    H233699   1.051   3.726  16.040 -2.5279 -0.9507 -1.0783
 4070TIP3   OH233700   4.476   2.587  17.112  0.1845  0.0695 -0.3070
 4070TIP3    H133701   4.517   2.655  17.164  0.6661 -0.3857 -0.0911
 4070TIP3    H233702   4.384   2.614  17.106  0.2587  0.4501  0.2346
 4071TIP3   OH233703   1.604   2.709  17.064 -0.2962  0.2710 -0.2632
 4071TIP3    H133704   1.637   2.619  17.058  0.9464  0.7099 -0.1098
 4071TIP3    H233705   1.510   2.699  17.078  0.1282 -1.0704  1.9971
 4072TIP3   OH233706   6.003   6.438  13.974  0.0703  0.1900  0.4667
 4072TIP3    H133707   6.099   6.448  13.975  0.2043 -1.0047 -0.2996
 4072TIP3    H233708   5.974   6.501  13.908  0.2831  0.8085  0.9472
 4073TIP3   OH233709   6.017   2.896  12.914  0.6437  0.2378  0.0714
 4073TIP3    H133710   6.107   2.875  12.938  1.2973  0.2371 -2.2388
 4073TIP3    H233711   6.025   2.962  12.845 -1.2095  2.2915  1.7580
 4074TIP3   OH233712   6.028   3.689  10.968  0.3896 -0.1128  0.6557
 4074TIP3    H133713   6.043   3.659  10.878 -1.4119 -2.4151  1.0895
 4074TIP3    H233714   5.937   3.667  10.986  0.0448  2.5009  2.2524
 4075TIP3   OH233715   1.479   2.449   0.266  0.1751  0.3448  0.1731
 4075TIP3    H133716   1.508   2.358   0.271 -2.1721 -0.4863 -0.7821
 4075TIP3    H233717   1.474   2.467   0.172 -1.0782  0.8687  0.3298
 4076TIP3   OH233718   5.800   5.115  14.584 -0.4889  0.0728  0.5798
 4076TIP3    H133719   5.823   5.066  14.663  0.6627  0.4884  0.5123
 4076TIP3    H233720   5.858   5.191  14.586 -2.3540  1.4945  0.7347
 4077TIP3   OH233721   3.680   0.108  13.046 -0.2592 -0.9077 -0.1732
 4077TIP3    H133722   3.699   0.051  13.121 -0.5235  0.0920  0.6736
 4077TIP3    H233723   3.765   0.136  13.015 -0.1628 -0.9233  0.0721
 4078TIP3   OH233724   0.051   1.414  16.278  0.9945  0.0943  0.0087
 4078TIP3    H133725   0.035   1.500  16.316  0.5306  0.4205 -0.9254
 4078TIP3    H233726   0.054   1.429  16.184 -0.0821 -1.0689 -0.2163
 4079TIP3   OH233727   6.240   2.136   1.022 -0.2952 -0.6125 -0.0275
 4079TIP3    H133728   6.145   2.126   1.020 -0.4256  0.4327  0.7373
 4079TIP3    H233729   6.260   2.164   1.111  0.9283 -2.6814  0.3561
 4080TIP3   OH233730   3.627   6.582   0.717  0.2268 -0.4937 -0.6333
 4080TIP3    H133731   3.551   6.562   0.772  0.5097 -2.1145 -0.7985
 4080TIP3    H233732   3.607   6.666   0.677 -0.8012 -0.1811  0.5116
 4081TIP3   OH233733   2.041   4.353   4.363 -0.1803 -0.2168 -0.0274
 4081TIP3    H133734   2.092   4.274   4.344  0.2767  0.2653 -0.8305
 4081TIP3    H233735   2.091   4.424   4.323 -1.5929  0.2389 -1.0164
 4082TIP3   OH233736   2.033   6.416   3.890 -0.1319 -0.4416  0.1584
 4082TIP3    H133737   2.100   6.371   3.942 -0.1971 -0.3961  0.2815
 4082TIP3    H233738   2.067   6.505   3.880 -0.3379 -0.3267  0.5088
 4083TIP3   OH233739   0.945   2.080  16.277  0.0785 -0.0941 -0.4943
 4083TIP3    H133740   0.953   2.159  16.224 -1.6061  0.7888  0.5386
 4083TIP3    H233741   0.995   2.098  16.356  0.4305 -0.4251 -0.6341
 4084TIP3   OH233742   5.139   6.498   0.576  0.0380  0.0616 -0.1084
 4084TIP3    H133743   5.228   6.487   0.609 -0.2354  1.3649  1.1285
 4084TIP3    H233744   5.145   6.569   0.512  0.4922 -2.1851 -2.6612
 4085TIP3   OH233745   1.663   6.259   0.481  0.5121  0.3315 -0.2630
 4085TIP3    H133746   1.620   6.189   0.531 -0.4489  0.5392 -0.7930
 4085TIP3    H233747   1.701   6.215   0.405 -0.6600  0.4912 -0.9374
 4086TIP3   OH233748   6.211   2.104   2.678  0.2739 -0.0425  0.5532
 4086TIP3    H133749   6.255   2.019   2.675 -1.3313 -0.9285  1.4292
 4086TIP3    H233750   6.205   2.125   2.771 -0.0538  0.6483  0.3786
 4087TIP3   OH233751   0.396   2.583  11.678 -0.4954 -0.4145 -0.0444
 4087TIP3    H133752   0.379   2.617  11.766 -2.4742 -1.1920 -0.0977
 4087TIP3    H233753   0.315   2.601  11.629 -0.0868 -1.6075 -1.1947
 4088TIP3   OH233754   1.722   2.598  11.543  0.4153 -0.8437 -0.0598
 4088TIP3    H133755   1.641   2.565  11.506  1.5799 -1.8045 -1.8454
 4088TIP3    H233756   1.750   2.531  11.605 -0.0982 -0.5695  0.4647
 4089TIP3   OH233757   0.644   5.273   0.593  0.3512 -0.4145 -0.4635
 4089TIP3    H133758   0.560   5.259   0.638 -0.1777  1.8526 -0.6730
 4089TIP3    H233759   0.625   5.258   0.501  0.0929  0.3326 -0.5391
 4090TIP3   OH233760   3.073   5.794  16.603  0.1868 -0.1763  0.1372
 4090TIP3    H133761   3.044   5.886  16.604  2.0468  0.4585 -1.4142
 4090TIP3    H233762   3.025   5.755  16.530  1.4056  0.2773 -0.9294
 4091TIP3   OH233763   6.419   1.762  15.648  0.1780 -0.6054  0.8988
 4091TIP3    H133764   6.418   1.738  15.555  0.4855  1.9996  0.2019
 4091TIP3    H233765   6.501   1.726  15.681  0.0251 -1.6255  0.2029
 4092TIP3   OH233766   5.421   4.666  14.853  0.0002  0.1485  0.3010
 4092TIP3    H133767   5.335   4.679  14.895 -0.0508 -0.5105  0.4077
 4092TIP3    H233768   5.464   4.751  14.860 -0.4689  0.3603  0.6567
 4093TIP3   OH233769   1.993   2.016  12.370  0.0868 -0.2143 -0.4604
 4093TIP3    H133770   2.069   2.008  12.312  0.8130 -0.1899  0.4815
 4093TIP3    H233771   2.019   2.082  12.435 -1.9040  2.1889 -1.9700
 4094TIP3   OH233772   5.459   2.576   6.633  0.2127 -0.4893 -0.1747
 4094TIP3    H133773   5.490   2.657   6.592  0.1689 -1.1389 -1.4779
 4094TIP3    H233774   5.370   2.566   6.602  0.1597 -0.9596  0.1295
 4095TIP3   OH233775   3.647   4.659   0.221  0.1445 -0.1052  0.1324
 4095TIP3    H133776   3.683   4.696   0.140  0.5004  0.4545  0.5440
 4095TIP3    H233777   3.593   4.729   0.258 -1.2870 -0.8972 -0.4120
 4096TIP3   OH233778   4.070   6.011  11.645  0.3728  0.2678 -0.2463
 4096TIP3    H133779   4.110   5.939  11.597  1.7445  0.0019  1.2185
 4096TIP3    H233780   4.085   6.088  11.591  1.7025 -0.0605 -0.3713
 4097TIP3   OH233781   4.419   5.325   0.557 -0.3035  0.5095 -0.4676
 4097TIP3    H133782   4.440   5.418   0.561  3.0400 -0.2111  1.1188
 4097TIP3    H233783   4.390   5.303   0.646  1.8505 -0.5162  0.0244
 4098TIP3   OH233784   5.662   2.728   0.739  0.4341 -0.3403 -0.5984
 4098TIP3    H133785   5.706   2.805   0.703  0.1084 -0.9491 -2.3099
 4098TIP3    H233786   5.625   2.758   0.822 -0.8297  1.6933 -1.8788
 4099TIP3   OH233787   2.496   1.597  12.279  0.0705  0.4141 -0.1254
 4099TIP3    H133788   2.467   1.661  12.344 -2.4824 -0.5127 -0.3277
 4099TIP3    H233789   2.579   1.565  12.314  0.0628  1.8704  1.3185
 4100TIP3   OH233790   1.400   0.222  15.075 -0.4667  0.0341 -0.0731
 4100TIP3    H133791   1.404   0.148  15.015  1.0734  0.5096 -0.5611
 4100TIP3    H233792   1.306   0.230  15.096 -0.5222 -2.8785  1.0774
 4101TIP3   OH233793   2.437   2.241   0.006  0.1925 -0.0558  0.1685
 4101TIP3    H133794   2.529   2.229   0.029  0.1446 -1.7028 -0.3959
 4101TIP3    H233795   2.390   2.178   0.061 -0.7099  1.4234  1.1334
 4102TIP3   OH233796   1.356   0.842  11.623  0.1689 -0.2157 -0.0643
 4102TIP3    H133797   1.385   0.912  11.566 -2.0019  0.7945  0.0193
 4102TIP3    H233798   1.353   0.881  11.711  0.8641 -0.9797  0.3091
 4103TIP3   OH233799   5.079   3.479  14.580 -0.2113 -0.4708 -0.4663
 4103TIP3    H133800   5.055   3.453  14.669  1.4406  0.3845  0.2593
 4103TIP3    H233801   5.129   3.405  14.547  0.2624 -0.2799 -0.1959
 4104TIP3   OH233802   5.442   6.486  13.378 -0.1424 -0.3999 -0.9954
 4104TIP3    H133803   5.434   6.433  13.456 -3.1261  0.6224 -0.5670
 4104TIP3    H233804   5.478   6.570  13.409 -1.7433  0.1603 -0.6416
 4105TIP3   OH233805   3.740   2.574  14.424 -0.5516  0.2047  0.4583
 4105TIP3    H133806   3.783   2.491  14.445 -1.2258 -0.3366 -0.2501
 4105TIP3    H233807   3.664   2.549  14.370 -0.1797  1.3468 -0.6343
 4106TIP3   OH233808   0.094   4.189  13.181  0.0705  0.7351  0.0240
 4106TIP3    H133809   0.187   4.204  13.197  0.2144  0.0490 -0.1737
 4106TIP3    H233810   0.052   4.270  13.210  0.6291  0.6708  1.0646
 4107TIP3   OH233811   1.773   2.759  14.454  0.0095  0.6733  0.1135
 4107TIP3    H133812   1.820   2.841  14.472  0.3271  0.8366 -1.4124
 4107TIP3    H233813   1.689   2.788  14.417  0.5339  0.3112 -1.4045
 4108TIP3   OH233814   5.036   6.272   2.579  0.0329  0.2074  0.3235
 4108TIP3    H133815   4.986   6.331   2.635 -0.5886 -0.6108  0.6532
 4108TIP3    H233816   4.972   6.207   2.551  0.9254 -0.9124  0.8261
 4109TIP3   OH233817   2.848   6.395  13.419  0.0585 -0.0258  0.0192
 4109TIP3    H133818   2.875   6.356  13.502 -0.0198 -1.4750 -0.6182
 4109TIP3    H233819   2.931   6.415  13.375  0.1031  1.1224  0.6069
 4110TIP3   OH233820   0.451   0.829   2.071 -0.0516  0.0299 -0.1954
 4110TIP3    H133821   0.386   0.803   2.136  0.3386  2.8768  1.4357
 4110TIP3    H233822   0.536   0.808   2.111  0.1227 -1.3793 -1.2648
 4111TIP3   OH233823   2.587   5.209  13.405  0.0975  0.1985 -0.1011
 4111TIP3    H133824   2.574   5.142  13.472 -2.3130  1.9016  1.2280
 4111TIP3    H233825   2.632   5.164  13.334  0.3090 -2.3217  1.5782
 4112TIP3   OH233826   1.109   0.746  11.568 -0.0011  0.5330  0.3292
 4112TIP3    H133827   1.067   0.802  11.503 -1.7011  0.3326  1.2089
 4112TIP3    H233828   1.193   0.788  11.587  0.7239  0.3387 -2.2981
 4113TIP3   OH233829   6.191   5.893  15.559  0.6271 -0.2451  0.4023
 4113TIP3    H133830   6.240   5.890  15.477  0.9034 -0.7825  0.5848
 4113TIP3    H233831   6.252   5.931  15.622  0.7832 -0.8510  0.6152
 4114TIP3   OH233832   3.107   0.250  16.974 -0.2335 -0.0222 -0.5894
 4114TIP3    H133833   3.057   0.229  16.895 -1.0296 -0.5625  0.0431
 4114TIP3    H233834   3.195   0.271  16.942 -1.3903  3.1098 -1.9401
 4115TIP3   OH233835   1.996   3.895  16.893  0.4686  0.0026  0.0135
 4115TIP3    H133836   1.972   3.875  16.803 -0.0395  2.5968 -0.4833
 4115TIP3    H233837   2.073   3.952  16.884  1.6894 -1.4250  1.2941
 4116TIP3   OH233838   2.921   1.274   5.770 -0.1624  0.2028  0.4950
 4116TIP3    H133839   2.918   1.324   5.851 -0.4225  0.7441  0.1541
 4116TIP3    H233840   2.918   1.182   5.798 -1.0315  0.3966  1.0681
 4117TIP3   OH233841   6.365   1.617   2.861  0.1499 -0.0210  0.1341
 4117TIP3    H133842   6.378   1.527   2.830 -1.2463 -0.1182 -0.1804
 4117TIP3    H233843   6.349   1.607   2.954  2.4060  0.1133  0.5618
 4118TIP3   OH233844   3.031   0.980  15.960 -0.7175  0.5836  0.1026
 4118TIP3    H133845   3.074   0.950  16.041  0.4156  0.9854 -0.3377
 4118TIP3    H233846   2.943   0.943  15.965  0.2288 -1.7316  0.2141
 4119TIP3   OH233847   0.809   0.186  15.790 -0.1337 -0.3624  0.3256
 4119TIP3    H133848   0.760   0.220  15.865 -1.4398  0.6923 -0.9733
 4119TIP3    H233849   0.841   0.264  15.745  0.0106 -0.9575 -0.6252
 4120TIP3   OH233850   2.814   2.474  10.911 -0.1653 -0.3979 -0.5443
 4120TIP3    H133851   2.808   2.419  10.834 -0.0575 -0.8697 -0.2162
 4120TIP3    H233852   2.868   2.548  10.884 -0.2442 -0.4925 -0.9597
 4121TIP3   OH233853   6.408   2.666   6.331  0.0269  0.1105 -0.2520
 4121TIP3    H133854   6.413   2.572   6.315 -2.0491 -0.0812  0.0421
 4121TIP3    H233855   6.462   2.681   6.408  1.0752 -0.7047 -0.8266
 4122TIP3   OH233856   2.582   2.557  14.912 -0.1657  0.4511 -0.2501
 4122TIP3    H133857   2.603   2.540  15.004  0.2898 -3.0387 -0.9367
 4122TIP3    H233858   2.667   2.575  14.871  0.1831 -2.2900 -0.7945
 4123TIP3   OH233859   0.500   3.317   3.727 -0.3766  0.2399 -0.4526
 4123TIP3    H133860   0.544   3.386   3.775 -0.2595 -0.0695 -0.1115
 4123TIP3    H233861   0.520   3.237   3.776  0.3095 -0.1695 -1.4105
 4124TIP3   OH233862   1.407   5.665  14.743  0.0562 -0.1170  0.2396
 4124TIP3    H133863   1.318   5.690  14.718  0.9481  2.3274 -0.6780
 4124TIP3    H233864   1.459   5.677  14.663  1.5643  0.4582  1.2763
 4125TIP3   OH233865   4.493   3.127   3.337 -0.0019  0.0246 -0.3310
 4125TIP3    H133866   4.568   3.075   3.307  0.1329 -0.5047  0.8705
 4125TIP3    H233867   4.418   3.068   3.328  0.0045 -0.0571  0.1240
 4126TIP3   OH233868   2.140   2.363  14.061  0.5598  0.7937 -0.0254
 4126TIP3    H133869   2.078   2.328  13.997  1.3528  1.2623 -1.0741
 4126TIP3    H233870   2.140   2.299  14.132  2.0298 -1.4072 -1.9224
 4127TIP3   OH233871   0.820   4.128  15.956 -0.6910 -0.1690  0.4294
 4127TIP3    H133872   0.889   4.126  15.890 -0.5019  1.2930  0.5822
 4127TIP3    H233873   0.850   4.069  16.024  0.6810  0.9126  0.7688
 4128TIP3   OH233874   5.683   5.036  13.003  0.0609  0.3792 -0.4422
 4128TIP3    H133875   5.662   4.948  12.972 -0.7995  0.4314 -0.0207
 4128TIP3    H233876   5.620   5.093  12.958  1.9784  1.0543 -2.3607
 4129TIP3   OH233877   3.121   1.905   5.923 -0.4474 -0.8109  0.0886
 4129TIP3    H133878   3.146   1.934   6.011 -0.9445  0.4289 -0.1723
 4129TIP3    H233879   3.078   1.821   5.938  0.9439 -1.4199  0.8597
 4130TIP3   OH233880   2.343   0.282   5.055 -0.4672  0.2892  0.1585
 4130TIP3    H133881   2.430   0.320   5.071 -0.6544  0.6462  0.3376
 4130TIP3    H233882   2.356   0.188   5.064 -0.1873  0.3697  0.6349
 4131TIP3   OH233883   6.402   3.269   3.767 -0.1749 -0.4258 -0.1917
 4131TIP3    H133884   6.474   3.322   3.732  0.8217 -1.0255  0.8899
 4131TIP3    H233885   6.402   3.290   3.861  0.7207 -2.8574  0.4006
 4132TIP3   OH233886   2.506   0.463   2.286 -0.5230 -0.2726  0.2811
 4132TIP3    H133887   2.517   0.506   2.371  2.4003  1.5877 -0.9411
 4132TIP3    H233888   2.551   0.379   2.296 -0.4400 -0.1819  0.6785
 4133TIP3   OH233889   2.714   5.740   1.182  0.1389 -0.2983 -0.3096
 4133TIP3    H133890   2.797   5.728   1.137  1.0724  1.1135  0.9991
 4133TIP3    H233891   2.700   5.835   1.182 -0.5942 -0.3906  1.0097
 4134TIP3   OH233892   2.817   2.655  11.365  1.0472 -0.0599  0.0457
 4134TIP3    H133893   2.848   2.602  11.291  0.0836 -1.1531  0.4021
 4134TIP3    H233894   2.742   2.703  11.330  0.5175 -0.6690  0.3482
 4135TIP3   OH233895   2.136   5.839   2.063  0.5804 -0.5141 -0.2271
 4135TIP3    H133896   2.140   5.785   1.984 -1.3670  0.3481 -0.9385
 4135TIP3    H233897   2.082   5.788   2.124  0.8712 -0.5232  0.0231
 4136TIP3   OH233898   6.153   1.484  15.279 -0.2986 -0.3582 -0.5072
 4136TIP3    H133899   6.185   1.475  15.369 -1.3766  0.3446 -0.0454
 4136TIP3    H233900   6.058   1.496  15.288 -0.1249  2.1354 -1.5693
 4137TIP3   OH233901   3.350   3.575  15.092  0.0788  0.6862  0.2664
 4137TIP3    H133902   3.435   3.607  15.061 -0.0462  0.8871  0.1202
 4137TIP3    H233903   3.291   3.649  15.075 -0.0412  0.6962  0.7480
 4138TIP3   OH233904   5.598   4.804  15.647  1.2555 -0.5535  0.6929
 4138TIP3    H133905   5.662   4.740  15.678  0.0721 -1.7615  0.7166
 4138TIP3    H233906   5.526   4.751  15.612 -0.1417  0.7601  1.5040
 4139TIP3   OH233907   5.749   6.156   0.068 -0.1191  0.3524 -0.0307
 4139TIP3    H133908   5.799   6.208   0.006  1.1566 -0.9642 -0.1248
 4139TIP3    H233909   5.682   6.113   0.014  0.7883 -0.5437 -0.4549
 4140TIP3   OH233910   0.544   4.461  17.126 -0.1174 -0.0045 -0.5174
 4140TIP3    H133911   0.610   4.413  17.176  0.7742  1.9753  0.2579
 4140TIP3    H233912   0.579   4.463  17.037  0.2242 -0.1300 -0.3875
 4141TIP3   OH233913   4.815   0.262  12.552 -0.0780  0.2840  0.1376
 4141TIP3    H133914   4.908   0.264  12.574 -0.0174  1.7982 -0.1289
 4141TIP3    H233915   4.770   0.286  12.633 -0.1796  0.3092  0.0750
 4142TIP3   OH233916   5.472   2.923  16.302 -0.3099 -0.0268 -0.2135
 4142TIP3    H133917   5.470   2.969  16.386  1.0732 -0.6022  0.1387
 4142TIP3    H233918   5.536   2.971  16.249  1.1010 -1.4773  0.1344
 4143TIP3   OH233919   0.601   5.514  13.198  0.0507 -0.1725 -0.6236
 4143TIP3    H133920   0.591   5.442  13.260  0.7216  0.2463 -0.0353
 4143TIP3    H233921   0.557   5.588  13.239  1.2797  0.3472 -0.2383
 4144TIP3   OH233922   4.092   3.081  12.445  0.8089 -0.1376 -0.0483
 4144TIP3    H133923   4.167   3.067  12.502  0.1584 -3.2085  0.1359
 4144TIP3    H233924   4.125   3.068  12.357  0.8961  0.3031 -0.0783
 4145TIP3   OH233925   0.729   2.003   4.047 -0.0992  0.1306  0.6877
 4145TIP3    H133926   0.691   1.935   3.992 -2.0675  1.9820 -0.3385
 4145TIP3    H233927   0.764   1.957   4.123  0.8395 -2.2702 -1.1174
 4146TIP3   OH233928   2.578   2.875  13.574 -0.1551 -0.3739 -0.2439
 4146TIP3    H133929   2.540   2.954  13.537 -1.1873 -1.0439 -0.6423
 4146TIP3    H233930   2.548   2.875  13.665  2.0737  1.0785  0.5320
 4147TIP3   OH233931   5.820   5.144  11.787  0.3940  0.3441 -0.0982
 4147TIP3    H133932   5.797   5.071  11.729  1.9042 -0.4455  0.2583
 4147TIP3    H233933   5.763   5.132  11.863 -0.3182  0.3287 -0.6261
 4148TIP3   OH233934   5.520   3.060   0.845 -0.3147 -0.4324  0.0018
 4148TIP3    H133935   5.544   3.017   0.763 -0.2396 -0.6279  0.1262
 4148TIP3    H233936   5.567   3.143   0.844 -0.6547 -0.2416 -0.3553
 4149TIP3   OH233937   1.834   3.981  14.779  0.3755  0.2520  0.0409
 4149TIP3    H133938   1.894   3.907  14.789  0.5307  0.4174  0.3433
 4149TIP3    H233939   1.851   4.014  14.690 -0.9256 -1.1510 -0.7455
 4150TIP3   OH233940   6.136   4.559  11.536 -0.1386 -0.1393 -0.4333
 4150TIP3    H133941   6.096   4.509  11.465  0.4995 -0.8729 -0.2780
 4150TIP3    H233942   6.062   4.604  11.578 -0.8919 -1.8887  0.1637
 4151TIP3   OH233943   2.167   6.016   6.665  0.5990 -0.4333  0.2178
 4151TIP3    H133944   2.252   6.049   6.636  0.1414 -0.2039 -0.9031
 4151TIP3    H233945   2.111   6.094   6.669  0.4448 -0.5814  0.9566
 4152TIP3   OH233946   5.950   1.882   1.171 -0.5664  0.2712 -0.4458
 4152TIP3    H133947   5.932   1.968   1.208 -0.4191  0.2043 -0.2197
 4152TIP3    H233948   5.907   1.883   1.085 -0.1801  0.7343 -0.6379
 4153TIP3   OH233949   0.251   0.081  14.141 -0.1931 -0.9331 -0.1677
 4153TIP3    H133950   0.217  -0.006  14.116  0.1036 -1.5032  1.3844
 4153TIP3    H233951   0.201   0.105  14.218  0.1523  0.0124 -0.2384
 4154TIP3   OH233952   3.500   2.076  16.661 -0.0942  0.1642 -0.0450
 4154TIP3    H133953   3.529   1.986  16.676  0.5912  0.4554  0.4041
 4154TIP3    H233954   3.578   2.129  16.674 -0.4716  0.8188 -0.4121
 4155TIP3   OH233955   6.307   3.638  11.440  0.0175  0.3703 -0.1139
 4155TIP3    H133956   6.299   3.594  11.355 -0.8338 -0.4578  0.3779
 4155TIP3    H233957   6.395   3.616  11.470  0.9677  2.1195 -1.5602
 4156TIP3   OH233958   6.270   6.643   0.226  0.5088 -0.4296 -0.0811
 4156TIP3    H133959   6.338   6.692   0.180  1.2918 -0.4998  0.9940
 4156TIP3    H233960   6.224   6.596   0.156  1.7728 -0.6582 -0.7784
 4157TIP3   OH233961   6.079   5.939   6.135 -0.1786  0.0746 -0.3162
 4157TIP3    H133962   6.051   5.977   6.219  0.9981  0.8315 -0.2686
 4157TIP3    H233963   6.131   5.863   6.160 -0.2513  0.0056 -0.3732
 4158TIP3   OH233964   1.624   0.816   2.944  0.1177  0.1971 -0.2266
 4158TIP3    H133965   1.626   0.894   2.889 -0.0146 -0.0083 -0.5260
 4158TIP3    H233966   1.561   0.836   3.012 -1.2999 -0.3458 -1.3541
 4159TIP3   OH233967   2.115   2.437   2.434 -0.4623 -0.0942  0.4510
 4159TIP3    H133968   2.135   2.495   2.507  1.8832  0.6899 -0.7732
 4159TIP3    H233969   2.101   2.352   2.475  1.4384  0.1961  1.7791
 4160TIP3   OH233970   6.253   4.413  13.140 -0.3277 -0.2713 -0.8643
 4160TIP3    H133971   6.279   4.376  13.055 -3.2721 -0.5286 -1.7285
 4160TIP3    H233972   6.216   4.498  13.118  2.0361  1.1899  0.6029
 4161TIP3   OH233973   6.371   4.037  12.507  0.2471 -0.2093  0.3999
 4161TIP3    H133974   6.371   3.991  12.423  0.4840 -1.5990  1.1617
 4161TIP3    H233975   6.310   3.989  12.561 -1.8887  2.1998  0.2379
 4162TIP3   OH233976   4.934   0.280  16.620 -0.2272 -0.1252  0.0092
 4162TIP3    H133977   5.007   0.227  16.652 -0.6618 -0.1759  0.9323
 4162TIP3    H233978   4.889   0.309  16.700 -1.4381 -0.4136 -0.5587
 4163TIP3   OH233979   6.609   0.168  15.135  0.0887  0.1230 -0.0097
 4163TIP3    H133980   6.651   0.192  15.218 -0.6033 -0.8440  0.6409
 4163TIP3    H233981   6.517   0.158  15.158 -0.3948  1.6455 -1.3005
 4164TIP3   OH233982   2.284   5.580   3.633  0.0629 -0.2859 -1.1514
 4164TIP3    H133983   2.324   5.493   3.646  0.2801 -0.1354 -0.7845
 4164TIP3    H233984   2.358   5.641   3.640 -0.0646 -0.0861 -1.5882
 4165TIP3   OH233985   4.395   3.303   1.286 -0.8522 -0.0336  0.7172
 4165TIP3    H133986   4.446   3.337   1.359 -1.8805  1.0199  0.9610
 4165TIP3    H233987   4.374   3.380   1.233 -0.2199 -0.7758 -0.6258
 4166TIP3   OH233988   0.324   2.084  14.945  0.1743 -0.4256  0.3603
 4166TIP3    H133989   0.405   2.042  14.915 -0.4685 -0.1524 -1.8671
 4166TIP3    H233990   0.259   2.014  14.940 -0.2465  0.0100 -0.3521
 4167TIP3   OH233991   1.064   2.329  12.157  0.2242  0.0488 -0.5419
 4167TIP3    H133992   1.044   2.421  12.143  0.7176  0.4388  1.1366
 4167TIP3    H233993   0.986   2.294  12.201 -0.2740 -0.5280 -1.8595
 4168TIP3   OH233994   0.631   3.739  16.734  0.2657 -0.2157  0.1421
 4168TIP3    H133995   0.567   3.783  16.678  0.9311  0.2036 -0.3091
 4168TIP3    H233996   0.716   3.775  16.705  0.6496 -0.3227  1.1233
 4169TIP3   OH233997   1.558   0.267   5.132 -0.0191 -0.1181 -0.5356
 4169TIP3    H133998   1.567   0.236   5.042  0.6996 -1.5364  0.0029
 4169TIP3    H233999   1.605   0.202   5.184 -2.0602 -0.3532  1.0629
 4170TIP3   OH234000   4.888   1.514   1.889  0.3069  0.1278 -0.3078
 4170TIP3    H134001   4.802   1.512   1.847  0.0180  1.4648  0.2131
 4170TIP3    H234002   4.909   1.421   1.904 -1.1067 -0.2074 -0.3033
 4171TIP3   OH234003   6.814   5.379   0.347 -0.2106 -0.5851  0.0045
 4171TIP3    H134004   6.890   5.388   0.291 -0.5037  0.8331 -0.1761
 4171TIP3    H234005   6.740   5.406   0.292 -0.5109  0.7022  1.0106
 4172TIP3   OH234006   2.740   4.599  15.747 -0.6759  0.1234  0.0307
 4172TIP3    H134007   2.662   4.646  15.776  1.1793  2.1616  1.7803
 4172TIP3    H234008   2.751   4.529  15.811 -1.9138 -1.1311 -1.0889
 4173TIP3   OH234009   2.618   4.522   3.152  0.2080 -0.2239  0.1178
 4173TIP3    H134010   2.669   4.462   3.098  2.1425  0.3672  1.2653
 4173TIP3    H234011   2.612   4.602   3.100 -2.0123 -1.2110 -1.2304
 4174TIP3   OH234012   2.128   3.682   4.695 -0.1171 -0.6286  0.5873
 4174TIP3    H134013   2.036   3.703   4.707  0.1075  0.7180  0.0464
 4174TIP3    H234014   2.164   3.675   4.783 -0.7732 -1.3339  0.7996
 4175TIP3   OH234015   0.800   3.499   3.622 -0.2166 -0.6593  0.2223
 4175TIP3    H134016   0.862   3.428   3.606 -1.3748 -1.1593 -2.3252
 4175TIP3    H234017   0.850   3.579   3.608  0.0831 -1.0463 -0.9632
 4176TIP3   OH234018   0.442   0.730   2.866  0.0523  0.5693  0.4661
 4176TIP3    H134019   0.532   0.764   2.873 -0.0973  0.9952  0.3134
 4176TIP3    H234020   0.411   0.727   2.957 -0.2743  1.7620  0.3979
 4177TIP3   OH234021   2.900   2.076  17.048 -0.1681  0.4354  0.2136
 4177TIP3    H134022   2.812   2.111  17.035 -0.5646 -0.9148 -0.8947
 4177TIP3    H234023   2.940   2.133  17.114 -1.4243  1.8208 -0.2102
 4178TIP3   OH234024   2.899   3.904  13.794  0.0015  0.0140 -0.7469
 4178TIP3    H134025   2.893   3.950  13.878 -2.2455  0.2543 -1.0174
 4178TIP3    H234026   2.958   3.831  13.811  1.6809  1.5787  0.3341
 4179TIP3   OH234027   3.322   2.352  14.357  0.3309 -0.5724  0.4332
 4179TIP3    H134028   3.396   2.299  14.387 -0.3409 -1.2174  0.9760
 4179TIP3    H234029   3.358   2.406  14.287  1.2485 -1.0888  0.4991
 4180TIP3   OH234030   3.126   0.141   3.588 -0.5117  0.1252 -0.1529
 4180TIP3    H134031   3.173   0.217   3.555 -0.3161 -0.2640 -0.7814
 4180TIP3    H234032   3.161   0.126   3.676  0.0161  0.2744 -0.3402
 4181TIP3   OH234033   3.724   4.262   0.253 -0.2912 -0.3706  0.4695
 4181TIP3    H134034   3.666   4.326   0.212 -1.2853 -0.1025  2.2142
 4181TIP3    H234035   3.676   4.179   0.247  0.8010 -0.8898 -1.3981
 4182TIP3   OH234036   0.499   3.617   0.236 -0.0148  0.0293 -0.3881
 4182TIP3    H134037   0.506   3.681   0.307 -0.2307 -0.9469  0.5237
 4182TIP3    H234038   0.409   3.584   0.243 -0.3531  0.6340 -1.7392
 4183TIP3   OH234039   2.140   5.517   1.609 -0.3060 -0.3701  0.0866
 4183TIP3    H134040   2.167   5.597   1.653 -1.0980 -0.0404 -0.0111
 4183TIP3    H234041   2.124   5.455   1.680  0.9750 -0.6612  0.1301
 4184TIP3   OH234042   0.146   3.358   5.877  0.3106 -0.0398 -0.4645
 4184TIP3    H134043   0.051   3.360   5.868  0.3869 -0.1777 -1.3717
 4184TIP3    H234044   0.179   3.366   5.787  1.1619  0.7009 -0.0945
 4185TIP3   OH234045   1.319   0.691   4.958 -0.2724  0.5291 -0.0819
 4185TIP3    H134046   1.375   0.656   4.889 -1.3788 -1.9034  0.2356
 4185TIP3    H234047   1.234   0.650   4.945 -0.7174  0.6204  2.2566
 4186TIP3   OH234048   0.783   0.507  16.330 -0.1929  0.3867  0.1844
 4186TIP3    H134049   0.836   0.456  16.391 -0.4730  0.5038  0.5281
 4186TIP3    H234050   0.718   0.444  16.297 -1.5969  0.8999  1.8598
 4187TIP3   OH234051   6.675   0.439  13.400  0.2992  0.6456 -0.7449
 4187TIP3    H134052   6.684   0.380  13.475  0.9495  1.5945 -0.0614
 4187TIP3    H234053   6.700   0.386  13.325 -1.8331 -0.7712 -0.5006
 4188TIP3   OH234054   1.871   1.046   0.485  0.0136  0.5360  1.2151
 4188TIP3    H134055   1.949   0.990   0.481  0.0762  0.7224 -0.4429
 4188TIP3    H234056   1.853   1.069   0.394 -1.8693  0.6664  1.6006
 4189TIP3   OH234057   4.881   0.773  12.478  0.1465  0.0684  0.3776
 4189TIP3    H134058   4.872   0.854  12.427  1.5070  0.4227  0.6750
 4189TIP3    H234059   4.808   0.776  12.540 -0.7048  0.3197 -0.6121
 4190TIP3   OH234060   3.401   2.371   2.898  0.2680 -0.2340 -0.5364
 4190TIP3    H134061   3.430   2.453   2.857  0.9995  0.5654  1.4818
 4190TIP3    H234062   3.478   2.315   2.897  0.3964 -0.0714  0.0708
 4191TIP3   OH234063   6.583   3.663  12.299 -0.5356  0.2245 -0.1340
 4191TIP3    H134064   6.507   3.652  12.242 -0.8227 -1.9658  0.6162
 4191TIP3    H234065   6.621   3.575  12.305  2.7744  1.4651 -1.4323
 4192TIP3   OH234066   5.920   5.193   0.735 -0.3250 -0.2159 -0.6743
 4192TIP3    H134067   5.884   5.212   0.648  3.2105 -0.5406 -2.2754
 4192TIP3    H234068   5.957   5.277   0.764 -0.8588 -0.2900  0.2414
 4193TIP3   OH234069   0.173   1.313   1.511  0.3510  0.4171 -0.3486
 4193TIP3    H134070   0.196   1.400   1.543 -0.4006 -0.3830  2.5135
 4193TIP3    H234071   0.199   1.253   1.582  0.1377 -1.6021 -1.9202
 4194TIP3   OH234072   0.127   5.537  11.518 -0.9640 -0.5329 -0.1286
 4194TIP3    H134073   0.043   5.543  11.564 -0.7697  2.7204 -0.0559
 4194TIP3    H234074   0.106   5.562  11.428  0.0318  1.0263  0.0544
 4195TIP3   OH234075   0.197   6.528  12.917 -0.5265 -0.2012 -0.0518
 4195TIP3    H134076   0.208   6.577  12.835  0.6148  3.2473  2.0599
 4195TIP3    H234077   0.262   6.458  12.913 -0.5658 -0.1434 -2.1173
 4196TIP3   OH234078   1.307   0.166   5.262 -0.2115 -0.4965 -0.1279
 4196TIP3    H134079   1.378   0.197   5.206  1.9100 -2.5670  1.3144
 4196TIP3    H234080   1.327   0.203   5.349 -2.0116  0.5194 -0.1102
 4197TIP3   OH234081   2.077   3.998   0.395 -0.1647  0.2202 -0.3737
 4197TIP3    H134082   2.052   4.033   0.480 -0.7495  2.0642 -1.2893
 4197TIP3    H234083   2.157   3.948   0.412 -0.3240  0.5070  1.2577
 4198TIP3   OH234084   0.705   4.679  15.934 -0.0949 -0.3418  0.8536
 4198TIP3    H134085   0.657   4.690  16.016  1.1792  0.1389  1.5351
 4198TIP3    H234086   0.677   4.593  15.902  0.3503 -1.0878  2.4196
 4199TIP3   OH234087   2.224   5.988  12.772 -0.3354  0.0438 -0.0011
 4199TIP3    H134088   2.303   6.021  12.815 -0.2909  0.1569 -0.1712
 4199TIP3    H234089   2.193   6.061  12.718 -0.8879  0.1974  0.5222
 4200TIP3   OH234090   1.722   3.277   3.897  0.1385  0.4532  0.4293
 4200TIP3    H134091   1.648   3.240   3.945  1.5655 -0.6579  1.8312
 4200TIP3    H234092   1.731   3.222   3.820 -0.6105  0.7039  0.1626
 4201TIP3   OH234093   6.061   4.542  12.781  0.6970 -0.0641  0.4112
 4201TIP3    H134094   6.125   4.605  12.814  0.6377  0.8017 -1.0806
 4201TIP3    H234095   6.037   4.490  12.858  1.7121  0.8862  1.3980
 4202TIP3   OH234096   4.357   5.293  14.483  0.1636 -0.3874 -0.9708
 4202TIP3    H134097   4.276   5.317  14.529  0.8238  3.0407 -1.4432
 4202TIP3    H234098   4.427   5.332  14.535  1.3172 -1.1405 -1.9264
 4203TIP3   OH234099   5.302   5.011  12.294 -0.5448 -0.3602  0.1453
 4203TIP3    H134100   5.245   4.980  12.225  1.1567 -2.0117 -0.5630
 4203TIP3    H234101   5.379   4.955  12.289  0.1171  0.2418  2.6281
 4204TIP3   OH234102   5.036   2.316  13.916  0.0573 -0.1699  0.1374
 4204TIP3    H134103   5.081   2.245  13.962  0.4104  0.1991  0.3618
 4204TIP3    H234104   4.993   2.273  13.842 -0.5411 -0.7696  0.8225
 4205TIP3   OH234105   0.344   4.486   3.088 -0.1206 -0.0701 -0.2835
 4205TIP3    H134106   0.396   4.561   3.060 -1.7174  1.6548  1.2145
 4205TIP3    H234107   0.345   4.491   3.184  0.4512 -2.4716 -0.1236
 4206TIP3   OH234108   3.945   5.747  14.866  0.1570  0.2885 -0.0203
 4206TIP3    H134109   4.026   5.748  14.815 -0.4526 -0.5686 -1.0326
 4206TIP3    H234110   3.936   5.656  14.895 -1.2088  0.0405 -1.1845
 4207TIP3   OH234111   2.572   2.894   0.687 -0.3610 -0.0300  0.3262
 4207TIP3    H134112   2.540   2.926   0.603 -0.8505 -0.6335  0.2845
 4207TIP3    H234113   2.558   2.799   0.684  1.0158 -0.2517  0.4803
 4208TIP3   OH234114   0.712   5.888  12.454  0.0211 -0.0257  0.6798
 4208TIP3    H134115   0.642   5.833  12.419  0.6784 -0.1237 -0.4917
 4208TIP3    H234116   0.734   5.847  12.538 -1.0266 -0.2369  0.8648
 4209TIP3   OH234117   6.782   5.724   3.601 -0.1341 -0.3931 -0.2070
 4209TIP3    H134118   6.707   5.744   3.656  0.5481  0.9609  0.2408
 4209TIP3    H234119   6.745   5.705   3.515 -0.9753  0.4287 -0.0281
 4210TIP3   OH234120   1.271   6.598   6.304 -0.3757  0.0803 -0.1564
 4210TIP3    H134121   1.200   6.652   6.268 -1.9073 -0.5110  1.8672
 4210TIP3    H234122   1.338   6.661   6.331 -1.3251  0.8467  0.4358
 4211TIP3   OH234123   2.172   4.079  16.488  0.1310  0.2286  0.3002
 4211TIP3    H134124   2.136   4.164  16.514  0.3051  0.9792 -1.8395
 4211TIP3    H234125   2.244   4.101  16.428 -1.0786 -1.4635 -1.8245
 4212TIP3   OH234126   5.652   2.361  12.471 -0.5102  0.4045  0.0304
 4212TIP3    H134127   5.656   2.266  12.466  3.0170  0.3779  1.7215
 4212TIP3    H234128   5.617   2.388  12.386 -1.1060 -2.3362 -0.6603
 4213TIP3   OH234129   6.552   2.891   5.051 -0.7058 -0.4379 -0.2934
 4213TIP3    H134130   6.476   2.833   5.053 -0.8705 -0.2153 -0.0518
 4213TIP3    H234131   6.596   2.870   4.969 -1.4309 -0.0594 -0.7849
 4214TIP3   OH234132   4.259   4.201   6.264  0.3936 -0.6785  0.1298
 4214TIP3    H134133   4.224   4.155   6.188 -0.9499  0.4268  0.0541
 4214TIP3    H234134   4.182   4.237   6.308  1.3598  1.0318  0.4772
 4215TIP3   OH234135   6.740   6.525  12.804 -0.3278 -0.5234  0.6694
 4215TIP3    H134136   6.739   6.507  12.710  1.2964  1.0046  0.3581
 4215TIP3    H234137   6.831   6.515  12.830 -0.4669  0.8304  1.7340
 4216TIP3   OH234138   5.562   4.368  11.761 -0.3692 -0.2196 -0.1001
 4216TIP3    H134139   5.503   4.443  11.748  1.6872  1.3242 -0.8553
 4216TIP3    H234140   5.578   4.366  11.855  0.9588  1.4248 -0.2683
 4217TIP3   OH234141   6.789   6.368   4.165 -0.0457 -0.2212 -0.6763
 4217TIP3    H134142   6.883   6.356   4.179 -0.2348 -1.9425 -0.8312
 4217TIP3    H234143   6.772   6.457   4.196  1.5027 -0.1392  0.0010
 4218TIP3   OH234144   0.053   4.710  12.785 -0.5157 -0.3903  0.3537
 4218TIP3    H134145   0.122   4.662  12.740 -1.1854 -0.5779 -0.4889
 4218TIP3    H234146   0.061   4.684  12.877  0.3016 -0.6815  0.2015
 4219TIP3   OH234147   0.974   2.434   3.509 -0.0784 -0.1076 -0.0681
 4219TIP3    H134148   0.919   2.505   3.477 -1.4699 -1.0231  0.2497
 4219TIP3    H234149   1.040   2.478   3.563  0.3759  1.1300 -1.5716
 4220TIP3   OH234150   5.005   2.594  17.273 -0.1706  0.3150 -0.0112
 4220TIP3    H134151   5.015   2.689  17.275 -0.5436  0.3324  0.9510
 4220TIP3    H234152   4.998   2.568  17.365 -2.1549 -0.4237 -0.3412
 4221TIP3   OH234153   1.890   1.587   3.931  0.2323  0.4068  0.0731
 4221TIP3    H134154   1.835   1.619   4.003  0.5560  0.8862  0.1096
 4221TIP3    H234155   1.949   1.524   3.973 -0.0215  0.1946  0.1086
 4222TIP3   OH234156   5.668   5.058  16.302 -0.1028 -0.2217  0.7743
 4222TIP3    H134157   5.584   5.105  16.306  0.1003  0.1131  1.1436
 4222TIP3    H234158   5.682   5.027  16.391 -0.0826 -0.7199  0.5955
 4223TIP3   OH234159   6.032   1.163   2.514 -0.4653 -0.5388  0.1577
 4223TIP3    H134160   6.060   1.233   2.455  0.2581 -1.0104 -0.0625
 4223TIP3    H234161   6.094   1.167   2.587 -0.2857 -1.0835  0.0400
 4224TIP3   OH234162   4.698   2.994  11.799 -0.6110  0.1724  0.2265
 4224TIP3    H134163   4.726   2.915  11.845  0.4072  0.2096 -0.3193
 4224TIP3    H234164   4.778   3.045  11.788 -0.7191 -0.1077 -2.1083
 4225TIP3   OH234165   0.665   6.555  12.931  0.1767 -0.1827 -0.1418
 4225TIP3    H134166   0.714   6.518  12.858 -0.3582 -0.3261 -0.4244
 4225TIP3    H234167   0.732   6.578  12.995  0.4928 -1.8124  0.1203
 4226TIP3   OH234168   0.250   1.379   1.014  0.3379 -0.5466 -0.7751
 4226TIP3    H134169   0.213   1.360   1.100  1.9078 -2.7735 -0.5609
 4226TIP3    H234170   0.186   1.439   0.973 -1.7578 -1.5927  0.8733
 4227TIP3   OH234171   1.858   3.842  12.090 -0.0172 -0.1727 -0.0200
 4227TIP3    H134172   1.845   3.936  12.104 -0.4102 -0.0616 -1.0896
 4227TIP3    H234173   1.889   3.809  12.175 -0.9234  0.7262  0.6679
 4228TIP3   OH234174   0.332   1.217   1.759 -0.4081 -0.1372  0.3363
 4228TIP3    H134175   0.361   1.126   1.751 -1.9930 -0.5563 -0.8304
 4228TIP3    H234176   0.302   1.224   1.850 -0.5823 -0.8632  0.3403
 4229TIP3   OH234177   3.957   3.201  13.558  0.1377  0.4507 -0.0561
 4229TIP3    H134178   3.953   3.192  13.463 -1.3721 -1.6445  0.1988
 4229TIP3    H234179   3.866   3.209  13.586  0.5957  1.5692  1.1906
 4230TIP3   OH234180   2.268   2.252   6.140  0.4207  0.1118 -0.1794
 4230TIP3    H134181   2.196   2.267   6.202  1.1902  3.1588  0.0442
 4230TIP3    H234182   2.344   2.233   6.195  1.0201  2.4572 -0.1400
 4231TIP3   OH234183   4.512   3.966  17.153 -0.0259  0.3057 -0.4723
 4231TIP3    H134184   4.421   3.968  17.182  0.7359  1.6607  2.0302
 4231TIP3    H234185   4.529   3.874  17.134 -1.2061 -0.3441  1.4682
 4232TIP3   OH234186   5.134   5.074  14.012 -0.8988 -0.1902  0.6039
 4232TIP3    H134187   5.046   5.052  13.981 -0.8105  0.7742 -0.3639
 4232TIP3    H234188   5.166   5.138  13.948  0.4368 -0.4087  1.0497
 4233TIP3   OH234189   3.960   5.141   4.897 -0.3364 -0.4124  0.5971
 4233TIP3    H134190   3.986   5.057   4.935  1.2621 -0.8530 -1.4194
 4233TIP3    H234191   4.040   5.178   4.862 -1.5034  0.6910 -0.9849
 4234TIP3   OH234192   4.036   1.513  15.851  0.1644 -0.4796 -0.0424
 4234TIP3    H134193   4.109   1.470  15.807  1.5133  2.3856 -0.7325
 4234TIP3    H234194   4.072   1.543  15.934 -0.1510  1.0880 -0.4576
 4235TIP3   OH234195   2.768   3.601   4.070 -0.0746  0.2189 -0.2578
 4235TIP3    H134196   2.675   3.608   4.087 -1.0156 -2.0880 -3.7351
 4235TIP3    H234197   2.798   3.691   4.059 -2.1394  0.9311 -0.2778
 4236TIP3   OH234198   4.619   4.574   2.094  0.2015  0.4265  0.0037
 4236TIP3    H134199   4.654   4.490   2.121 -1.0428  0.3208  1.3672
 4236TIP3    H234200   4.532   4.554   2.060 -0.3949  1.2447  1.0214
 4237TIP3   OH234201   3.377   4.277   1.753  0.7458  0.4871  0.2166
 4237TIP3    H134202   3.376   4.307   1.844 -0.6371 -1.1902  0.7949
 4237TIP3    H234203   3.464   4.301   1.721  0.1178  4.0342  0.9387
 4238TIP3   OH234204   2.803   3.038  13.118 -0.5947  0.0479  0.4478
 4238TIP3    H134205   2.743   3.097  13.163 -2.8069 -0.8869 -1.1815
 4238TIP3    H234206   2.751   2.960  13.098  1.5232 -1.3594  0.1553
 4239TIP3   OH234207   4.130   2.658   4.140 -0.4278 -0.2873  0.2568
 4239TIP3    H134208   4.134   2.751   4.117  3.1681 -0.7137 -1.1105
 4239TIP3    H234209   4.165   2.653   4.229 -0.4665 -0.3446  0.2686
 4240TIP3   OH234210   4.585   5.428  16.369 -0.4306  0.1936  0.0267
 4240TIP3    H134211   4.533   5.452  16.292 -2.4361  0.6783  1.4801
 4240TIP3    H234212   4.606   5.336  16.356 -2.5380 -0.3020 -0.1502
 4241TIP3   OH234213   6.498   0.562  12.468  0.1918 -0.1806 -0.7974
 4241TIP3    H134214   6.589   0.566  12.498  0.6402 -1.2409 -2.0038
 4241TIP3    H234215   6.448   0.547  12.548  1.2483 -1.4924 -0.3698
 4242TIP3   OH234216   3.808   2.243   5.144  0.0593  0.1407 -0.3067
 4242TIP3    H134217   3.843   2.164   5.185 -0.2682 -0.1817 -0.6438
 4242TIP3    H234218   3.773   2.213   5.060  0.3375  0.7199 -0.6364
 4243TIP3   OH234219   1.654   4.407  14.736 -0.6950 -0.4605 -0.0955
 4243TIP3    H134220   1.676   4.436  14.648 -1.3197  1.1560  0.2636
 4243TIP3    H234221   1.684   4.478  14.793 -2.6141 -0.3376  0.7786
 4244TIP3   OH234222   2.999   5.058  15.275 -0.3711 -0.1333  0.3090
 4244TIP3    H134223   3.062   5.004  15.228 -1.2290  1.2374 -2.5119
 4244TIP3    H234224   2.916   5.010  15.268 -0.9792  1.1127 -1.5884
 4245TIP3   OH234225   4.139   2.513  12.265  0.2525  0.1147 -0.6104
 4245TIP3    H134226   4.141   2.608  12.275 -0.2094  0.2767 -1.9646
 4245TIP3    H234227   4.174   2.497  12.177  1.1458 -1.0296 -0.0597
 4246TIP3   OH234228   5.527   2.459   2.927  0.4122 -0.0826  0.2166
 4246TIP3    H134229   5.540   2.552   2.914  2.2559 -0.1117  1.6468
 4246TIP3    H234230   5.551   2.419   2.843 -0.2908  0.6984 -0.3649
 4247TIP3   OH234231   3.753   4.625  12.894 -0.3655 -0.5106  0.7407
 4247TIP3    H134232   3.774   4.665  12.979 -0.0953  0.6169  0.1483
 4247TIP3    H234233   3.665   4.656  12.873 -0.2685 -0.4508  0.4153
 4248TIP3   OH234234   1.530   2.188  14.854  0.3712  0.8490 -0.2069
 4248TIP3    H134235   1.488   2.200  14.770 -1.5433  1.3761  0.8061
 4248TIP3    H234236   1.521   2.095  14.873  1.0731  0.6736 -0.7104
 4249TIP3   OH234237   0.222   5.019   6.812  0.6835  0.0531 -0.0797
 4249TIP3    H134238   0.175   4.946   6.771  0.8342  0.2052 -0.5346
 4249TIP3    H234239   0.266   4.980   6.888 -2.6757  0.5280  2.1974
 4250TIP3   OH234240   5.439   0.163  14.071 -0.2097 -0.0296  0.3288
 4250TIP3    H134241   5.415   0.179  13.980 -0.8859 -1.1929  0.2840
 4250TIP3    H234242   5.520   0.212  14.084 -0.5519  0.8030 -0.6600
 4251TIP3   OH234243   4.127   4.169  11.542 -0.4437 -0.1830  0.3142
 4251TIP3    H134244   4.141   4.079  11.573  1.4282  0.2103  0.6176
 4251TIP3    H234245   4.050   4.162  11.485 -0.6369 -1.8839  0.7550
 4252TIP3   OH234246   2.847   0.949  16.619  0.3509  0.2110 -0.0387
 4252TIP3    H134247   2.925   0.959  16.673  0.6018 -0.2032 -0.3247
 4252TIP3    H234248   2.862   1.006  16.544 -0.1368  1.0315  0.4757
 4253TIP3   OH234249   6.675   0.474   1.228  1.0483  0.1367 -0.1029
 4253TIP3    H134250   6.735   0.446   1.297  2.3042  2.6361 -0.1197
 4253TIP3    H234251   6.731   0.492   1.153 -0.0878 -0.6084 -1.1434
 4254TIP3   OH234252   0.491   5.153   4.781  0.2401  0.2378 -0.3053
 4254TIP3    H134253   0.424   5.193   4.725 -0.7718 -0.6000  0.3067
 4254TIP3    H234254   0.543   5.100   4.721 -1.4300 -1.4261 -0.3080
 4255TIP3   OH234255   1.554   4.150  17.074  0.3424  0.0878  0.0622
 4255TIP3    H134256   1.615   4.220  17.052  0.0896  0.1441 -0.4865
 4255TIP3    H234257   1.609   4.077  17.101  0.5337  1.2376  2.8896
 4256TIP3   OH234258   0.237   1.799  14.433  0.4187 -0.3797  0.0220
 4256TIP3    H134259   0.312   1.849  14.467 -0.9486  0.8300  1.3556
 4256TIP3    H234260   0.192   1.860  14.374 -2.0890  0.5758  2.7871
 4257TIP3   OH234261   1.774   2.157  15.554  0.7312 -0.3969  0.8466
 4257TIP3    H134262   1.795   2.246  15.582 -0.4954  0.0020  0.5460
 4257TIP3    H234263   1.858   2.113  15.547  1.4043  0.9555  0.3132
 4258TIP3   OH234264   2.575   6.812   5.765 -0.4649  0.2483 -0.3001
 4258TIP3    H134265   2.512   6.746   5.736 -0.1167  0.3990 -1.4558
 4258TIP3    H234266   2.526   6.867   5.826 -0.8770 -0.8180  0.3392
 4259TIP3   OH234267   4.258   0.952   6.632  0.1116 -0.4525  0.8147
 4259TIP3    H134268   4.347   0.974   6.606  0.3231 -0.2792  1.6680
 4259TIP3    H234269   4.211   0.938   6.549  0.4241  1.4119  0.2988
 4260TIP3   OH234270   4.266   4.319  13.069  0.1122 -0.3175  0.6011
 4260TIP3    H134271   4.177   4.299  13.098 -0.5099  0.8941 -0.4168
 4260TIP3    H234272   4.301   4.236  13.036 -1.2798 -0.4322 -0.6369
 4261TIP3   OH234273   1.951   5.305  15.564  0.2534 -0.0340  0.0888
 4261TIP3    H134274   1.959   5.360  15.486  1.9965 -1.2912 -0.6431
 4261TIP3    H234275   2.009   5.346  15.628 -0.3527  0.3860  0.3717
 4262TIP3   OH234276   2.302   5.763   1.650 -0.3317 -0.7847  0.2288
 4262TIP3    H134277   2.366   5.811   1.703  1.4114 -1.8486 -0.8680
 4262TIP3    H234278   2.349   5.742   1.569 -1.8046 -2.3154 -0.2562
 4263TIP3   OH234279   6.686   2.316  13.737 -0.2511 -0.4546  0.0917
 4263TIP3    H134280   6.746   2.302  13.810 -0.2949 -1.6806 -0.0832
 4263TIP3    H234281   6.722   2.391  13.690 -0.3912  0.5310  1.5306
 4264TIP3   OH234282   5.530   4.511  15.131 -0.2358  1.3393 -0.1892
 4264TIP3    H134283   5.509   4.596  15.170 -1.2801  0.9257  0.1693
 4264TIP3    H234284   5.483   4.448  15.186  0.8477  0.4975 -0.2132
 4265TIP3   OH234285   5.077   3.747  12.984  0.2323  0.6844 -0.4339
 4265TIP3    H134286   5.118   3.686  13.045 -0.1764  0.4186 -0.4177
 4265TIP3    H234287   4.994   3.705  12.960  0.3032  0.8715 -1.0279
 4266TIP3   OH234288   5.742   6.044  14.474  0.6215  0.0116 -0.4828
 4266TIP3    H134289   5.822   6.058  14.524  0.7334 -3.1812  0.3715
 4266TIP3    H234290   5.696   5.974  14.521 -0.9541 -0.6590 -2.8834
 4267TIP3   OH234291   5.901   4.049   3.380 -0.8103  0.1836 -0.2328
 4267TIP3    H134292   5.814   4.074   3.348  0.5303  1.8179 -2.7677
 4267TIP3    H234293   5.952   4.031   3.301  1.7059  1.1349  1.1093
 4268TIP3   OH234294   1.003   4.368  11.528 -0.0086 -0.1987 -0.1079
 4268TIP3    H134295   0.983   4.455  11.562 -0.1527 -0.5955  0.8408
 4268TIP3    H234296   1.095   4.373  11.502 -0.0592  0.2812 -0.1885
 4269TIP3   OH234297   3.610   4.849   3.387 -0.2290 -0.1512  0.1890
 4269TIP3    H134298   3.649   4.847   3.300  0.4345  3.0194  0.3554
 4269TIP3    H234299   3.516   4.840   3.372 -0.0994  0.2110 -0.8408
 4270TIP3   OH234300   2.953   3.195  11.902  0.2093  0.4872 -0.4568
 4270TIP3    H134301   2.918   3.278  11.869  1.1203  0.9980 -0.1851
 4270TIP3    H234302   2.949   3.204  11.997 -0.3371 -0.0682 -0.4293
 4271TIP3   OH234303   4.753   5.567  10.834  0.8374 -0.0621 -0.1775
 4271TIP3    H134304   4.729   5.647  10.789 -0.0375  0.6595  1.5367
 4271TIP3    H234305   4.789   5.511  10.765 -0.7763  0.8672 -1.8303
 4272TIP3   OH234306   6.813   5.700  15.441  0.7751  0.6047 -0.3464
 4272TIP3    H134307   6.726   5.684  15.405  0.2310  0.6871  0.9043
 4272TIP3    H234308   6.835   5.788  15.413 -0.5317  1.4692  1.2192
 4273TIP3   OH234309   4.504   1.382   3.293 -0.1760  0.2692 -0.5415
 4273TIP3    H134310   4.538   1.368   3.382 -0.3456 -0.8508 -0.6447
 4273TIP3    H234311   4.582   1.396   3.240 -0.0383  0.3714 -0.3123
 4274TIP3   OH234312   0.118   0.238   5.137 -0.3446  0.2530 -0.1291
 4274TIP3    H134313   0.073   0.320   5.117  0.3032  0.4081 -0.9671
 4274TIP3    H234314   0.102   0.183   5.061  2.7546  1.1015 -1.4537
 4275TIP3   OH234315   0.587   2.197   2.683  0.2987  0.1537 -0.1898
 4275TIP3    H134316   0.587   2.135   2.611 -1.1123 -1.4767  1.1715
 4275TIP3    H234317   0.661   2.169   2.738 -1.3605 -1.3820  1.2897
 4276TIP3   OH234318   2.861   3.067   2.385 -0.4045  0.5694  0.0928
 4276TIP3    H134319   2.892   3.097   2.470 -2.0879  2.1496  0.1706
 4276TIP3    H234320   2.777   3.111   2.373 -1.1753 -1.2491 -1.4647
 4277TIP3   OH234321   3.453   4.148  13.896  0.2424 -0.2938 -0.6760
 4277TIP3    H134322   3.403   4.066  13.898  0.7054 -0.5422  0.8831
 4277TIP3    H234323   3.386   4.216  13.893 -0.2211 -0.6328  1.2209
 4278TIP3   OH234324   0.139   3.162   2.587 -0.3453  0.1163 -0.0968
 4278TIP3    H134325   0.166   3.163   2.495 -1.5593  1.3875 -0.4475
 4278TIP3    H234326   0.070   3.095   2.590  0.4411 -0.7015  0.1241
 4279TIP3   OH234327   1.165   3.294  11.500 -0.1953  0.0386  0.1148
 4279TIP3    H134328   1.074   3.322  11.497 -0.5013 -1.0706 -1.7110
 4279TIP3    H234329   1.164   3.204  11.467  1.5289 -0.0568  0.2481
 4280TIP3   OH234330   4.853   3.377  13.997  0.0507  0.3051  0.4503
 4280TIP3    H134331   4.865   3.287  14.028 -0.2754  0.5711  1.3647
 4280TIP3    H234332   4.801   3.368  13.917 -0.5476 -0.2701  0.9038
 4281TIP3   OH234333   3.995   5.616  13.058 -0.0833  0.0330 -0.5786
 4281TIP3    H134334   4.043   5.596  12.978 -2.0817  1.6091 -2.2352
 4281TIP3    H234335   4.040   5.691  13.095  1.7636 -1.6124  0.6576
 4282TIP3   OH234336   4.761   6.244   1.881 -0.3624  0.4014  0.1639
 4282TIP3    H134337   4.687   6.204   1.925 -0.5119 -0.3893 -0.7993
 4282TIP3    H234338   4.730   6.262   1.792  0.4621  0.4387 -0.1265
 4283TIP3   OH234339   3.008   3.714  11.706  0.0613  0.6903  0.1045
 4283TIP3    H134340   3.019   3.635  11.760  1.4379  0.6746 -0.1777
 4283TIP3    H234341   3.057   3.695  11.626 -1.4716  0.9527 -0.9278
 4284TIP3   OH234342   1.024   3.604   0.000 -0.0619  0.4864 -0.5060
 4284TIP3    H134343   0.930   3.585   0.006 -0.1031  0.8594  0.0262
 4284TIP3    H234344   1.066   3.536   0.053 -0.1518  1.3067  0.6574
 4285TIP3   OH234345   5.221   4.935  13.286 -0.3054 -0.2467  0.7663
 4285TIP3    H134346   5.178   4.850  13.279  0.7974 -0.6966 -0.6353
 4285TIP3    H234347   5.253   4.954  13.198  3.0118 -0.2663  1.8978
 4286TIP3   OH234348   5.470   2.667   3.831 -0.8347  0.5532  0.3950
 4286TIP3    H134349   5.496   2.759   3.833 -1.9088  0.8877 -0.4718
 4286TIP3    H234350   5.374   2.669   3.839 -0.8123 -0.5252  1.1410
 4287TIP3   OH234351   2.387   0.162   6.181  0.5014  0.1608  0.2451
 4287TIP3    H134352   2.481   0.160   6.202 -0.2102 -2.0505  3.7144
 4287TIP3    H234353   2.358   0.248   6.210  0.5440 -1.0348  4.2363
 4288TIP3   OH234354   2.676   3.285  14.564 -0.3079  0.1344  0.2523
 4288TIP3    H134355   2.619   3.360  14.547 -1.7646 -0.7335  1.1189
 4288TIP3    H234356   2.640   3.215  14.509 -1.7843 -1.1795  2.7736
 4289TIP3   OH234357   2.210   1.217  17.192  0.1453 -0.1272 -0.0275
 4289TIP3    H134358   2.181   1.280  17.126  1.7734 -0.5333 -1.1570
 4289TIP3    H234359   2.222   1.135  17.144  0.9749 -0.5209  0.8415
 4290TIP3   OH234360   3.251   1.017  13.662  0.0367  0.3443  0.0123
 4290TIP3    H134361   3.337   1.037  13.623  0.1895  0.6919  0.5233
 4290TIP3    H234362   3.207   1.102  13.668 -0.6444  0.0741 -0.9335
 4291TIP3   OH234363   2.665   2.859   4.410 -0.7014  0.0122 -0.1747
 4291TIP3    H134364   2.658   2.896   4.322  1.7790  1.3527  0.1474
 4291TIP3    H234365   2.645   2.931   4.469  1.2889  0.1189  0.4047
 4292TIP3   OH234366   3.128   4.984   0.752 -0.0736  0.7738 -0.3492
 4292TIP3    H134367   3.092   4.984   0.840 -0.4299  0.9225 -0.4944
 4292TIP3    H234368   3.190   4.911   0.751  1.8339  2.3010  0.7935
 4293TIP3   OH234369   5.118   3.427   1.146 -0.6309  0.4065 -0.6670
 4293TIP3    H134370   5.076   3.371   1.080  1.4002 -3.3685  1.0935
 4293TIP3    H234371   5.073   3.406   1.227  0.8647  0.5034  0.2077
 4294TIP3   OH234372   0.909   0.028  16.509 -0.3304  0.3223 -0.1756
 4294TIP3    H134373   0.886  -0.032  16.438 -0.3596 -1.7520  1.5254
 4294TIP3    H234374   0.835   0.022  16.570 -0.5322  2.4471 -0.1871
 4295TIP3   OH234375   0.966   2.492   1.965  0.3348  0.4928 -0.3676
 4295TIP3    H134376   1.035   2.431   1.991 -0.6730  0.3569  2.1373
 4295TIP3    H234377   0.932   2.456   1.883 -0.2686 -2.3653  1.0784
 4296TIP3   OH234378   1.603   0.941   4.993 -0.3499  0.0336  0.2380
 4296TIP3    H134379   1.649   0.863   5.022  0.3043  0.5546  0.6122
 4296TIP3    H234380   1.635   1.011   5.050 -0.1841  0.7651 -0.7414
 4297TIP3   OH234381   2.017   0.257  11.529  0.4784 -0.3585  0.2601
 4297TIP3    H134382   1.982   0.345  11.516  0.7714 -0.1944  0.5969
 4297TIP3    H234383   1.944   0.199  11.505  0.4693 -0.0349 -0.5206
 4298TIP3   OH234384   0.710   3.268   1.363 -0.1142  0.2175 -0.2006
 4298TIP3    H134385   0.731   3.238   1.451  2.8010 -0.0036 -0.9216
 4298TIP3    H234386   0.663   3.350   1.376  2.0990  1.2508  1.5412
 4299TIP3   OH234387   2.788   5.562   5.165  0.4456  0.2852 -0.4203
 4299TIP3    H134388   2.872   5.575   5.122  1.1530 -2.0492  0.1451
 4299TIP3    H234389   2.773   5.641   5.217  1.5744  1.3324 -1.6829
 4300TIP3   OH234390   1.015   4.589   4.892 -0.2124  0.6204  0.5762
 4300TIP3    H134391   1.021   4.501   4.853 -0.0434  0.6907  0.4412
 4300TIP3    H234392   1.041   4.577   4.983 -0.9661  0.3857  0.7676
 4301TIP3   OH234393   2.953   5.559  12.287 -0.8340 -0.4992 -0.0621
 4301TIP3    H134394   2.957   5.538  12.380  0.9896  0.1112  0.0242
 4301TIP3    H234395   2.969   5.653  12.284 -1.7672 -0.3700 -0.9287
 4302TIP3   OH234396   3.185   6.054  16.785 -0.5508  0.0250 -0.0849
 4302TIP3    H134397   3.174   6.099  16.869 -0.3848 -0.4284  0.1831
 4302TIP3    H234398   3.097   6.054  16.746 -0.7194 -0.1475  0.2874
 4303TIP3   OH234399   5.838   4.796  14.523  0.1289  0.4930 -0.3505
 4303TIP3    H134400   5.833   4.862  14.593  1.8934  1.0608 -0.7576
 4303TIP3    H234401   5.849   4.713  14.570  0.4570  0.7738  0.0786
 4304TIP3   OH234402   1.674   0.152   0.583  0.3483  0.0394 -0.6703
 4304TIP3    H134403   1.725   0.212   0.638  0.8712  0.1952 -1.3246
 4304TIP3    H234404   1.653   0.079   0.641 -2.2459  1.8847  0.8002
 4305TIP3   OH234405   4.616   0.418  16.763  0.0833 -0.7533  0.2291
 4305TIP3    H134406   4.542   0.414  16.703  0.1237  1.4857 -0.0264
 4305TIP3    H234407   4.579   0.400  16.849 -2.0649  6.2156  1.0611
 4306TIP3   OH234408   4.455   1.814  12.435  0.0982 -0.3975  0.4034
 4306TIP3    H134409   4.453   1.756  12.359 -0.8702 -0.3187  0.3632
 4306TIP3    H234410   4.524   1.877  12.415 -1.5992  0.9461 -1.4112
 4307TIP3   OH234411   6.251   4.021   2.853  0.3671  0.3568  0.3899
 4307TIP3    H134412   6.194   4.094   2.828  2.0228  1.6318  0.2027
 4307TIP3    H234413   6.195   3.944   2.847 -1.1290  1.4708 -0.5355
 4308TIP3   OH234414   4.287   2.086   0.917 -0.5874 -0.3673 -0.2545
 4308TIP3    H134415   4.334   2.015   0.960 -0.6325  0.2180  0.8010
 4308TIP3    H234416   4.212   2.044   0.875 -0.3426 -1.0069 -0.0530
 4309TIP3   OH234417   2.286   5.500   2.821  0.0909 -0.1917 -0.1424
 4309TIP3    H134418   2.340   5.533   2.749  0.2976 -0.4358 -0.1009
 4309TIP3    H234419   2.347   5.489   2.894 -0.1161  0.0517  0.0731
 4310TIP3   OH234420   5.457   0.195   0.013 -0.6631 -0.1735  0.0518
 4310TIP3    H134421   5.392   0.168  -0.052 -0.7642 -0.1233  0.1307
 4310TIP3    H234422   5.521   0.246  -0.037 -0.4519 -0.5898 -0.1012
 4311TIP3   OH234423   5.264   2.560   0.703 -0.5131 -0.3367  0.2109
 4311TIP3    H134424   5.200   2.498   0.736 -0.4483 -0.7970 -0.5219
 4311TIP3    H234425   5.258   2.634   0.764 -1.9006 -0.2705  0.0219
 4312TIP3   OH234426   0.266   4.692  15.330  0.3022 -0.3069  0.1354
 4312TIP3    H134427   0.175   4.683  15.300 -0.0115 -0.8936  1.2329
 4312TIP3    H234428   0.279   4.787  15.337 -0.3428 -0.2251  0.3063
 4313TIP3   OH234429   1.907   3.706  14.402  0.7640  0.3810  0.2164
 4313TIP3    H134430   1.933   3.620  14.369 -1.8016 -0.4410  0.2282
 4313TIP3    H234431   1.972   3.727  14.469 -0.0819 -2.7928  2.1204
 4314TIP3   OH234432   2.408   3.783  12.791 -0.0059  0.1673 -0.2165
 4314TIP3    H134433   2.435   3.791  12.700 -0.2478  0.5579 -0.2589
 4314TIP3    H234434   2.438   3.865  12.832  0.8441 -0.3699  0.2467
 4315TIP3   OH234435   6.104   3.780   1.146  0.1126 -0.1030  0.5205
 4315TIP3    H134436   6.016   3.798   1.113  0.2734  1.1044  0.7449
 4315TIP3    H234437   6.152   3.746   1.070 -0.0677  0.8471 -0.0338
 4316TIP3   OH234438   4.149   4.377  10.906 -0.0489 -0.5398  0.1483
 4316TIP3    H134439   4.193   4.309  10.855  3.1814  1.4846  0.1704
 4316TIP3    H234440   4.074   4.402  10.851  0.9015 -1.4309 -1.6138
 4317TIP3   OH234441   6.081   6.055   4.232 -0.3312 -0.3954  0.0046
 4317TIP3    H134442   6.028   6.120   4.185  0.1438  0.0053  0.0077
 4317TIP3    H234443   6.170   6.071   4.200 -0.0702 -0.4084  0.7184
 4318TIP3   OH234444   4.234   0.030  14.742  0.1624 -0.3141  0.3966
 4318TIP3    H134445   4.192   0.040  14.827 -0.2714 -0.0401  0.1486
 4318TIP3    H234446   4.299   0.100  14.739  0.0030 -0.1690  0.3929
 4319TIP3   OH234447   5.317   5.479  13.574 -0.0836 -0.2208 -0.1231
 4319TIP3    H134448   5.338   5.477  13.480 -1.9837  0.7011 -0.5881
 4319TIP3    H234449   5.304   5.387  13.597 -0.7703 -0.3757 -1.0627
 4320TIP3   OH234450   6.520   5.730  12.310 -0.7862  0.2149 -0.9235
 4320TIP3    H134451   6.612   5.707  12.324 -0.6773  1.7536  1.0714
 4320TIP3    H234452   6.485   5.744  12.398 -2.5471  1.1225 -1.7400
 4321TIP3   OH234453   1.617   5.140  13.208 -0.5723  0.6279  0.0394
 4321TIP3    H134454   1.574   5.178  13.132 -0.8042  1.5615  0.6301
 4321TIP3    H234455   1.652   5.056  13.177 -1.7549  0.4266 -0.7553
 4322TIP3   OH234456   3.829   2.944  15.819  0.0693 -0.0996 -0.5246
 4322TIP3    H134457   3.863   2.953  15.908  1.4379  2.1671 -1.2567
 4322TIP3    H234458   3.739   2.911  15.831 -0.8425  3.0429  1.8271
 4323TIP3   OH234459   6.440   4.253  13.307 -0.5916  0.1460 -0.2973
 4323TIP3    H134460   6.532   4.272  13.289 -0.5459 -0.5510 -0.7959
 4323TIP3    H234461   6.392   4.304  13.242 -0.5915  1.1428  0.4753
 4324TIP3   OH234462   3.961   4.302  14.920 -0.6926  0.1096 -0.2325
 4324TIP3    H134463   3.978   4.230  14.980 -0.5516 -0.5338 -1.0326
 4324TIP3    H234464   3.915   4.367  14.973 -0.6751 -0.4950  0.5370
 4325TIP3   OH234465   2.302   0.853   3.389 -0.3782 -0.1650  0.1791
 4325TIP3    H134466   2.224   0.880   3.436  0.2328  0.2654  0.9633
 4325TIP3    H234467   2.373   0.860   3.454  0.5306  0.7746 -0.8903
 4326TIP3   OH234468   3.048   6.185   1.232 -0.5468  0.3979 -0.1732
 4326TIP3    H134469   3.092   6.121   1.287 -1.8026 -1.3237 -1.1307
 4326TIP3    H234470   3.057   6.268   1.280  1.1813 -0.4572  1.0176
 4327TIP3   OH234471   4.514   2.797   2.641 -0.2729 -0.3883  0.5475
 4327TIP3    H134472   4.426   2.779   2.609  0.5994 -1.1232 -1.5473
 4327TIP3    H234473   4.503   2.867   2.704 -2.2152  0.3951 -0.6124
 4328TIP3   OH234474   1.462   1.839   4.694  0.3917  0.0468  0.5215
 4328TIP3    H134475   1.433   1.749   4.677 -1.6340  0.8581 -0.4557
 4328TIP3    H234476   1.388   1.881   4.738  0.9597  1.5021  0.1246
 4329TIP3   OH234477   5.964   0.895   0.789  0.2070  0.3042  0.0268
 4329TIP3    H134478   5.997   0.985   0.786  2.4626 -0.5252 -0.5901
 4329TIP3    H234479   6.015   0.849   0.722 -0.2781 -1.6596  0.9976
 4330TIP3   OH234480   2.461   5.850  15.324  0.4893  0.0836  0.1621
 4330TIP3    H134481   2.492   5.930  15.366  0.4464 -0.4629  1.2595
 4330TIP3    H234482   2.427   5.797  15.396 -0.8457 -0.3026 -0.7368
 4331TIP3   OH234483   1.028   4.109  14.016 -0.2529  0.9381  0.4422
 4331TIP3    H134484   1.052   4.027  13.972  0.3515  2.8311 -2.9349
 4331TIP3    H234485   0.935   4.098  14.037 -0.6261  0.0159 -1.5166
 4332TIP3   OH234486   3.080   4.537  15.871  0.0769 -0.5865 -0.4204
 4332TIP3    H134487   3.114   4.450  15.851 -0.8632 -1.4163  1.5019
 4332TIP3    H234488   3.156   4.595  15.860  1.0194 -1.8150 -0.5128
 4333TIP3   OH234489   6.439   3.591  15.611  0.3059 -0.6670 -0.0306
 4333TIP3    H134490   6.498   3.530  15.656  0.3766 -0.4320  0.1974
 4333TIP3    H234491   6.355   3.581  15.656  0.3780 -0.4293  0.1641
 4334TIP3   OH234492   3.356   2.360  15.838  0.4642 -0.3159 -0.1220
 4334TIP3    H134493   3.373   2.426  15.771 -0.1102 -0.2413 -0.1970
 4334TIP3    H234494   3.440   2.316  15.851  0.2746 -1.2080 -1.8430
 4335TIP3   OH234495   2.254   2.831   1.020  0.0454 -0.3292 -0.0208
 4335TIP3    H134496   2.337   2.835   1.068  1.2958 -2.6139 -1.8828
 4335TIP3    H234497   2.226   2.740   1.030 -1.7779  0.2092 -0.1843
 4336TIP3   OH234498   3.078   3.723   4.411  0.0370  0.1748 -0.0716
 4336TIP3    H134499   3.157   3.698   4.459  1.3397  1.6366 -1.3800
 4336TIP3    H234500   3.070   3.658   4.341 -0.1642 -0.2215  0.3195
 4337TIP3   OH234501   0.720   5.121  11.381 -0.6712 -0.5555 -0.8490
 4337TIP3    H134502   0.731   5.089  11.471 -0.0370  1.1603 -0.3002
 4337TIP3    H234503   0.627   5.107  11.362 -0.7429 -1.2323 -0.0632
 4338TIP3   OH234504   4.323   2.190  15.970  0.0588 -0.2433 -0.6800
 4338TIP3    H134505   4.296   2.194  15.879 -1.2083  1.0541 -0.2698
 4338TIP3    H234506   4.376   2.268  15.984 -0.3305 -0.0639 -0.1447
 4339TIP3   OH234507   6.171   0.632  15.230 -0.1814 -0.2283  0.3502
 4339TIP3    H134508   6.075   0.627  15.233 -0.1347 -1.4068  0.3354
 4339TIP3    H234509   6.195   0.690  15.302 -0.7269 -2.7620  2.6765
 4340TIP3   OH234510   2.306   5.101  16.702 -0.2486 -0.4672 -0.1233
 4340TIP3    H134511   2.305   5.096  16.606 -2.1759  0.2252 -0.1463
 4340TIP3    H234512   2.399   5.110  16.724  0.0588  1.5435 -2.0398
 4341TIP3   OH234513   5.238   1.557   3.681 -0.0587  0.0702  0.3523
 4341TIP3    H134514   5.239   1.652   3.673  4.7361  0.0607 -0.6650
 4341TIP3    H234515   5.280   1.539   3.765 -2.7798 -1.1591  1.4981
 4342TIP3   OH234516   1.629   0.209  12.590 -0.1184 -0.2446 -0.1813
 4342TIP3    H134517   1.591   0.241  12.672  3.5101 -0.0898  1.5434
 4342TIP3    H234518   1.634   0.114  12.601 -0.8377 -0.3541 -0.7767
 4343TIP3   OH234519   0.571   6.576   5.033 -0.0650 -0.0619  0.9659
 4343TIP3    H134520   0.485   6.589   5.074 -0.7966 -0.2998 -0.4385
 4343TIP3    H234521   0.555   6.507   4.968  1.4141 -0.7620  1.3387
 4344TIP3   OH234522   2.623   2.258  12.594 -0.1832  0.2295 -0.0286
 4344TIP3    H134523   2.615   2.353  12.605  1.3068  0.4052 -0.4061
 4344TIP3    H234524   2.716   2.243  12.582 -0.4669 -1.2422 -0.4483
 4345TIP3   OH234525   3.228   2.325   4.314  0.0419  0.3422  0.4328
 4345TIP3    H134526   3.191   2.296   4.397  0.4977 -0.0829  0.4874
 4345TIP3    H234527   3.171   2.286   4.247  0.5349 -0.5208  0.5104
 4346TIP3   OH234528   1.620   5.799  10.665  0.1355  0.1355  0.0609
 4346TIP3    H134529   1.702   5.801  10.615  0.6730 -1.5900  0.8330
 4346TIP3    H234530   1.636   5.855  10.741  1.0865 -1.2713  0.9135
 4347TIP3   OH234531   6.576   0.665   3.737 -0.2026  0.1421  0.0897
 4347TIP3    H134532   6.602   0.754   3.758 -0.6240  0.6701 -1.5479
 4347TIP3    H234533   6.587   0.658   3.642 -1.6786 -1.0398 -0.0195
 4348TIP3   OH234534   2.020   4.273  13.686 -0.1451 -0.7693  0.1648
 4348TIP3    H134535   1.956   4.220  13.734 -0.9230 -0.3890 -0.4544
 4348TIP3    H234536   2.057   4.212  13.622  1.1414 -1.3730  1.4353
 4349TIP3   OH234537   0.592   1.446   0.722 -0.0056 -0.1983  0.6279
 4349TIP3    H134538   0.598   1.426   0.629 -0.9828 -0.7930  0.6905
 4349TIP3    H234539   0.554   1.368   0.762  1.1912 -0.2778  1.6608
 4350TIP3   OH234540   4.878   5.048   1.517 -0.2968  0.0304 -0.6140
 4350TIP3    H134541   4.868   5.047   1.422 -0.3950 -0.1163 -0.6028
 4350TIP3    H234542   4.819   4.979   1.548 -1.5894  1.2560 -0.3147
 4351TIP3   OH234543   1.793   5.161  14.027  0.2490  0.2731 -0.7915
 4351TIP3    H134544   1.740   5.149  13.948 -0.8844  1.1548 -0.1881
 4351TIP3    H234545   1.864   5.098  14.018 -1.9043 -2.2344 -0.7858
 4352TIP3   OH234546   3.717   4.064  14.045 -0.1948  0.1505  0.3524
 4352TIP3    H134547   3.684   3.984  14.003 -1.4230  1.1149 -0.5503
 4352TIP3    H234548   3.638   4.106  14.080  0.3403  1.4122  0.0415
 4353TIP3   OH234549   2.091   3.842   1.555  0.0375 -0.5438 -0.2379
 4353TIP3    H134550   2.060   3.898   1.627 -0.2083  0.1535 -0.8894
 4353TIP3    H234551   2.141   3.773   1.599 -0.1986 -0.1756  0.6172
 4354TIP3   OH234552   5.088   4.201  13.499 -0.3720  0.4617 -0.3700
 4354TIP3    H134553   5.076   4.185  13.593 -1.8231  0.4905 -0.5265
 4354TIP3    H234554   5.102   4.296  13.492  1.9723  0.1603  0.0049
 4355TIP3   OH234555   0.550   6.239  16.576  0.5894 -0.0833 -0.3846
 4355TIP3    H134556   0.644   6.248  16.590  0.5410 -0.4292  0.1810
 4355TIP3    H234557   0.534   6.144  16.575  0.2811 -0.0328 -0.7288
 4356TIP3   OH234558   5.486   1.683   5.359  0.1403 -0.4693 -0.4726
 4356TIP3    H134559   5.491   1.649   5.269 -1.4609  2.5966 -1.7693
 4356TIP3    H234560   5.491   1.605   5.414  2.6766 -2.3122 -3.1411
 4357TIP3   OH234561   6.282   0.799  12.572 -0.3041  0.0058 -0.1519
 4357TIP3    H134562   6.374   0.795  12.546 -0.3292  0.1679 -0.2628
 4357TIP3    H234563   6.278   0.866  12.640 -0.6333  1.2232 -1.3564
 4358TIP3   OH234564   1.057   0.974  13.556  1.0128 -0.1958  1.0496
 4358TIP3    H134565   1.142   0.994  13.515  1.1894 -1.8491  0.5808
 4358TIP3    H234566   1.059   0.880  13.569 -1.0144 -0.3240  0.4980
 4359TIP3   OH234567   4.889   4.788  11.496  0.0007  0.4172  0.0911
 4359TIP3    H134568   4.840   4.805  11.577 -2.1550  0.8872 -1.2745
 4359TIP3    H234569   4.895   4.693  11.491 -1.0029  0.3453  0.1529
 4360TIP3   OH234570   4.820   0.398  13.321 -0.0675 -0.0918  0.3253
 4360TIP3    H134571   4.788   0.312  13.296  1.7247 -0.9269  0.7908
 4360TIP3    H234572   4.905   0.405  13.278  0.7784  0.5255  2.0467
 4361TIP3   OH234573   6.651   2.329   3.226 -0.0819 -0.1693  0.2904
 4361TIP3    H134574   6.609   2.303   3.145  1.2499 -0.8127 -0.2014
 4361TIP3    H234575   6.730   2.376   3.199 -0.7204  1.4886  1.1930
 4362TIP3   OH234576   5.977   3.798   0.038 -0.0325  0.1295  0.5048
 4362TIP3    H134577   5.958   3.816   0.130 -4.3817  0.3753 -0.3215
 4362TIP3    H234578   6.031   3.871   0.009 -3.6363  3.3585  1.4449
 4363TIP3   OH234579   6.189   2.844   0.377 -0.0346  0.3647 -0.0654
 4363TIP3    H134580   6.152   2.850   0.289  0.5875 -0.5218 -0.4016
 4363TIP3    H234581   6.280   2.816   0.362 -0.3100 -1.0723  0.9251
 4364TIP3   OH234582   0.135   0.605  14.352 -0.3323 -0.0423 -0.6859
 4364TIP3    H134583   0.214   0.553  14.369  0.8407  1.3619 -1.7048
 4364TIP3    H234584   0.088   0.557  14.285  0.2901 -0.2773 -0.9611
 4365TIP3   OH234585   0.493   4.264  15.569 -0.2258  0.1335  0.3002
 4365TIP3    H134586   0.438   4.245  15.645 -1.6661  0.8910 -0.5424
 4365TIP3    H234587   0.439   4.319  15.512  1.2534  0.5667 -0.7369
 4366TIP3   OH234588   0.889   1.840  12.292 -0.2439  0.4484  0.2430
 4366TIP3    H134589   0.797   1.866  12.285 -0.4116  0.3772  1.9921
 4366TIP3    H234590   0.888   1.763  12.350  0.8414 -0.0107 -0.3323
 4367TIP3   OH234591   5.227   4.612  14.397  0.8326  0.4748 -0.1274
 4367TIP3    H134592   5.182   4.686  14.438  2.5134  1.6858 -0.3747
 4367TIP3    H234593   5.309   4.604  14.445 -0.4907 -3.0606  1.6990
 4368TIP3   OH234594   5.851   3.999  14.068  0.3952 -0.5786  1.2389
 4368TIP3    H134595   5.929   4.017  14.016 -0.0188 -0.0144  0.8049
 4368TIP3    H234596   5.875   4.027  14.157  0.1928  0.9834  0.8135
 4369TIP3   OH234597   5.164   4.301   0.514  0.4018 -0.0651  0.0981
 4369TIP3    H134598   5.134   4.235   0.451  0.2932  0.2752 -0.2088
 4369TIP3    H234599   5.092   4.363   0.520  2.0736  2.3327 -2.8441
 4370TIP3   OH234600   3.335   2.855   4.661 -0.3902  0.4545  0.2247
 4370TIP3    H134601   3.345   2.923   4.595  2.8404 -0.2416 -0.0755
 4370TIP3    H234602   3.266   2.887   4.720 -1.7593  2.0744 -2.1951
 4371TIP3   OH234603   4.570   3.528   5.537  0.7459  0.0935 -0.1770
 4371TIP3    H134604   4.535   3.439   5.536  2.1398 -0.4629 -0.8281
 4371TIP3    H234605   4.532   3.568   5.615  1.5430 -1.6578  1.1283
 4372TIP3   OH234606   4.718   1.004   0.693 -0.0594  0.0917  0.0809
 4372TIP3    H134607   4.658   1.059   0.641 -0.9374  1.6705  2.6679
 4372TIP3    H234608   4.660   0.944   0.740  0.4249  0.8911  1.7423
 4373TIP3   OH234609   1.448   5.394  15.904 -0.2803 -0.0589 -0.1764
 4373TIP3    H134610   1.387   5.331  15.942 -1.3374  0.7556 -0.5281
 4373TIP3    H234611   1.451   5.466  15.966  0.4755 -0.1793 -0.0662
 4374TIP3   OH234612   0.959   1.004   0.457 -0.0984  0.0413  0.1710
 4374TIP3    H134613   0.919   0.972   0.538  1.4485  0.6497  1.2168
 4374TIP3    H234614   0.894   1.063   0.420 -1.1770 -0.9138  0.5188
 4375TIP3   OH234615   2.036   0.082  14.307  0.1118 -0.5043  0.6325
 4375TIP3    H134616   2.049   0.016  14.238  1.1760 -0.9252  1.2142
 4375TIP3    H234617   1.972   0.143  14.271  2.5355  0.7113 -1.7524
 4376TIP3   OH234618   2.807   2.349   5.776  0.8996  0.6596 -0.2780
 4376TIP3    H134619   2.800   2.254   5.776 -0.9428  0.7750 -0.3419
 4376TIP3    H234620   2.896   2.367   5.806  1.3113 -1.0807 -0.4278
 4377TIP3   OH234621   1.151   4.356  16.808 -0.2364  0.4969 -0.2306
 4377TIP3    H134622   1.059   4.346  16.830  0.2037 -2.4355  0.4658
 4377TIP3    H234623   1.184   4.267  16.799  2.3455  1.4897 -1.3302
 4378TIP3   OH234624   2.313   2.922   5.320 -0.3667 -0.1518  0.2621
 4378TIP3    H134625   2.301   3.016   5.332  0.8723 -0.0389  0.6078
 4378TIP3    H234626   2.276   2.904   5.233 -1.3805  0.4986  0.5450
 4379TIP3   OH234627   1.644   3.009  11.322  0.2267  0.2411  0.4599
 4379TIP3    H134628   1.703   3.080  11.295 -1.6245  1.4649 -0.4255
 4379TIP3    H234629   1.571   3.053  11.365 -2.0418 -0.9260 -2.0612
 4380TIP3   OH234630   0.928   3.623   5.785  0.0490 -0.6632  0.3137
 4380TIP3    H134631   0.881   3.696   5.745 -1.4951 -1.1630  1.1969
 4380TIP3    H234632   0.898   3.546   5.737  0.6306 -0.8878  0.3066
 4381TIP3   OH234633   4.254   0.553   3.394  0.2466  0.2352 -0.3928
 4381TIP3    H134634   4.248   0.516   3.307 -0.7578 -2.4772  0.7756
 4381TIP3    H234635   4.177   0.520   3.440  2.1045 -0.5463  2.3117
 4382TIP3   OH234636   5.294   4.425  16.935  0.4206 -0.2840 -0.3461
 4382TIP3    H134637   5.271   4.489  16.867 -0.6049  1.5707  1.6892
 4382TIP3    H234638   5.388   4.437  16.948 -0.1985  2.6033  1.7661
 4383TIP3   OH234639   3.131   6.115  12.295  0.3749 -0.0394 -0.3246
 4383TIP3    H134640   3.055   6.165  12.264 -0.6474 -1.9614 -1.0378
 4383TIP3    H234641   3.205   6.175  12.287 -0.7729  1.2462 -1.4880
 4384TIP3   OH234642   2.669   0.215   6.223  0.2758  0.1651  0.2803
 4384TIP3    H134643   2.665   0.311   6.219  0.4164  0.2499  2.0495
 4384TIP3    H234644   2.762   0.195   6.228  0.2083 -0.0185  0.8227
 4385TIP3   OH234645   4.673   3.039  14.154  0.0396 -0.3267 -0.5201
 4385TIP3    H134646   4.682   3.118  14.207  0.0468 -0.1620 -0.7648
 4385TIP3    H234647   4.718   2.971  14.204 -0.7273 -0.3721  0.1079
 4386TIP3   OH234648   1.611   5.128   0.202  0.0288  0.4505  0.0919
 4386TIP3    H134649   1.540   5.100   0.144  1.1460 -1.4502 -0.4028
 4386TIP3    H234650   1.618   5.057   0.266  0.0134  1.6894  1.4828
 4387TIP3   OH234651   0.313   1.709   2.102  0.2828 -0.0496  0.2354
 4387TIP3    H134652   0.246   1.722   2.035  0.4781 -1.0763 -0.1686
 4387TIP3    H234653   0.288   1.769   2.172 -0.9680 -0.3078  0.0271
 4388TIP3   OH234654   6.432   2.001  15.804  0.5079  0.4506 -0.8718
 4388TIP3    H134655   6.428   1.936  15.734  1.2340 -0.5736  0.0215
 4388TIP3    H234656   6.432   2.085  15.759  0.6121 -0.1929 -2.0857
 4389TIP3   OH234657   1.791   4.166  11.892  0.2828  0.5031 -0.5464
 4389TIP3    H134658   1.820   4.134  11.807 -0.0526  0.8422 -0.7925
 4389TIP3    H234659   1.710   4.116  11.910 -0.2631  1.2371 -0.9510
 4390TIP3   OH234660   2.483   1.239  15.326  0.2551  0.5785  0.1701
 4390TIP3    H134661   2.409   1.256  15.384 -0.9197 -0.3586 -1.0038
 4390TIP3    H234662   2.560   1.267  15.375 -0.6954 -0.3486  2.2296
 4391TIP3   OH234663   6.799   2.763  12.465  0.0051 -0.1850  0.1862
 4391TIP3    H134664   6.880   2.721  12.435  0.0117  0.5656 -0.8742
 4391TIP3    H234665   6.819   2.857  12.461 -0.9905  0.0060 -0.2671
 4392TIP3   OH234666   2.909   0.475   2.796  0.3171  0.2573  0.0669
 4392TIP3    H134667   2.965   0.457   2.872  0.2968  0.7190  0.1903
 4392TIP3    H234668   2.878   0.564   2.810  0.4684  0.4096 -0.5884
 4393TIP3   OH234669   2.380   2.941  11.069 -0.1048 -0.2456 -0.5275
 4393TIP3    H134670   2.427   2.998  11.008 -0.4820  1.7125  0.9351
 4393TIP3    H234671   2.449   2.891  11.113  0.4213  0.5423 -0.4308
 4394TIP3   OH234672   5.946   1.421  13.925  0.0345  0.5365  0.3803
 4394TIP3    H134673   5.973   1.376  14.005 -1.0676 -0.5666  0.1516
 4394TIP3    H234674   5.958   1.356  13.856  1.1415  1.5354 -0.3926
 4395TIP3   OH234675   1.323   0.750  13.170  0.1931 -0.3775 -0.1289
 4395TIP3    H134676   1.412   0.715  13.167  1.4282  2.7126 -0.9100
 4395TIP3    H234677   1.303   0.774  13.079  0.0340  2.4160  0.6004
 4396TIP3   OH234678   4.067   1.993  11.381 -0.2719  0.0603  0.2182
 4396TIP3    H134679   4.063   1.897  11.377 -2.3706  0.0472  2.1207
 4396TIP3    H234680   3.997   2.018  11.441  1.5213  2.6757  1.3088
 4397TIP3   OH234681   3.311   4.541  15.340  0.1081 -0.1229  0.1917
 4397TIP3    H134682   3.261   4.506  15.266  0.2629 -0.8142  0.4179
 4397TIP3    H234683   3.280   4.631  15.348 -2.0991 -0.9289  1.1629
 4398TIP3   OH234684   0.282   3.526  12.012  0.5270  0.3584 -0.1532
 4398TIP3    H134685   0.335   3.468  12.065  0.6319  0.5710 -0.0225
 4398TIP3    H234686   0.199   3.533  12.059  0.4545  0.1822 -0.2540
 4399TIP3   OH234687   4.667   4.752   6.204 -0.1172 -0.2526  0.3079
 4399TIP3    H134688   4.589   4.766   6.259 -0.0143  0.2801  0.3225
 4399TIP3    H234689   4.732   4.716   6.265  0.0406  0.4665  0.5718
 4400TIP3   OH234690   1.932   5.715   5.857  0.0447  0.4323  0.4655
 4400TIP3    H134691   1.854   5.745   5.810  1.2832  1.9323 -0.7037
 4400TIP3    H234692   1.973   5.795   5.889  2.4709 -0.0792 -1.1629
 4401TIP3   OH234693   1.904   1.664  13.293  0.0495 -0.1952 -0.3665
 4401TIP3    H134694   1.860   1.641  13.211  0.2040 -1.0450 -0.2179
 4401TIP3    H234695   1.943   1.582  13.323 -1.7548 -0.3942  1.6101
 4402TIP3   OH234696   5.106   6.318   4.531  0.2767 -0.1955  0.3127
 4402TIP3    H134697   5.020   6.289   4.502  0.9844 -0.9063 -1.1055
 4402TIP3    H234698   5.120   6.270   4.613 -1.1645  0.8269  1.1862
 4403TIP3   OH234699   2.845   3.515  14.497 -0.4624 -0.2784  0.3983
 4403TIP3    H134700   2.931   3.513  14.538  0.0902 -0.5227 -0.7691
 4403TIP3    H234701   2.808   3.429  14.516  0.1308 -0.7000 -0.3052
 4404TIP3   OH234702   6.555   6.002   6.900 -0.3322 -0.4963  0.3207
 4404TIP3    H134703   6.596   5.949   6.968  0.0397 -1.6339 -0.7723
 4404TIP3    H234704   6.565   5.951   6.820  0.2395  1.3331 -0.8060
 4405TIP3   OH234705   4.796   4.001  13.443 -0.2734 -0.2920 -0.5153
 4405TIP3    H134706   4.760   4.007  13.355  0.8254  0.0781 -0.9471
 4405TIP3    H234707   4.889   4.022  13.433  0.3208 -2.3425  0.3810
 4406TIP3   OH234708   5.433   6.163  12.096 -0.2386 -0.4238 -0.6364
 4406TIP3    H134709   5.469   6.251  12.085 -0.6245 -0.3269 -1.1325
 4406TIP3    H234710   5.347   6.167  12.055 -0.1623 -1.0943 -0.8653
 4407TIP3   OH234711   2.192   0.438  17.181 -0.2082  0.3448  0.7071
 4407TIP3    H134712   2.248   0.390  17.243  0.4110  0.5816  0.3422
 4407TIP3    H234713   2.124   0.376  17.156  1.2941 -0.7775 -0.7212
 4408TIP3   OH234714   2.466   2.065   2.106  0.9478 -0.4015 -0.0265
 4408TIP3    H134715   2.410   1.997   2.069  0.1594 -0.4042  1.1445
 4408TIP3    H234716   2.462   2.136   2.042 -0.1276 -0.5323 -0.1196
 4409TIP3   OH234717   5.882   6.593   1.220 -0.1624  0.5558  0.7835
 4409TIP3    H134718   5.957   6.535   1.210 -0.9529 -0.3140 -0.2234
 4409TIP3    H234719   5.891   6.630   1.308  1.2073  0.1463  0.8271
 4410TIP3   OH234720   2.829   6.604  16.708 -0.5219  0.4598 -0.6732
 4410TIP3    H134721   2.822   6.567  16.795 -1.7605  1.0684 -0.5075
 4410TIP3    H234722   2.850   6.697  16.723  1.4231  0.1042 -1.0651
 4411TIP3   OH234723   6.206   3.405  16.832 -0.2120 -0.4278 -0.5989
 4411TIP3    H134724   6.259   3.373  16.905  0.2931 -0.0433 -0.7941
 4411TIP3    H234725   6.120   3.421  16.871 -0.6041 -2.4548 -0.6057
 4412TIP3   OH234726   0.133   5.528  16.178 -0.5039 -0.0562 -0.0394
 4412TIP3    H134727   0.062   5.536  16.241 -0.6257  1.9719 -0.3988
 4412TIP3    H234728   0.091   5.541  16.093  0.2643  1.0198 -0.2636
 4413TIP3   OH234729   5.588   5.372   4.979 -0.1663 -0.1420 -1.1082
 4413TIP3    H134730   5.543   5.456   4.983  1.3932  0.7356 -1.5326
 4413TIP3    H234731   5.540   5.322   4.914 -2.7627 -0.6058  1.1014
 4414TIP3   OH234732   6.388   0.646  14.237 -0.2890  1.1161 -0.3382
 4414TIP3    H134733   6.353   0.642  14.326  0.1172  2.4302 -0.0961
 4414TIP3    H234734   6.479   0.619  14.246 -0.6839 -0.3239 -0.6284
 4415TIP3   OH234735   1.490   4.417   1.754  0.9708  0.5585  0.3094
 4415TIP3    H134736   1.568   4.415   1.810  1.7918  4.5446 -0.4697
 4415TIP3    H234737   1.472   4.511   1.743 -2.3778 -0.2475 -1.7008
 4416TIP3   OH234738   2.370   6.335  14.348  0.0799 -0.4094 -0.5071
 4416TIP3    H134739   2.295   6.395  14.351 -0.9047 -1.4843 -2.5055
 4416TIP3    H234740   2.383   6.308  14.439 -1.7021  0.0985 -0.0822
 4417TIP3   OH234741   4.037   1.985   3.746  0.1517 -0.1614 -0.2251
 4417TIP3    H134742   4.006   1.941   3.825  0.6900 -1.3726 -0.6704
 4417TIP3    H234743   4.082   2.063   3.778  0.3509 -0.6366  0.6646
 4418TIP3   OH234744   5.753   0.462  11.697 -0.6236 -0.5185  0.3047
 4418TIP3    H134745   5.809   0.526  11.653 -1.1517  0.4678  1.0407
 4418TIP3    H234746   5.728   0.505  11.779 -2.3948 -0.9726  0.0276
 4419TIP3   OH234747   2.516   2.325   1.991 -0.3316 -0.4734 -0.0679
 4419TIP3    H134748   2.465   2.284   1.921  0.8320 -1.3537 -0.4139
 4419TIP3    H234749   2.543   2.409   1.953  0.9261 -1.2681 -0.9778
 4420TIP3   OH234750   3.959   4.523  16.176  0.4745  0.7221 -0.3572
 4420TIP3    H134751   3.876   4.479  16.161  0.7436  0.1429 -0.2015
 4420TIP3    H234752   3.961   4.595  16.114 -0.9622  1.8661  0.9161
 4421TIP3   OH234753   4.770   0.997  12.343  0.1429  0.1033  0.0304
 4421TIP3    H134754   4.798   1.067  12.402 -0.3551 -0.1882  0.6181
 4421TIP3    H234755   4.687   1.028  12.307 -1.3781 -1.2620  2.2285
 4422TIP3   OH234756   6.206   0.505   1.558  0.5968  0.1116  0.1580
 4422TIP3    H134757   6.147   0.580   1.552 -0.4057 -0.8110 -2.2701
 4422TIP3    H234758   6.290   0.537   1.525  1.0369  0.9875  2.0867
 4423TIP3   OH234759   3.091   2.914  12.681  0.1237 -0.4389  0.6752
 4423TIP3    H134760   3.061   2.976  12.747  0.3994 -0.5963  0.9504
 4423TIP3    H234761   3.031   2.925  12.608  0.3492  0.3549  0.6100
 4424TIP3   OH234762   1.990   0.513  14.087  0.5791  0.2372  0.5293
 4424TIP3    H134763   1.989   0.459  14.009  1.1628  1.8897 -0.6391
 4424TIP3    H234764   1.934   0.465  14.150  0.9718 -1.6247 -0.4970
 4425TIP3   OH234765   2.549   1.896   2.953  0.5447  0.0867  0.2919
 4425TIP3    H134766   2.613   1.949   2.905 -2.1882  1.9759 -1.4173
 4425TIP3    H234767   2.601   1.851   3.020  3.8673  0.4357 -1.8980
 4426TIP3   OH234768   6.017   4.278  14.606 -0.5932  0.0275 -0.4630
 4426TIP3    H134769   5.981   4.257  14.692 -3.0137  0.9480 -1.2189
 4426TIP3    H234770   5.979   4.214  14.546  2.6729 -1.9056 -0.5754
 4427TIP3   OH234771   4.898   0.028   6.018  0.4405 -0.0275 -0.1390
 4427TIP3    H134772   4.850   0.104   5.984 -0.3411 -1.5558 -2.6555
 4427TIP3    H234773   4.843  -0.005   6.089 -0.4342  0.3580 -0.6297
 4428TIP3   OH234774   0.874   2.908   4.993  0.2973 -0.8766 -0.4956
 4428TIP3    H134775   0.946   2.948   5.042 -0.1274  0.5242 -1.0004
 4428TIP3    H234776   0.889   2.814   5.002  1.9213 -0.6086 -0.1915
 4429TIP3   OH234777   1.301   2.610   0.961  0.0116  0.2928  0.5187
 4429TIP3    H134778   1.313   2.518   0.939 -0.0185  0.3379  0.3118
 4429TIP3    H234779   1.221   2.612   1.014  1.2452 -0.0957  2.4565
 4430TIP3   OH234780   0.993   3.997  12.811  0.1848 -0.0480  0.8014
 4430TIP3    H134781   1.043   3.917  12.798  0.5079  0.2422  0.2610
 4430TIP3    H234782   1.002   4.046  12.729  0.4561  0.7971  1.3267
 4431TIP3   OH234783   4.392   4.382  12.632 -0.1867  0.1564 -0.4401
 4431TIP3    H134784   4.413   4.365  12.724  2.7984 -0.0827 -1.0907
 4431TIP3    H234785   4.416   4.474  12.619 -2.1595  0.6676 -0.6044
 4432TIP3   OH234786   0.312   6.676  16.235  0.3027  0.2679 -0.0770
 4432TIP3    H134787   0.361   6.747  16.193  2.1357 -0.1346  1.3194
 4432TIP3    H234788   0.241   6.657  16.174  0.3813  2.6110 -0.9550
 4433TIP3   OH234789   4.294   6.425   4.681 -0.0583  0.4360 -0.1415
 4433TIP3    H134790   4.341   6.344   4.701 -0.2140  0.9471  2.4573
 4433TIP3    H234791   4.249   6.406   4.598  0.7805 -1.7477 -0.1425
 4434TIP3   OH234792   4.564   2.405   4.901 -0.8929 -0.8553 -0.5411
 4434TIP3    H134793   4.579   2.404   4.995  0.1068  1.5361 -0.6494
 4434TIP3    H234794   4.645   2.440   4.864 -2.2771  0.7593 -2.0869
 4435TIP3   OH234795   6.442   1.367   6.071  0.4167  0.2708 -0.1682
 4435TIP3    H134796   6.396   1.284   6.082 -0.0354  0.8543  2.7521
 4435TIP3    H234797   6.524   1.357   6.120 -0.0255  1.7831  0.9495
 4436TIP3   OH234798   3.098   3.715   3.530 -0.1954  0.1685 -0.3383
 4436TIP3    H134799   3.192   3.726   3.542 -0.2795  0.3829  0.1867
 4436TIP3    H234800   3.065   3.697   3.618 -0.6437  0.0876 -0.5205
 4437TIP3   OH234801   1.414   4.299   5.181 -0.5010  0.4901  0.3361
 4437TIP3    H134802   1.406   4.394   5.192  0.1364  1.0379 -3.1175
 4437TIP3    H234803   1.485   4.274   5.241 -0.3952  2.2766  0.9856
 4438TIP3   OH234804   4.101   3.590   2.758 -0.7920  0.1897  0.4682
 4438TIP3    H134805   4.088   3.684   2.770 -0.8889  0.2333  0.0467
 4438TIP3    H234806   4.031   3.564   2.698  0.0884  0.1213 -0.5396
 4439TIP3   OH234807   3.186   0.141  17.203  0.2538  0.3825  0.1489
 4439TIP3    H134808   3.134   0.177  17.131  1.2320 -0.1582 -0.8417
 4439TIP3    H234809   3.261   0.199  17.211  0.4983  0.0542  0.2739
 4440TIP3   OH234810   4.882   5.140  15.166  0.4598 -0.9672  0.3783
 4440TIP3    H134811   4.934   5.219  15.176  0.3894 -0.6652 -1.6215
 4440TIP3    H234812   4.912   5.100  15.085 -2.2266 -0.9307 -0.6769
 4441TIP3   OH234813   1.350   1.027   4.901  0.1742 -0.0536 -0.1973
 4441TIP3    H134814   1.424   0.968   4.917  1.3815  1.8039  1.3447
 4441TIP3    H234815   1.273   0.970   4.900  1.4173 -1.7771  0.1403
 4442TIP3   OH234816   4.423   5.212  12.867 -0.2042  0.4998  0.5040
 4442TIP3    H134817   4.373   5.287  12.898 -2.4424 -0.4441 -0.6968
 4442TIP3    H234818   4.439   5.159  12.946 -3.8643 -0.7510  0.4887
 4443TIP3   OH234819   1.826   1.793  11.514 -0.2879 -0.0526  0.0265
 4443TIP3    H134820   1.792   1.867  11.564 -2.3315 -1.4613  0.7594
 4443TIP3    H234821   1.838   1.724  11.578  2.7874 -0.0203 -0.4433
 4444TIP3   OH234822   2.675   1.446   2.770 -0.1618 -0.3181 -0.1406
 4444TIP3    H134823   2.749   1.444   2.830  0.5638  0.7671 -0.9692
 4444TIP3    H234824   2.686   1.367   2.716 -0.2613 -0.7692  0.5038
 4445TIP3   OH234825   2.766   3.900  12.254  0.2826  0.0568 -0.4541
 4445TIP3    H134826   2.737   3.991  12.262 -0.1215 -0.1929  1.2837
 4445TIP3    H234827   2.858   3.903  12.281  0.5773  0.1248 -1.4714
 4446TIP3   OH234828   1.237   1.864  15.641 -0.7861 -0.1378 -0.0570
 4446TIP3    H134829   1.168   1.814  15.683  0.4197 -2.8104 -1.1484
 4446TIP3    H234830   1.213   1.866  15.548 -0.2531  0.3422 -0.1903
 4447TIP3   OH234831   5.899   0.738   3.189  0.3875  0.6289  0.0545
 4447TIP3    H134832   5.947   0.755   3.270  2.3691 -1.0981 -0.7327
 4447TIP3    H234833   5.905   0.643   3.177 -0.6656  0.7586 -1.6553
 4448TIP3   OH234834   2.222   5.161   3.413 -0.1605  0.5434 -0.3798
 4448TIP3    H134835   2.212   5.117   3.329 -0.7837  2.7832 -1.5177
 4448TIP3    H234836   2.296   5.221   3.399 -0.1612  0.8074  0.7276
 4449TIP3   OH234837   2.637   0.147  12.933  0.4405  0.8302  0.3184
 4449TIP3    H134838   2.646   0.234  12.973 -1.3775  1.2763 -0.2085
 4449TIP3    H234839   2.604   0.164  12.845 -2.2802 -0.4843  1.0229
 4450TIP3   OH234840   3.424   2.749   5.915  0.6403  0.3911  0.4646
 4450TIP3    H134841   3.378   2.676   5.874 -0.1359  0.6236  0.9079
 4450TIP3    H234842   3.507   2.711   5.945  0.1999 -0.3341  0.7809
 4451TIP3   OH234843   5.590   0.364   6.005  0.7698 -0.2112  0.4827
 4451TIP3    H134844   5.602   0.424   5.932 -0.2598 -0.4128  0.1371
 4451TIP3    H234845   5.557   0.419   6.076  1.6636 -0.0348  0.7625
 4452TIP3   OH234846   4.382   2.034   5.333  0.5329 -0.3129 -0.1291
 4452TIP3    H134847   4.445   2.104   5.319  0.5337 -0.5583 -1.3756
 4452TIP3    H234848   4.303   2.078   5.364  0.3860  0.3044 -1.3517
 4453TIP3   OH234849   4.604   3.862  15.966 -0.2773 -0.2617  0.7238
 4453TIP3    H134850   4.591   3.922  15.893 -1.0192  0.6594  1.6066
 4453TIP3    H234851   4.697   3.837  15.961 -0.0089  0.8236  0.2704
 4454TIP3   OH234852   1.082   3.584  12.971 -0.9015 -0.5542  0.4048
 4454TIP3    H134853   1.038   3.505  12.939  2.2070 -2.5136  0.7590
 4454TIP3    H234854   1.088   3.641  12.895 -0.8146 -1.7854 -0.5219
 4455TIP3   OH234855   2.411   2.940   4.728 -0.1257  0.2354 -0.4497
 4455TIP3    H134856   2.340   2.964   4.668 -0.6538 -1.6918 -0.6391
 4455TIP3    H234857   2.394   2.848   4.748  1.2179  0.3092  1.0563
 4456TIP3   OH234858   5.376   3.788  17.071  0.4282 -0.2649 -0.3643
 4456TIP3    H134859   5.388   3.791  16.976 -1.0593  1.9509 -0.5149
 4456TIP3    H234860   5.286   3.817  17.085  0.7732 -0.1397  1.7454
 4457TIP3   OH234861   2.673   2.388  16.316 -0.2582  0.4063 -0.3949
 4457TIP3    H134862   2.765   2.378  16.290 -0.0294  1.7129 -0.1481
 4457TIP3    H234863   2.643   2.466  16.270 -0.6350  1.1822  1.1234
 4458TIP3   OH234864   2.869   1.040  13.008 -0.2719 -0.0998  0.3402
 4458TIP3    H134865   2.837   1.046  13.098  0.9121 -1.6259  0.8933
 4458TIP3    H234866   2.808   1.092  12.957 -0.9259  0.8438  2.0457
 4459TIP3   OH234867   2.887   2.479   4.285 -0.3181  0.4863  0.0267
 4459TIP3    H134868   2.949   2.544   4.319  0.6233  0.0745 -0.8878
 4459TIP3    H234869   2.869   2.421   4.360  0.7659  0.3220  0.1591
 4460TIP3   OH234870   1.488   0.735  15.031 -0.1101  0.1047  0.0152
 4460TIP3    H134871   1.575   0.774  15.025 -0.1860  0.3813  0.6825
 4460TIP3    H234872   1.505   0.642  15.047  0.0679 -0.0881 -1.2870
 4461TIP3   OH234873   4.376   6.796  17.072 -0.7533 -0.2693  0.0731
 4461TIP3    H134874   4.336   6.721  17.115  0.2480 -1.1652 -0.5473
 4461TIP3    H234875   4.348   6.790  16.981  1.0972 -1.1570 -0.4717
 4462TIP3   OH234876   5.491   1.876   4.033  0.2514  0.0950 -0.0185
 4462TIP3    H134877   5.423   1.809   4.040 -1.0849  1.6106  2.3935
 4462TIP3    H234878   5.531   1.879   4.120  1.5776  1.1138 -0.6455
 4463TIP3   OH234879   2.685   1.983  13.308  0.4631 -0.4608 -0.7644
 4463TIP3    H134880   2.696   1.944  13.396  1.5476 -0.9773 -1.1149
 4463TIP3    H234881   2.655   2.072  13.325  0.4283 -0.6320  0.1265
 4464TIP3   OH234882   5.437   4.207  12.017  0.5162  0.6744  0.2545
 4464TIP3    H134883   5.454   4.142  12.085  2.5542  1.0832  0.1717
 4464TIP3    H234884   5.429   4.290  12.063 -0.3840  0.6256  0.1990
 4465TIP3   OH234885   3.149   6.173  16.029 -0.0191  0.2347 -0.1982
 4465TIP3    H134886   3.172   6.263  16.008 -1.1150  0.1491 -1.9131
 4465TIP3    H234887   3.203   6.120  15.970 -0.3395 -0.1674 -0.1338
 4466TIP3   OH234888   3.372   3.147  13.005 -1.0770  0.9944 -0.6234
 4466TIP3    H134889   3.449   3.199  12.981  1.1394 -2.1691 -0.6028
 4466TIP3    H234890   3.358   3.166  13.098 -0.0650  1.2612 -0.5227
 4467TIP3   OH234891   0.364   1.842   4.946  0.3398  0.0469 -0.4188
 4467TIP3    H134892   0.269   1.828   4.946  0.0259  2.0630  0.1350
 4467TIP3    H234893   0.398   1.769   4.999 -1.1070  0.5091  1.1965
 4468TIP3   OH234894   0.975   4.539   0.545  0.6383  0.1760  0.1811
 4468TIP3    H134895   1.042   4.607   0.543  0.1401  0.6562 -0.3309
 4468TIP3    H234896   0.897   4.583   0.576  0.2782 -0.1268 -0.2859
 4469TIP3   OH234897   0.659   1.264  12.996 -0.0299  0.1175  0.5934
 4469TIP3    H134898   0.733   1.244  12.940 -1.1983  1.7962 -1.6494
 4469TIP3    H234899   0.690   1.335  13.053  0.6672 -0.5266  1.0260
 4470TIP3   OH234900   3.907   2.808   3.565  0.0834  0.1647 -0.1326
 4470TIP3    H134901   3.918   2.783   3.657  0.2188 -1.5663 -0.5982
 4470TIP3    H234902   3.934   2.731   3.516 -1.1065  0.6558 -1.6095
 4471TIP3   OH234903   3.858   6.553  16.950 -0.2866  0.0955  0.1123
 4471TIP3    H134904   3.853   6.586  17.039 -0.3867  1.7898 -0.5120
 4471TIP3    H234905   3.768   6.530  16.927 -0.4619  0.9258 -0.0278
 4472TIP3   OH234906   0.273   2.483  14.096  0.0163 -0.4642  0.6587
 4472TIP3    H134907   0.202   2.426  14.064  0.6192 -1.6249  1.3659
 4472TIP3    H234908   0.314   2.433  14.166  1.2496  0.4026  0.5649
 4473TIP3   OH234909   2.465   0.674   2.541  0.3158 -0.4893 -0.2139
 4473TIP3    H134910   2.485   0.766   2.560  1.9772 -1.4517  3.1691
 4473TIP3    H234911   2.390   0.654   2.597 -1.4940 -0.6323 -2.6201
 4474TIP3   OH234912   4.731   0.396  15.511 -0.0172  0.3616  0.1193
 4474TIP3    H134913   4.663   0.447  15.554  1.6039  1.8422  1.0161
 4474TIP3    H234914   4.812   0.425  15.553  1.1810 -1.1797 -1.0906
 4475TIP3   OH234915   1.852   6.184   3.019  0.2407 -0.1260  0.0818
 4475TIP3    H134916   1.847   6.134   3.100  0.4385 -1.1229 -0.5234
 4475TIP3    H234917   1.872   6.120   2.952  2.8002  1.0916 -0.3568
 4476TIP3   OH234918   6.494   0.124   4.467 -0.4192  0.9527  0.1683
 4476TIP3    H134919   6.452   0.102   4.550 -0.8994  1.7032  0.1302
 4476TIP3    H234920   6.423   0.157   4.412 -0.2467 -0.2797 -0.8154
 4477TIP3   OH234921   4.612   6.191   4.693  0.1644 -0.1640 -0.9210
 4477TIP3    H134922   4.639   6.150   4.776 -1.6728 -0.6838 -0.5598
 4477TIP3    H234923   4.523   6.159   4.678 -0.7610  2.5059 -1.4096
 4478TIP3   OH234924   3.449   3.427  11.552  0.3828 -0.6338  0.3081
 4478TIP3    H134925   3.363   3.443  11.591  0.4701  0.4623  0.0833
 4478TIP3    H234926   3.475   3.341  11.585 -0.4126 -0.5885  1.0746
 4479TIP3   OH234927   3.136   2.452  17.200 -0.6060 -0.2333  0.2916
 4479TIP3    H134928   3.169   2.463  17.289 -0.5071  0.0877  0.2172
 4479TIP3    H234929   3.202   2.494  17.145 -0.8652 -0.0725  0.1016
 4480TIP3   OH234930   3.169   5.934  16.240 -0.7381  0.0831 -0.3978
 4480TIP3    H134931   3.148   5.887  16.159 -1.0453 -0.4172 -0.0280
 4480TIP3    H234932   3.089   5.981  16.261  0.0299  1.9976 -1.5913
 4481TIP3   OH234933   2.722   6.242   0.458 -0.5529 -0.4728  0.4314
 4481TIP3    H134934   2.661   6.172   0.436  1.9361 -2.4829 -0.2440
 4481TIP3    H234935   2.781   6.203   0.522 -0.2770  1.5980  1.4665
 4482TIP3   OH234936   0.348   5.552  11.966 -0.4935 -0.1947  0.1446
 4482TIP3    H134937   0.290   5.534  11.892 -0.1119 -1.0834  0.0419
 4482TIP3    H234938   0.376   5.642  11.954 -0.9696 -0.1202 -0.4243
 4483TIP3   OH234939   2.271   6.258  12.103  0.6354 -0.1327  0.0628
 4483TIP3    H134940   2.192   6.229  12.148  0.3534  0.6640  0.0926
 4483TIP3    H234941   2.284   6.194  12.033  1.2397 -1.5590  1.4428
 4484TIP3   OH234942   4.976   6.698   5.387 -0.2112  0.1230  0.6371
 4484TIP3    H134943   5.048   6.757   5.411 -0.4637  0.2863  1.0049
 4484TIP3    H234944   4.905   6.757   5.360 -0.1951 -0.0367  0.2445
 4485TIP3   OH234945   3.590   2.987  14.306 -0.0514 -0.0911 -0.7597
 4485TIP3    H134946   3.599   3.067  14.253  0.4758 -1.3611 -2.6181
 4485TIP3    H234947   3.678   2.949  14.307  0.3765  0.7609  2.4974
 4486TIP3   OH234948   5.134   4.707  11.298 -0.3952  0.0030  0.5381
 4486TIP3    H134949   5.129   4.749  11.212  1.1036  1.8058  1.2981
 4486TIP3    H234950   5.119   4.614  11.280  0.0936  0.3231 -1.7012
 4487TIP3   OH234951   1.095   3.242  14.632 -0.2267 -0.0586 -0.1193
 4487TIP3    H134952   1.187   3.261  14.651 -0.2251 -1.3077  1.2023
 4487TIP3    H234953   1.046   3.308  14.682 -0.0791 -0.2534  0.2867
 4488TIP3   OH234954   2.568   4.625  14.933 -0.3232 -0.3866 -0.3995
 4488TIP3    H134955   2.531   4.702  14.975 -1.2292 -0.3121 -1.2875
 4488TIP3    H234956   2.662   4.642  14.928 -0.6592  1.1876 -1.6569
 4489TIP3   OH234957   6.779   2.010   0.444  0.0201 -0.3731  0.0488
 4489TIP3    H134958   6.740   1.931   0.405 -0.5750 -0.0217 -0.0769
 4489TIP3    H234959   6.705   2.068   0.458  0.5546  0.4777 -0.5931
 4490TIP3   OH234960   3.442   2.117  11.653 -0.0427  0.2255  0.2234
 4490TIP3    H134961   3.486   2.202  11.662  0.1928  0.0858  0.4126
 4490TIP3    H234962   3.421   2.110  11.560  1.4264 -0.2374 -0.0963
 4491TIP3   OH234963   2.569   0.891   5.423 -0.2435 -0.2925 -0.2436
 4491TIP3    H134964   2.572   0.964   5.361 -1.4352 -0.7099 -0.8156
 4491TIP3    H234965   2.541   0.816   5.370 -0.5176 -0.8260  0.6474
 4492TIP3   OH234966   3.433   1.781   4.757  0.1849 -0.6916  1.1933
 4492TIP3    H134967   3.412   1.828   4.838  0.6392 -1.4121  1.7357
 4492TIP3    H234968   3.528   1.777   4.755  0.2963  2.0283 -0.9665
 4493TIP3   OH234969   1.554   2.413  13.416  0.2427 -0.7591 -0.2688
 4493TIP3    H134970   1.527   2.426  13.507  1.6238  1.5540 -0.1419
 4493TIP3    H234971   1.646   2.440  13.415 -0.6535  2.6143 -3.0090
 4494TIP3   OH234972   0.718   1.871  15.889 -0.3150  0.0724 -0.5133
 4494TIP3    H134973   0.693   1.810  15.958  0.6525  0.8260  0.5232
 4494TIP3    H234974   0.797   1.913  15.921  0.9080 -0.4756 -2.6440
 4495TIP3   OH234975   2.619   5.238  14.706  0.0728 -0.1028 -0.6749
 4495TIP3    H134976   2.634   5.247  14.800  0.4150 -0.2885 -0.7102
 4495TIP3    H234977   2.706   5.249  14.667 -0.2005  0.8340 -1.0318
 4496TIP3   OH234978   3.092   3.505   4.238  0.1718 -0.1363 -0.0171
 4496TIP3    H134979   3.185   3.493   4.258  0.0108  0.0785  0.8848
 4496TIP3    H234980   3.075   3.443   4.167  1.4049  1.0350 -1.3684
 4497TIP3   OH234981   1.249   3.555   1.936 -0.5526 -0.0141  0.2632
 4497TIP3    H134982   1.336   3.577   1.970 -0.4108  0.8475 -0.6353
 4497TIP3    H234983   1.252   3.460   1.923  0.5691  0.1320 -0.6156
 4498TIP3   OH234984   3.994   0.758   0.500 -0.2896  0.4164  0.0052
 4498TIP3    H134985   3.955   0.810   0.431 -0.6617  1.3933  0.9357
 4498TIP3    H234986   4.049   0.820   0.549 -0.2504 -0.1896  0.7491
 4499TIP3   OH234987   1.381   4.681   2.360  0.0275  0.4574 -0.0568
 4499TIP3    H134988   1.435   4.707   2.285 -2.1197  0.2090 -1.7309
 4499TIP3    H234989   1.360   4.589   2.344 -0.1915  0.3080  1.0237
 4500TIP3   OH234990   0.341   4.201   0.420 -0.0703  0.3112 -0.2135
 4500TIP3    H134991   0.355   4.288   0.458 -0.6197  0.7415 -0.9788
 4500TIP3    H234992   0.281   4.158   0.482  1.2959 -0.0399  0.8877
 4501TIP3   OH234993   2.517   4.503   5.341 -0.1333  0.2298  0.0197
 4501TIP3    H134994   2.609   4.502   5.315 -0.4770  0.1252 -1.2315
 4501TIP3    H234995   2.480   4.581   5.299 -1.1534 -1.0209 -1.4770
 4502TIP3   OH234996   2.991   1.908   0.930 -0.8165 -0.1948 -0.3034
 4502TIP3    H134997   3.086   1.897   0.925 -0.8985 -0.0676 -2.3791
 4502TIP3    H234998   2.978   1.966   1.006  0.7863  0.1956 -0.3085
 4503TIP3   OH234999   0.134   6.725   3.076 -0.1625  0.6552 -0.0562
 4503TIP3    H135000   0.059   6.699   3.022 -0.5989  0.1645  0.7774
 4503TIP3    H235001   0.095   6.763   3.154  0.4711  1.4812 -0.1321
 4504TIP3   OH235002   6.663   2.686   1.186  0.1511 -0.1842  0.4699
 4504TIP3    H135003   6.690   2.723   1.102 -1.4805 -0.7205 -0.3077
 4504TIP3    H235004   6.615   2.607   1.163 -1.7277  0.5422  1.8258
 4505TIP3   OH235005   3.821   6.535   5.888  0.2375 -0.1885 -0.0051
 4505TIP3    H135006   3.913   6.550   5.909 -0.2668 -0.4857  2.6268
 4505TIP3    H235007   3.788   6.620   5.860  1.1158  0.0793 -0.2422
 4506TIP3   OH235008   3.315   0.421  16.299 -0.9132  1.2180 -0.3422
 4506TIP3    H135009   3.383   0.391  16.237  0.4069  0.7098  1.3171
 4506TIP3    H235010   3.247   0.354  16.294 -0.3649  0.6673 -0.5244
 4507TIP3   OH235011   2.916   6.723   0.869  0.2423 -0.3788 -0.4400
 4507TIP3    H135012   2.997   6.757   0.832  0.0798  0.5713  0.0563
 4507TIP3    H235013   2.853   6.729   0.797  0.5583 -0.9134 -0.7610
 4508TIP3   OH235014   1.429   1.388   1.793 -0.3489  0.4961 -0.1392
 4508TIP3    H135015   1.489   1.334   1.846 -0.6400 -1.9294 -2.1956
 4508TIP3    H235016   1.395   1.453   1.855  1.4649 -0.4920  1.9805
 4509TIP3   OH235017   3.636   2.756  15.481  0.0825 -0.5079 -0.4683
 4509TIP3    H135018   3.598   2.806  15.553  0.4306  0.5961 -1.0469
 4509TIP3    H235019   3.568   2.755  15.414  0.5242  0.2292 -0.9328
 4510TIP3   OH235020   5.415   3.391  15.239 -0.0455 -0.4655  0.8415
 4510TIP3    H135021   5.356   3.372  15.312 -0.8415  0.1210  0.3702
 4510TIP3    H235022   5.357   3.391  15.162  0.4166  0.9879  0.4817
 4511TIP3   OH235023   2.396   4.948  11.779  0.2510 -0.0247 -0.1049
 4511TIP3    H135024   2.452   4.872  11.798  0.3959  0.2305  0.4976
 4511TIP3    H235025   2.313   4.910  11.750  0.6396 -0.4081 -0.7357
 4512TIP3   OH235026   5.950   4.118  11.773 -0.4127  0.0933 -0.0394
 4512TIP3    H135027   5.886   4.130  11.703  0.5916  1.5117 -0.7488
 4512TIP3    H235028   6.030   4.160  11.740  0.5053 -0.5108  1.3517
 4513TIP3   OH235029   3.621   6.550   5.390  0.2537 -0.6652 -0.7666
 4513TIP3    H135030   3.542   6.502   5.415 -0.1910  0.2743 -0.3403
 4513TIP3    H235031   3.686   6.482   5.375  0.2493 -1.3309  1.9228
 4514TIP3   OH235032   0.340   4.936  15.139  0.0108  0.5457  0.2147
 4514TIP3    H135033   0.400   4.862  15.133 -2.3366 -1.7315  3.1912
 4514TIP3    H235034   0.342   4.961  15.232  0.3684  3.9293 -0.6345
 4515TIP3   OH235035   1.099   5.887   4.865  0.2513  0.1202 -0.2965
 4515TIP3    H135036   1.162   5.946   4.825 -2.4913  1.6334 -2.4897
 4515TIP3    H235037   1.044   5.943   4.920 -1.1108 -0.6771 -0.8100
 4516TIP3   OH235038   4.193   6.820  15.239  0.2040  0.0399 -0.4591
 4516TIP3    H135039   4.145   6.794  15.317 -1.1155 -0.2847 -1.3555
 4516TIP3    H235040   4.245   6.896  15.265 -1.5181  0.9723  0.2816
 4517TIP3   OH235041   4.426   2.867   1.471 -0.3084  0.0129 -0.2096
 4517TIP3    H135042   4.455   2.958   1.464  0.7278 -0.4003 -1.4926
 4517TIP3    H235043   4.355   2.859   1.408 -0.6563  0.0347  0.1809
 4518TIP3   OH235044   5.000   2.826  14.952 -0.2422  0.7874  0.4291
 4518TIP3    H135045   4.951   2.822  14.869 -0.1695  0.5974  0.3917
 4518TIP3    H235046   4.976   2.745  14.997 -1.6477  1.7261  1.3757
 4519TIP3   OH235047   5.505   5.869   2.123  0.1507 -0.6642  0.0195
 4519TIP3    H135048   5.583   5.860   2.069  0.7855  2.8369  0.2425
 4519TIP3    H235049   5.536   5.910   2.204 -1.4033 -2.2877  1.4754
 4520TIP3   OH235050   2.218   4.821  12.409 -0.1894 -0.0785 -0.4564
 4520TIP3    H135051   2.126   4.847  12.404 -0.8340 -2.2175 -0.2068
 4520TIP3    H235052   2.258   4.861  12.332 -0.9786  2.1405  0.2324
 4521TIP3   OH235053   6.604   3.293   5.185 -0.3356  0.0586 -0.1692
 4521TIP3    H135054   6.679   3.235   5.182 -0.1123  0.1651  2.1141
 4521TIP3    H235055   6.531   3.237   5.210 -0.5260  0.3932  0.0365
 4522TIP3   OH235056   1.377   3.131  14.183 -0.8695 -0.8294  0.0611
 4522TIP3    H135057   1.344   3.133  14.273 -1.9944  0.3561 -0.3577
 4522TIP3    H235058   1.375   3.038  14.159 -1.1155 -1.0900  1.0560
 4523TIP3   OH235059   2.238   3.056  15.763  0.2879 -0.5160 -0.0530
 4523TIP3    H135060   2.156   3.098  15.791 -0.6243 -2.5038  0.4042
 4523TIP3    H235061   2.297   3.068  15.838  0.1700  0.2615 -0.0766
 4524TIP3   OH235062   6.287   5.091   3.979 -0.3201  0.2039 -0.2306
 4524TIP3    H135063   6.305   4.998   3.991  2.6204  0.6688 -0.7631
 4524TIP3    H235064   6.290   5.128   4.067  0.3924  0.0978 -0.2081
 4525TIP3   OH235065   0.243   4.263  12.846 -0.2714 -0.2517 -0.4279
 4525TIP3    H135066   0.230   4.169  12.842 -0.1974 -0.4715  2.8898
 4525TIP3    H235067   0.336   4.273  12.866  0.3919  0.6692 -3.6668
 4526TIP3   OH235068   0.898   2.437  16.425 -0.3430  0.1070 -0.5169
 4526TIP3    H135069   0.817   2.464  16.468  0.2938  3.6325 -1.3492
 4526TIP3    H235070   0.941   2.380  16.489 -2.6236 -0.3464  0.6537
 4527TIP3   OH235071   2.865   3.891   3.715 -0.2308  0.5179 -0.4706
 4527TIP3    H135072   2.950   3.901   3.673  0.6098  0.7865  1.2487
 4527TIP3    H235073   2.870   3.807   3.761 -0.3060  1.2724  0.9414
 4528TIP3   OH235074   2.281   6.172   0.517 -0.3164 -0.1031  0.1643
 4528TIP3    H135075   2.217   6.177   0.589 -1.6453  0.0293 -1.0109
 4528TIP3    H235076   2.364   6.151   0.561 -1.3540 -1.3107  1.6125
 4529TIP3   OH235077   3.824   4.430  12.722 -0.0926  0.3219 -0.0050
 4529TIP3    H135078   3.915   4.449  12.700 -0.7376  2.7492 -0.7515
 4529TIP3    H235079   3.801   4.495  12.789 -1.3818 -0.0260 -0.0912
 4530TIP3   OH235080   6.364   3.595  12.043  0.0427 -0.2148 -0.8205
 4530TIP3    H135081   6.318   3.517  12.072  0.5216  0.4110  1.6947
 4530TIP3    H235082   6.453   3.565  12.025  0.0391 -0.3714 -0.5698
 4531TIP3   OH235083   6.702   4.440   6.501  0.1276  0.5582 -0.0499
 4531TIP3    H135084   6.661   4.468   6.583 -1.5669  1.3375 -1.1352
 4531TIP3    H235085   6.703   4.345   6.506  0.3616  0.6069  1.0280
 4532TIP3   OH235086   2.307   0.518  13.808  0.0383 -0.5337  0.3681
 4532TIP3    H135087   2.399   0.544  13.809  0.3671 -1.6814  1.4936
 4532TIP3    H235088   2.300   0.452  13.877 -1.4539 -1.0550 -0.2575
 4533TIP3   OH235089   0.105   6.009   3.476 -0.4701 -0.2741  0.0638
 4533TIP3    H135090   0.199   5.998   3.490 -0.6593 -1.3518  0.5889
 4533TIP3    H235091   0.087   5.961   3.395 -0.1840  1.9465 -1.3692
 4534TIP3   OH235092   3.259   1.423  16.092 -0.0930  0.4035 -1.0404
 4534TIP3    H135093   3.253   1.408  15.997  0.6191  1.0166 -1.1840
 4534TIP3    H235094   3.349   1.400  16.115  0.0126  1.1650 -0.6772
 4535TIP3   OH235095   0.486   2.487   3.306  0.5030 -0.2455 -0.5936
 4535TIP3    H135096   0.395   2.478   3.333  0.2938 -0.8026 -1.4950
 4535TIP3    H235097   0.498   2.422   3.237  1.0869  1.0426 -1.7238
 4536TIP3   OH235098   4.752   3.996   1.766 -0.0903 -0.7017  0.7438
 4536TIP3    H135099   4.834   4.008   1.814  0.4460 -0.4305 -0.2383
 4536TIP3    H235100   4.773   4.019   1.675 -1.9408  2.1380  0.9717
 4537TIP3   OH235101   2.788   6.418  13.890 -0.5181 -0.1402 -0.1538
 4537TIP3    H135102   2.782   6.357  13.817  2.9893  1.4577 -1.9070
 4537TIP3    H235103   2.758   6.502  13.854 -0.9316  0.1726  0.8943
 4538TIP3   OH235104   6.445   3.555   3.825 -0.6239 -0.0004  0.3226
 4538TIP3    H135105   6.489   3.619   3.769  1.0700 -0.7952  0.7324
 4538TIP3    H235106   6.512   3.526   3.887 -1.6848 -1.3296  0.8782
 4539TIP3   OH235107   2.321   1.547  14.676 -0.0737 -0.4638 -0.0144
 4539TIP3    H135108   2.327   1.475  14.739  0.0303  0.5009  1.0882
 4539TIP3    H235109   2.261   1.609  14.717 -1.4686 -0.6540 -1.7037
 4540TIP3   OH235110   5.372   6.671  14.988  0.0661 -0.4788  0.7544
 4540TIP3    H135111   5.426   6.660  15.066  0.5128 -0.4907  0.4394
 4540TIP3    H235112   5.283   6.650  15.018 -0.4673  3.6922  2.3391
 4541TIP3   OH235113   2.354   2.179  13.449 -0.4509 -0.1212 -0.2763
 4541TIP3    H135114   2.287   2.230  13.494  1.1828  0.5927  1.3940
 4541TIP3    H235115   2.395   2.127  13.518 -1.5185 -3.1437 -1.7907
 4542TIP3   OH235116   4.979   2.292  11.320 -0.1330  0.1123 -0.0788
 4542TIP3    H135117   4.903   2.319  11.372  0.5656  1.1567  0.4198
 4542TIP3    H235118   4.944   2.231  11.255 -1.5356  1.2676 -0.4144
 4543TIP3   OH235119   1.160   4.287  14.969 -0.0622 -0.6162  0.5888
 4543TIP3    H135120   1.246   4.266  14.932  0.0836 -0.2318  0.7010
 4543TIP3    H235121   1.100   4.284  14.894 -0.0032 -1.1815  0.5639
 4544TIP3   OH235122   5.253   0.868  12.099  0.0961 -0.0962 -0.7571
 4544TIP3    H135123   5.251   0.930  12.026 -4.1251 -0.8479 -1.4131
 4544TIP3    H235124   5.285   0.786  12.061 -1.1307 -0.2086 -1.5638
 4545TIP3   OH235125   4.075   6.410  13.400  0.2612 -0.1034 -0.1037
 4545TIP3    H135126   4.065   6.472  13.328  1.4318  0.6935  0.4014
 4545TIP3    H235127   4.110   6.462  13.473 -0.1454 -1.0550  0.7877
 4546TIP3   OH235128   2.746   2.613   0.597 -0.3867 -0.3857  0.2553
 4546TIP3    H135129   2.764   2.641   0.687 -2.1933  0.7616  0.2757
 4546TIP3    H235130   2.651   2.613   0.590 -0.2621 -0.5453 -1.6465
 4547TIP3   OH235131   0.920   5.672   4.143  0.5477  0.6874 -0.2207
 4547TIP3    H135132   0.913   5.617   4.222 -0.4364  1.5774  0.3228
 4547TIP3    H235133   0.947   5.611   4.074  1.8531 -0.0168  0.8888
 4548TIP3   OH235134   5.785   2.794   5.834 -0.2749 -0.0993  0.5071
 4548TIP3    H135135   5.832   2.872   5.863 -0.7301  0.5006 -0.3564
 4548TIP3    H235136   5.765   2.811   5.742 -1.4690 -0.7056  0.6487
 4549TIP3   OH235137   1.978   0.996   5.135 -0.7174 -0.1026  0.3480
 4549TIP3    H135138   1.971   1.043   5.052 -0.3483  0.5565  0.6883
 4549TIP3    H235139   1.995   0.906   5.110 -1.0258  0.0159 -0.3015
 4550TIP3   OH235140   3.855   6.276  13.484  0.0112  0.4850 -0.0150
 4550TIP3    H135141   3.809   6.290  13.402 -0.7143 -0.6087  0.1897
 4550TIP3    H235142   3.944   6.307  13.468  0.5301 -1.8752 -1.9613
 4551TIP3   OH235143   0.009   5.869  16.766 -0.0357  0.0978  0.1688
 4551TIP3    H135144  -0.087   5.871  16.765 -0.0336  0.1668 -0.8748
 4551TIP3    H235145   0.031   5.812  16.839 -0.8117  2.5979  2.4276
 4552TIP3   OH235146   3.201   6.143  14.553  0.3865 -0.1279 -0.3393
 4552TIP3    H135147   3.243   6.221  14.515 -0.6813  1.4600  1.6499
 4552TIP3    H235148   3.246   6.130  14.636  0.7113 -1.7982 -0.7712
 4553TIP3   OH235149   6.431   1.927   5.540  1.1195 -0.6236 -0.0329
 4553TIP3    H135150   6.445   1.921   5.634 -0.9026 -0.9504  0.2825
 4553TIP3    H235151   6.454   2.017   5.517  0.9351 -0.3361  0.9020
 4554TIP3   OH235152   6.291   2.855   1.389  0.1153  0.1863  0.3620
 4554TIP3    H135153   6.209   2.891   1.355  1.1123  1.5799 -0.6060
 4554TIP3    H235154   6.351   2.857   1.314  1.5674  0.8771  1.5195
 4555TIP3   OH235155   2.331   2.855  12.984 -0.4810 -0.2815 -0.1606
 4555TIP3    H135156   2.390   2.928  13.004 -0.5747 -0.6494  1.5345
 4555TIP3    H235157   2.302   2.872  12.894  1.8680  0.1367 -0.8735
 4556TIP3   OH235158   5.969   2.160   1.103  0.2553  0.3011 -0.0728
 4556TIP3    H135159   5.935   2.245   1.073  0.6631  0.3605 -0.3599
 4556TIP3    H235160   5.982   2.173   1.197  0.5099  0.6232 -0.1497
 4557TIP3   OH235161   1.754   5.132  14.721 -0.0668  0.8709 -0.2627
 4557TIP3    H135162   1.714   5.168  14.642 -0.8300 -1.2191 -0.8581
 4557TIP3    H235163   1.690   5.148  14.790 -0.9216 -0.3774 -0.7570
 4558TIP3   OH235164   5.000   1.598   3.490  0.4830 -0.0412  0.0057
 4558TIP3    H135165   5.007   1.649   3.410 -3.1234  2.6013  1.2193
 4558TIP3    H235166   5.090   1.583   3.518  1.7498  0.4873 -3.5709
 4559TIP3   OH235167   5.307   2.551  13.090  0.1987 -0.1149  0.0978
 4559TIP3    H135168   5.316   2.641  13.120  2.0562 -0.4862  0.7396
 4559TIP3    H235169   5.391   2.510  13.112 -0.1663 -1.6743 -1.2946
 4560TIP3   OH235170   0.843   1.101  14.428 -0.1658 -0.4954 -0.2457
 4560TIP3    H135171   0.884   1.158  14.363 -0.1660 -0.4877 -0.2394
 4560TIP3    H235172   0.915   1.045  14.459 -0.1755 -0.5306 -0.2862
 4561TIP3   OH235173   3.776   0.278   1.181 -0.1582 -0.3367 -0.3857
 4561TIP3    H135174   3.712   0.211   1.157  0.7835 -1.8168  1.0849
 4561TIP3    H235175   3.828   0.292   1.103 -0.6274 -1.0164 -0.8188
 4562TIP3   OH235176   6.159   4.670   3.184 -0.4091 -0.0822 -0.0873
 4562TIP3    H135177   6.193   4.640   3.100 -2.1420 -0.9565 -0.5061
 4562TIP3    H235178   6.064   4.675   3.171 -0.6169  0.6199  1.5518
 4563TIP3   OH235179   1.540   0.263   5.819  0.0047  0.2519  0.0564
 4563TIP3    H135180   1.551   0.240   5.911 -0.0356  1.5227  0.3894
 4563TIP3    H235181   1.581   0.349   5.810 -1.1335  0.7275 -0.8177
 4564TIP3   OH235182   5.657   1.956  12.849 -0.1360 -0.2098 -0.4863
 4564TIP3    H135183   5.698   1.869  12.854  1.2131  0.5264  1.7516
 4564TIP3    H235184   5.581   1.943  12.793 -1.6544 -3.5187  2.1603
 4565TIP3   OH235185   3.140   4.273  15.828  0.0916  0.5012  0.1957
 4565TIP3    H135186   3.234   4.271  15.809 -0.2302  0.3622 -1.4780
 4565TIP3    H235187   3.121   4.187  15.864  0.2767 -0.1522 -1.2265
 4566TIP3   OH235188   3.662   1.620  17.226  0.4772 -0.3194  0.0678
 4566TIP3    H135189   3.651   1.619  17.131 -2.7582 -0.6634  0.4096
 4566TIP3    H235190   3.656   1.713  17.250  0.8003 -0.2814  0.0100
 4567TIP3   OH235191   3.780   4.356  14.221 -0.2047 -0.7301 -0.1178
 4567TIP3    H135192   3.807   4.330  14.309 -0.5302 -0.1271  0.1665
 4567TIP3    H235193   3.693   4.394  14.232  0.7853  1.7041 -0.2791
 4568TIP3   OH235194   0.646   0.214   1.873 -0.1777  0.1181 -0.7648
 4568TIP3    H135195   0.711   0.282   1.855 -0.0865  0.0581 -0.6655
 4568TIP3    H235196   0.694   0.132   1.861 -0.6004  0.0629 -2.0217
 4569TIP3   OH235197   6.034   1.467   0.405  0.1337 -0.5082 -0.2194
 4569TIP3    H135198   6.115   1.430   0.371 -0.7126 -3.0468  0.4119
 4569TIP3    H235199   5.974   1.467   0.331  0.7829  1.7331 -0.7873
 4570TIP3   OH235200   4.172   6.210  13.104  0.3533 -0.4568  0.3819
 4570TIP3    H135201   4.229   6.141  13.071  0.7957  1.0408 -2.1315
 4570TIP3    H235202   4.146   6.259  13.026 -1.9951  0.6932  1.8194
 4571TIP3   OH235203   6.330   3.000   4.321 -0.1394  0.4398 -0.5221
 4571TIP3    H135204   6.331   2.992   4.225  0.7050  1.3055 -0.5955
 4571TIP3    H235205   6.275   2.928   4.350 -0.3506  0.1213 -1.6606
 4572TIP3   OH235206   0.891   5.765  16.909  0.6189  0.1069 -0.2271
 4572TIP3    H135207   0.975   5.806  16.931  1.1851 -1.0455 -0.1690
 4572TIP3    H235208   0.830   5.838  16.898  1.3986  0.9079  0.6955
 4573TIP3   OH235209   3.751   5.492   0.738 -0.6328 -0.2077  0.1107
 4573TIP3    H135210   3.768   5.581   0.769 -0.0694 -0.4906  0.6259
 4573TIP3    H235211   3.810   5.481   0.664  0.2755 -0.6165  0.8827
 4574TIP3   OH235212   3.813   1.399  15.756  0.1478 -0.6973  0.2945
 4574TIP3    H135213   3.789   1.492  15.754 -0.4401 -0.7846  2.3882
 4574TIP3    H235214   3.904   1.399  15.785  0.2849 -0.7576 -0.1338
 4575TIP3   OH235215   0.954   6.299   4.327  0.1332 -0.1460 -0.1891
 4575TIP3    H135216   0.895   6.263   4.260 -0.2274  1.1221 -0.5707
 4575TIP3    H235217   0.976   6.225   4.382 -1.2110 -0.7970 -0.5066
 4576TIP3   OH235218   2.154   3.752  15.270  0.1217  0.1840  0.2836
 4576TIP3    H135219   2.104   3.672  15.289 -0.0120 -0.0543 -0.9836
 4576TIP3    H235220   2.107   3.821  15.316 -0.8992 -0.1769 -0.1958
 4577TIP3   OH235221   1.353   1.947  12.503 -0.3876 -0.2351  0.7505
 4577TIP3    H135222   1.294   1.916  12.571 -0.1583 -2.8816 -0.2163
 4577TIP3    H235223   1.312   1.921  12.421 -0.0427  1.8172 -0.1176
 4578TIP3   OH235224   2.992   1.195   6.443  0.0304  0.0755 -0.8230
 4578TIP3    H135225   2.973   1.269   6.501 -1.4420 -1.4420  0.7029
 4578TIP3    H235226   2.915   1.186   6.388  1.7056  1.9356 -3.5747
 4579TIP3   OH235227   5.795   6.575  11.479 -0.7822  0.6986 -1.0140
 4579TIP3    H135228   5.846   6.652  11.455 -0.8098  0.9759 -0.2149
 4579TIP3    H235229   5.859   6.515  11.517 -0.4493 -0.4342 -3.3245
 4580TIP3   OH235230   4.690   6.668  14.293  0.4483  0.2590 -0.1891
 4580TIP3    H135231   4.749   6.701  14.225  0.2539  0.9659 -0.0211
 4580TIP3    H235232   4.746   6.653  14.369  0.3408  1.4410  0.1408
 4581TIP3   OH235233   1.194   2.984  13.214 -0.1060 -0.5495 -0.5109
 4581TIP3    H135234   1.261   2.920  13.190 -0.2747 -0.3583 -1.5181
 4581TIP3    H235235   1.135   2.936  13.272  0.0923 -1.1347 -0.7916
 4582TIP3   OH235236   2.662   2.691  14.337  0.4843 -0.4816 -0.4644
 4582TIP3    H135237   2.641   2.780  14.309  1.6615 -0.0867 -0.0922
 4582TIP3    H235238   2.647   2.691  14.432  0.6883 -0.6347 -0.4334
 4583TIP3   OH235239   1.199   2.261  16.165  0.1008  0.3167 -0.3161
 4583TIP3    H135240   1.182   2.235  16.074  0.0699  2.3470 -0.9270
 4583TIP3    H235241   1.261   2.196  16.197 -0.4040 -0.8267 -1.5651
 4584TIP3   OH235242   0.547   0.139   6.544 -0.3622  0.0207 -0.5146
 4584TIP3    H135243   0.631   0.174   6.573 -0.3112  0.5987 -1.3328
 4584TIP3    H235244   0.482   0.202   6.574 -0.4571 -0.1668 -0.3225
 4585TIP3   OH235245   4.401   0.690   3.710 -0.5588 -0.4385  0.3048
 4585TIP3    H135246   4.401   0.784   3.692 -2.4639 -0.3849  0.4257
 4585TIP3    H235247   4.373   0.683   3.801 -0.1406 -1.1137  0.3823
 4586TIP3   OH235248   3.863   5.905   0.080 -0.5584  0.2335  0.0495
 4586TIP3    H135249   3.873   5.867   0.167 -0.1114 -0.1919 -0.1805
 4586TIP3    H235250   3.845   5.998   0.095 -1.9398 -0.1298  0.6260
 4587TIP3   OH235251   6.529   1.543   5.648  0.4384  0.3453  0.4095
 4587TIP3    H135252   6.609   1.508   5.688  0.7811  1.7098  0.9161
 4587TIP3    H235253   6.560   1.606   5.583 -0.2139  0.6515  0.3904
 4588TIP3   OH235254   3.565   2.513  12.502  0.0593 -0.3077  0.1861
 4588TIP3    H135255   3.632   2.458  12.543 -0.1918 -0.0840  0.8879
 4588TIP3    H235256   3.487   2.500  12.555 -0.2867 -0.0798 -0.2659
 4589TIP3   OH235257   6.497   0.760   3.209  0.4704 -0.5764 -0.2908
 4589TIP3    H135258   6.551   0.839   3.217  0.7277 -0.8026  0.2587
 4589TIP3    H235259   6.409   0.793   3.189  0.4458 -0.1186  0.5539
 4590TIP3   OH235260   5.092   1.092   1.066 -0.0549 -0.2645  0.5587
 4590TIP3    H135261   5.029   1.041   1.118  1.3924 -0.9568  1.6621
 4590TIP3    H235262   5.168   1.102   1.123  1.0974  0.0123 -0.9973
 4591TIP3   OH235263   2.879   0.106   0.597 -0.3635 -0.3787 -0.0138
 4591TIP3    H135264   2.820   0.151   0.657  1.3999  1.0011  0.7643
 4591TIP3    H235265   2.826   0.037   0.557 -1.8365 -0.6908  2.3855
 4592TIP3   OH235266   5.915   1.812   4.343  0.1780  0.2090  0.3349
 4592TIP3    H135267   5.935   1.888   4.398 -0.5767  0.7825 -0.1880
 4592TIP3    H235268   5.927   1.842   4.254 -1.5964  0.1464  0.0654
 4593TIP3   OH235269   3.322   5.574   0.783  0.4456  0.5739 -0.2059
 4593TIP3    H135270   3.386   5.612   0.843  1.5362  1.1287 -1.6867
 4593TIP3    H235271   3.345   5.482   0.778  2.4395  1.1347 -2.2732
 4594TIP3   OH235272   3.567   4.928  10.385  0.0458 -0.4385  0.3892
 4594TIP3    H135273   3.631   4.924  10.457 -0.0217  2.8589  0.7248
 4594TIP3    H235274   3.601   4.996  10.327 -1.9541 -0.2792 -0.6277
 4595TIP3   OH235275   3.724   0.920  15.801 -0.4017  0.4503  0.4465
 4595TIP3    H135276   3.735   1.003  15.755  0.0729 -0.5223 -1.2644
 4595TIP3    H235277   3.742   0.940  15.892 -0.0733  2.1730  0.0187
 4596TIP3   OH235278   0.253   3.109  15.803  0.9264 -0.1036 -0.6375
 4596TIP3    H135279   0.282   3.197  15.779  3.2520 -0.5787  0.3364
 4596TIP3    H235280   0.193   3.123  15.877 -0.5744  0.7971 -1.9832
 4597TIP3   OH235281   1.159   3.905  16.181 -0.4507  0.4959  0.0537
 4597TIP3    H135282   1.068   3.877  16.195 -0.9556  3.0851  2.5583
 4597TIP3    H235283   1.151   3.996  16.155  1.4632  0.9439  1.0181
 4598TIP3   OH235284   1.398   1.234   4.609 -0.1351 -0.2480 -0.3035
 4598TIP3    H135285   1.444   1.292   4.549 -0.2208 -0.0897 -0.2155
 4598TIP3    H235286   1.440   1.250   4.694 -3.5880  3.5271  0.8271
 4599TIP3   OH235287   2.763   2.640  13.715  0.0141  0.0195  0.5764
 4599TIP3    H135288   2.721   2.723  13.693 -0.2372 -0.3338 -0.2813
 4599TIP3    H235289   2.829   2.664  13.780 -0.6517  0.7627  1.0031
 4600TIP3   OH235290   5.872   3.441   6.940  0.0568 -0.4905  0.5955
 4600TIP3    H135291   5.881   3.355   6.899 -0.3509 -0.6669  0.8829
 4600TIP3    H235292   5.952   3.451   6.993  1.6771  0.6745 -1.9632
 4601TIP3   OH235293   5.212   0.033   5.425  0.0695  0.4720  0.3604
 4601TIP3    H135294   5.259  -0.045   5.395 -1.3742 -0.4195  0.3769
 4601TIP3    H235295   5.274   0.104   5.412  1.1037 -0.5510 -0.4766
 4602TIP3   OH235296   2.470   0.580   0.602  0.1733 -0.4760 -0.4744
 4602TIP3    H135297   2.437   0.616   0.685 -0.5486 -2.7882  0.2891
 4602TIP3    H235298   2.407   0.611   0.537 -0.7060 -0.7373  0.2301
 4603TIP3   OH235299   1.939   6.795   0.854 -0.4383 -0.0057  0.4559
 4603TIP3    H135300   2.018   6.848   0.839 -0.6159  0.1416  0.0148
 4603TIP3    H235301   1.924   6.751   0.770 -2.6294  2.4037 -0.5031
 4604TIP3   OH235302   4.768   5.625  14.005 -0.8058  0.3559  0.3366
 4604TIP3    H135303   4.845   5.681  14.013 -0.2838  0.0299 -1.9934
 4604TIP3    H235304   4.726   5.655  13.924 -0.7413 -2.3271 -0.7314
 4605TIP3   OH235305   3.408   6.644  12.578 -0.1907  0.0918  0.0521
 4605TIP3    H135306   3.375   6.730  12.605  0.3057 -0.6174  3.1561
 4605TIP3    H235307   3.501   6.647  12.601  0.2667 -0.5919 -1.6621
 4606TIP3   OH235308   0.606   3.582  15.311  0.4405 -0.0595 -0.5843
 4606TIP3    H135309   0.670   3.541  15.254  1.3964 -0.8630  1.0112
 4606TIP3    H235310   0.633   3.557  15.400 -1.8874 -0.1448  0.1421
 4607TIP3   OH235311   4.293   2.148  12.197  0.7931  0.0855  0.1073
 4607TIP3    H135312   4.210   2.100  12.194  0.2306  1.0391  0.0881
 4607TIP3    H235313   4.299   2.181  12.286 -0.1496  2.2250 -0.5742
 4608TIP3   OH235314   3.527   3.596   1.607  0.2951  0.0878 -0.0134
 4608TIP3    H135315   3.553   3.681   1.571  0.4514  0.0084 -0.0905
 4608TIP3    H235316   3.567   3.532   1.548 -1.3269 -0.0328 -1.0111
 4609TIP3   OH235317   0.209   2.097   2.084  0.2962  0.6412 -0.1846
 4609TIP3    H135318   0.207   2.069   1.992  1.2216 -1.5030  0.4330
 4609TIP3    H235319   0.119   2.085   2.114  1.0344 -3.7347  0.6188
 4610TIP3   OH235320   4.147   1.824  14.313 -0.1033 -0.1262 -0.5189
 4610TIP3    H135321   4.153   1.734  14.279 -0.3637  0.5252 -2.3521
 4610TIP3    H235322   4.054   1.836  14.333 -0.0093 -0.3776  0.0960
 4611TIP3   OH235323   1.174   0.895   2.753  0.0022  0.1938  0.4596
 4611TIP3    H135324   1.213   0.979   2.776  0.0283  0.9478 -2.1768
 4611TIP3    H235325   1.231   0.860   2.684 -1.0283 -1.1217  0.2501
 4612TIP3   OH235326   0.026   0.561  13.706  0.2113 -0.0862  0.2771
 4612TIP3    H135327  -0.046   0.526  13.758 -0.3352 -0.0233 -0.4327
 4612TIP3    H235328   0.042   0.648  13.743 -0.6011  0.2146 -0.0793
 4613TIP3   OH235329   3.453   3.320   1.470 -0.5138  0.0077  0.4384
 4613TIP3    H135330   3.538   3.323   1.513  0.2627  1.7439 -1.1382
 4613TIP3    H235331   3.473   3.288   1.381 -1.3535  1.3889 -0.2570
 4614TIP3   OH235332   2.807   3.798  14.517  0.3486 -0.0201 -0.0440
 4614TIP3    H135333   2.853   3.831  14.594 -2.6280  0.8702  1.4092
 4614TIP3    H235334   2.807   3.703  14.527 -0.2535  0.1123  1.1797
 4615TIP3   OH235335   3.449   5.412  16.245 -0.1938 -0.2037  0.6932
 4615TIP3    H135336   3.418   5.410  16.335 -0.9876  1.3356  0.4556
 4615TIP3    H235337   3.459   5.504  16.224 -0.4526 -0.5257 -0.9473
 4616TIP3   OH235338   1.044   6.182   0.950 -0.4299 -0.3865  0.1537
 4616TIP3    H135339   0.974   6.230   0.994  0.8932  1.7877 -0.0376
 4616TIP3    H235340   1.001   6.139   0.876 -1.1797  2.7988 -1.3309
 4617TIP3   OH235341   5.774   5.983  17.113  0.2611  0.3632 -0.2894
 4617TIP3    H135342   5.832   6.053  17.085 -1.9882  1.9372 -1.1596
 4617TIP3    H235343   5.770   5.923  17.038  0.7340  0.2332 -0.2156
 4618TIP3   OH235344   0.335   2.278  14.276  0.7945  0.2639  0.1538
 4618TIP3    H135345   0.398   2.298  14.344  0.7156 -0.5670  0.4795
 4618TIP3    H235346   0.362   2.192  14.242  0.9869  0.7860 -1.0360
 4619TIP3   OH235347   2.458   0.864  10.549 -0.3660 -0.5037  0.2442
 4619TIP3    H135348   2.509   0.867  10.468  0.7246 -0.9112  0.8968
 4619TIP3    H235349   2.386   0.925  10.535  0.1147 -0.1704 -0.8294
 4620TIP3   OH235350   4.755   0.312  15.024 -0.5530 -0.3554  0.0798
 4620TIP3    H135351   4.828   0.372  15.006 -2.9087  2.8689  0.8067
 4620TIP3    H235352   4.779   0.270  15.106  1.3742 -0.8619 -0.6921
 4621TIP3   OH235353   2.428   1.982  15.755 -0.0838  0.3344  0.3136
 4621TIP3    H135354   2.402   1.916  15.690  1.5594 -1.1391  1.1294
 4621TIP3    H235355   2.442   1.932  15.835 -0.1496  1.8821  1.2886
 4622TIP3   OH235356   6.646   3.685   0.579  0.0395  1.1218  0.2459
 4622TIP3    H135357   6.631   3.746   0.506  1.9426  0.9370 -0.3269
 4622TIP3    H235358   6.705   3.733   0.638 -1.4608  1.2514  1.6598
 4623TIP3   OH235359   6.645   1.875  14.807  0.0770 -0.5974 -0.4513
 4623TIP3    H135360   6.632   1.781  14.812 -0.2708 -0.5157  0.3399
 4623TIP3    H235361   6.721   1.886  14.750  0.7999 -1.4062  0.3399
 4624TIP3   OH235362   2.511   5.282  12.234 -0.1305 -0.7734 -0.2759
 4624TIP3    H135363   2.446   5.243  12.293  1.7009  1.4793  3.4802
 4624TIP3    H235364   2.469   5.361  12.200 -0.9623 -1.7402 -1.5291
 4625TIP3   OH235365   4.411   4.504  11.423 -0.1871  0.0022 -0.2174
 4625TIP3    H135366   4.426   4.585  11.375 -0.7847  0.4815  0.4005
 4625TIP3    H235367   4.332   4.467  11.385  0.4737 -0.6600 -0.9776
 4626TIP3   OH235368   1.892   3.092   5.437 -0.1860  0.0099 -0.1255
 4626TIP3    H135369   1.948   3.130   5.505 -0.0908  0.4908 -0.4720
 4626TIP3    H235370   1.854   3.014   5.478 -2.9057  2.2000  1.7004
 4627TIP3   OH235371   5.833   0.895   5.918  0.4188  0.2273 -0.3175
 4627TIP3    H135372   5.821   0.851   6.002  0.0581  0.7420 -0.0974
 4627TIP3    H235373   5.797   0.835   5.853  0.2374  0.0501 -0.0521
 4628TIP3   OH235374   0.949   5.816   5.281 -0.1751 -0.1611 -0.0980
 4628TIP3    H135375   0.861   5.814   5.318 -1.0037  2.8942 -1.7545
 4628TIP3    H235376   1.000   5.870   5.341  0.7948 -2.4555  1.2067
 4629TIP3   OH235377   5.571   1.452  13.257  0.5995 -0.4736 -0.5063
 4629TIP3    H135378   5.651   1.414  13.220  1.6958  1.3247 -0.0550
 4629TIP3    H235379   5.586   1.452  13.352  0.6241  0.9979 -0.4906
 4630TIP3   OH235380   2.490   5.772   0.787 -0.1666  0.0682  0.2746
 4630TIP3    H135381   2.577   5.740   0.762  0.8890  3.0891 -0.1545
 4630TIP3    H235382   2.508   5.845   0.846 -2.4505  0.4515  0.5178
 4631TIP3   OH235383   1.620   1.553  10.545 -0.3045  0.5304 -0.1023
 4631TIP3    H135384   1.548   1.508  10.500 -0.3056  1.0612 -0.6394
 4631TIP3    H235385   1.682   1.483  10.565 -0.2275  0.3048 -1.0881
 4632TIP3   OH235386   2.717   4.938  14.372 -0.5710  0.4770 -0.3630
 4632TIP3    H135387   2.771   4.967  14.446  0.2396 -3.0267  0.4833
 4632TIP3    H235388   2.744   4.995  14.300  2.5570  0.4034  0.6721
 4633TIP3   OH235389   2.577   4.172   3.686 -0.6051 -0.4872 -0.4168
 4633TIP3    H135390   2.584   4.080   3.661  1.8958 -0.2639 -0.6610
 4633TIP3    H235391   2.638   4.182   3.758 -1.2600  0.8685 -0.0332
 4634TIP3   OH235392   1.097   6.757  14.299 -0.0809 -0.2248 -0.3762
 4634TIP3    H135393   1.084   6.674  14.345  1.4485  0.3834  1.2014
 4634TIP3    H235394   1.165   6.738  14.234  0.1399 -0.2398 -0.1377
 4635TIP3   OH235395   1.876   5.701   0.816 -0.1130 -0.1700  0.0108
 4635TIP3    H135396   1.834   5.622   0.847 -0.5734  0.1451  0.1949
 4635TIP3    H235397   1.876   5.760   0.891  0.7550 -0.2046  0.0490
 4636TIP3   OH235398   1.577   0.063   5.558 -0.6789 -0.2017  0.0253
 4636TIP3    H135399   1.673   0.070   5.554 -0.7461  0.7030 -0.2462
 4636TIP3    H235400   1.553   0.113   5.635 -1.0331  0.7425 -0.6915
 4637TIP3   OH235401   2.311   3.230  16.681  0.2513  1.0671 -0.0619
 4637TIP3    H135402   2.313   3.326  16.675 -0.2350  1.0031 -1.3678
 4637TIP3    H235403   2.246   3.212  16.749 -1.0586  1.6223 -1.1553
 4638TIP3   OH235404   2.070   4.802  16.244 -0.1161  0.0597  0.3875
 4638TIP3    H135405   2.113   4.745  16.307 -0.2610 -0.8800 -0.3562
 4638TIP3    H235406   1.994   4.752  16.214  0.0593  0.4088 -0.6731
 4639TIP3   OH235407   5.649   5.559   3.336 -0.2985  0.5239 -0.3992
 4639TIP3    H135408   5.634   5.469   3.366  0.8292  0.0018 -1.3701
 4639TIP3    H235409   5.628   5.557   3.242  2.0971  0.6665 -0.9611
 4640TIP3   OH235410   1.325   3.390  11.952  0.5057 -0.0477  0.2859
 4640TIP3    H135411   1.390   3.333  11.911  1.0534  0.0564  0.9893
 4640TIP3    H235412   1.372   3.430  12.026 -0.6219 -0.7021  1.3861
 4641TIP3   OH235413   1.673   0.816  13.989 -0.1338 -0.1355 -0.0396
 4641TIP3    H135414   1.666   0.912  13.984  1.4475  0.0535  1.0960
 4641TIP3    H235415   1.675   0.797  14.083 -0.8669 -1.3278 -0.2615
 4642TIP3   OH235416   5.417   3.292   3.480 -0.3188 -0.6213  0.1237
 4642TIP3    H135417   5.395   3.290   3.387  1.2939 -1.0080 -0.2708
 4642TIP3    H235418   5.365   3.222   3.519  0.4887 -1.7726 -0.8395
 4643TIP3   OH235419   5.813   5.372  14.073  0.3278  0.1024  0.1206
 4643TIP3    H135420   5.858   5.455  14.055 -0.0692  0.7808  2.0770
 4643TIP3    H235421   5.879   5.305  14.054  1.7284  1.0235  1.5088
 4644TIP3   OH235422   0.960   1.720  11.483 -0.1990  0.2260 -0.0651
 4644TIP3    H135423   0.885   1.676  11.444  0.3359 -0.0012 -0.8598
 4644TIP3    H235424   1.033   1.698  11.425 -0.0332  2.6481 -0.8694
 4645TIP3   OH235425   2.305   5.868  13.039 -0.5805 -0.8517 -0.1601
 4645TIP3    H135426   2.370   5.842  13.104  0.3559  2.1695  0.1841
 4645TIP3    H235427   2.357   5.898  12.964 -1.5786  0.3880 -0.3704
 4646TIP3   OH235428   0.396   6.133   0.116 -0.3048  0.0557  0.2524
 4646TIP3    H135429   0.436   6.122   0.029  0.7992 -0.8834  0.8725
 4646TIP3    H235430   0.443   6.072   0.172 -1.3918  0.2617  1.4074
 4647TIP3   OH235431   3.562   1.703  13.495  0.5354 -0.7236  0.4003
 4647TIP3    H135432   3.575   1.760  13.570  0.6166 -1.4197  0.9258
 4647TIP3    H235433   3.487   1.740  13.448  0.2548 -0.4993  1.0278
 4648TIP3   OH235434   6.744   1.274  14.768  0.6770  0.0771 -0.9029
 4648TIP3    H135435   6.742   1.347  14.707 -0.3824  0.6979 -0.1421
 4648TIP3    H235436   6.700   1.203  14.721 -2.9276  1.4541  0.2230
 4649TIP3   OH235437   1.082   0.416  14.549 -0.4217 -0.4457  0.0170
 4649TIP3    H135438   1.008   0.462  14.590 -0.0508  0.3842 -0.2272
 4649TIP3    H235439   1.069   0.429  14.455  1.0931  1.3970  0.0412
 4650TIP3   OH235440   5.925   2.930   3.479 -0.1236  0.7466 -0.1506
 4650TIP3    H135441   5.894   2.980   3.403 -1.4209  0.7656  0.3881
 4650TIP3    H235442   5.846   2.904   3.525  0.5044 -2.0497 -0.5449
 4651TIP3   OH235443   6.126   1.365  14.841 -0.4781 -0.7423  0.3468
 4651TIP3    H135444   6.040   1.379  14.802 -0.5458 -0.9472  0.4173
 4651TIP3    H235445   6.143   1.445  14.891 -0.6288 -0.7012  0.3331
 4652TIP3   OH235446   6.469   1.781  13.160  0.7390  0.1906 -0.0071
 4652TIP3    H135447   6.499   1.701  13.203  0.0903  0.4732  0.9933
 4652TIP3    H235448   6.477   1.762  13.066  2.0995 -0.4539  0.2275
 4653TIP3   OH235449   6.439   6.781   3.236 -0.1686 -0.3922  0.4262
 4653TIP3    H135450   6.486   6.728   3.171 -0.6603 -0.0867 -0.1904
 4653TIP3    H235451   6.440   6.728   3.315  2.2453  0.1283  0.7783
 4654TIP3   OH235452   4.724   3.696  14.764 -0.4601  0.8134  0.1332
 4654TIP3    H135453   4.789   3.762  14.739  1.2534 -1.4167 -1.5744
 4654TIP3    H235454   4.756   3.660  14.846 -0.7970  1.3285  0.4915
 4655TIP3   OH235455   0.230   4.932   4.662 -0.2165 -0.0187  0.6310
 4655TIP3    H135456   0.288   4.862   4.692  1.2571  0.5688 -0.7635
 4655TIP3    H235457   0.237   4.929   4.566 -2.2476  0.2692  0.4583
 4656TIP3   OH235458   2.856   5.006  14.909 -0.3898 -0.0850  0.0184
 4656TIP3    H135459   2.925   5.072  14.914  0.7416 -1.0926 -1.8396
 4656TIP3    H235460   2.865   4.956  14.991  0.6385  0.2271  0.1102
 4657TIP3   OH235461   4.192   0.385   1.934  1.0035 -0.0425  0.5380
 4657TIP3    H135462   4.158   0.416   2.017  1.7273  0.1714  0.7632
 4657TIP3    H235463   4.265   0.444   1.914  0.7093  0.0306 -0.3403
 4658TIP3   OH235464   3.418   6.379   6.354 -0.5432 -0.4480 -0.5963
 4658TIP3    H135465   3.380   6.292   6.367  0.6274 -1.0910 -1.3569
 4658TIP3    H235466   3.512   6.364   6.355 -0.3307  0.8536 -0.5037
 4659TIP3   OH235467   2.217   6.468   1.318 -0.1924 -0.2749 -0.0380
 4659TIP3    H135468   2.228   6.431   1.406  2.1249 -0.4173 -0.3476
 4659TIP3    H235469   2.228   6.562   1.330 -1.9451 -0.0843  0.1253
 4660TIP3   OH235470   6.008   4.979   1.339 -0.2038 -0.3576 -0.3776
 4660TIP3    H135471   6.095   4.939   1.334  0.6673  1.5030 -0.6263
 4660TIP3    H235472   5.965   4.952   1.258  1.0414  0.6788 -1.4210
 4661TIP3   OH235473   3.318   4.047   1.910 -0.6008 -0.1652 -0.0743
 4661TIP3    H135474   3.309   3.989   1.834  0.5987 -0.2624 -0.1486
 4661TIP3    H235475   3.349   4.130   1.873  1.2247 -0.6007  0.4436
 4662TIP3   OH235476   6.792   2.841   2.300  0.1182 -0.2120  0.3694
 4662TIP3    H135477   6.879   2.876   2.320 -0.6559  1.7039  0.5521
 4662TIP3    H235478   6.783   2.765   2.357  0.9370  0.6909  1.7274
 4663TIP3   OH235479   1.326   3.520  16.053 -0.2207  0.2324 -0.5897
 4663TIP3    H135480   1.384   3.580  16.006 -1.3526  0.5216 -1.6601
 4663TIP3    H235481   1.238   3.557  16.041 -0.7754 -0.8673 -0.0608
 4664TIP3   OH235482   0.941   1.111   5.593  0.1322 -0.1534 -0.0681
 4664TIP3    H135483   0.886   1.190   5.591 -0.4450 -0.5136  1.0947
 4664TIP3    H235484   1.031   1.144   5.590 -0.0361  0.6860  3.1030
 4665TIP3   OH235485   5.623   2.100   5.130  0.1441  0.0584 -0.4701
 4665TIP3    H135486   5.573   2.045   5.190  0.1203 -0.7526 -1.2179
 4665TIP3    H235487   5.706   2.116   5.175 -0.7257  1.3324  0.7366
 4666TIP3   OH235488   3.226   3.574  11.882  0.4127 -0.0721 -0.0147
 4666TIP3    H135489   3.209   3.490  11.838  0.2186 -0.8637  1.5394
 4666TIP3    H235490   3.318   3.592  11.863 -0.5245  1.3087 -3.5720
 4667TIP3   OH235491   3.170   0.747   0.751  0.1504 -0.1347 -0.0458
 4667TIP3    H135492   3.166   0.751   0.655  0.1176  1.1432  0.0028
 4667TIP3    H235493   3.247   0.692   0.769  0.6106  0.2413 -0.8073
 4668TIP3   OH235494   4.118   4.769   5.877  0.1852  0.2782  0.9155
 4668TIP3    H135495   4.183   4.740   5.812  1.1886  0.1056  1.9800
 4668TIP3    H235496   4.038   4.721   5.854  0.7468 -0.3594  0.2675
 4669TIP3   OH235497   1.246   5.174  15.500  0.5522  0.3490  0.0447
 4669TIP3    H135498   1.289   5.200  15.418  0.0480 -0.3537 -0.4467
 4669TIP3    H235499   1.313   5.186  15.567  1.5360 -0.7158 -0.7185
 4670TIP3   OH235500   3.357   2.053   1.629  0.2286 -0.1122  0.2926
 4670TIP3    H135501   3.375   1.959   1.638 -1.1044 -0.1894  2.2960
 4670TIP3    H235502   3.406   2.093   1.701  1.7681  0.8902 -1.2650
 4671TIP3   OH235503   0.253   0.969   2.711  0.4936 -0.0894  0.2895
 4671TIP3    H135504   0.327   1.027   2.696  0.9449 -0.3475  1.4650
 4671TIP3    H235505   0.188   0.996   2.646  1.8117 -0.2145 -1.0938
 4672TIP3   OH235506   5.776   6.674   5.566  0.5803  0.2237 -0.0263
 4672TIP3    H135507   5.827   6.633   5.637 -0.9394 -0.3114  0.7777
 4672TIP3    H235508   5.758   6.762   5.597  1.1020  0.4598 -0.3728
 4673TIP3   OH235509   5.421   3.278   4.588 -0.2373 -0.2184 -0.1603
 4673TIP3    H135510   5.416   3.358   4.641  1.1786 -0.3856  0.2200
 4673TIP3    H235511   5.494   3.293   4.528  0.9018 -1.7806  0.8260
 4674TIP3   OH235512   1.874   5.995  13.202  0.1561 -0.9388  0.0380
 4674TIP3    H135513   1.844   5.939  13.131 -0.0741 -0.6324 -0.1070
 4674TIP3    H235514   1.801   6.054  13.219  0.2625 -0.9180  0.4318
 4675TIP3   OH235515   5.433   5.397  13.331  0.4964  0.1875 -0.2385
 4675TIP3    H135516   5.394   5.375  13.246  1.9308  2.2199 -1.4589
 4675TIP3    H235517   5.508   5.338  13.338  0.7803  0.4874 -0.7132
 4676TIP3   OH235518   2.804   3.770   4.541 -0.1245  0.2103  0.0019
 4676TIP3    H135519   2.899   3.765   4.533  0.2957 -0.8132  4.2908
 4676TIP3    H235520   2.789   3.819   4.622 -3.2751  0.5383 -0.6953
 4677TIP3   OH235521   1.703   0.064  15.104 -0.1064 -0.2736  0.0385
 4677TIP3    H135522   1.643   0.009  15.053  1.4333 -0.9067 -1.1601
 4677TIP3    H235523   1.738   0.006  15.171 -1.1206  0.1967  0.9731
 4678TIP3   OH235524   1.992   1.319   4.121  0.2298 -0.1586 -1.3876
 4678TIP3    H135525   1.995   1.284   4.210 -1.4794  1.1020 -0.8093
 4678TIP3    H235526   1.972   1.244   4.066  1.0697 -0.9032 -0.6903
 4679TIP3   OH235527   5.398   6.302  17.199 -0.3216  0.2205 -0.0552
 4679TIP3    H135528   5.336   6.247  17.152  0.7691 -1.3172  0.2318
 4679TIP3    H235529   5.438   6.357  17.132 -1.2620  0.5087 -0.3821
 4680TIP3   OH235530   6.666   1.325   2.372 -0.0390  0.6055  0.3697
 4680TIP3    H135531   6.757   1.355   2.371  0.0820  0.2339  0.6230
 4680TIP3    H235532   6.644   1.314   2.279  0.0990  0.9139  0.2973
 4681TIP3   OH235533   0.458   6.720  12.552  0.2553 -0.1300 -0.2683
 4681TIP3    H135534   0.514   6.781  12.601  0.7073  0.9256 -2.0512
 4681TIP3    H235535   0.431   6.656  12.617 -0.3793  2.0674  1.7274
 4682TIP3   OH235536   0.814   0.038   4.632 -0.6685  0.0235 -0.2041
 4682TIP3    H135537   0.870   0.097   4.682 -1.5310  0.4132  0.3047
 4682TIP3    H235538   0.774   0.092   4.565  0.4773 -0.4983 -1.3289
 4683TIP3   OH235539   1.608   5.521  13.518  0.1373 -0.1610  0.3549
 4683TIP3    H135540   1.695   5.503  13.554  0.0620  0.9267  1.1003
 4683TIP3    H235541   1.625   5.569  13.438  0.1978  1.9665  1.6031
 4684TIP3   OH235542   2.352   5.327  13.984  0.6817  0.5199 -0.4452
 4684TIP3    H135543   2.437   5.317  13.941 -0.4611 -2.3158 -2.1745
 4684TIP3    H235544   2.341   5.246  14.034 -1.8632 -0.0472 -1.8485
 4685TIP3   OH235545   1.787   5.212   3.500 -0.1375  0.0430  0.0797
 4685TIP3    H135546   1.825   5.235   3.416 -0.9559  0.1538 -0.2618
 4685TIP3    H235547   1.780   5.116   3.498 -0.6561  0.0875 -0.1920
 4686TIP3   OH235548   1.143   2.460  16.339 -0.1962  0.4378  0.1477
 4686TIP3    H135549   1.148   2.391  16.272 -2.0260  0.5755 -0.1548
 4686TIP3    H235550   1.052   2.491  16.335 -0.6583 -0.2758  3.3991
 4687TIP3   OH235551   3.757   1.992  14.148  0.1468  0.0432  0.1030
 4687TIP3    H135552   3.772   1.904  14.114 -0.1070  0.2216 -0.4683
 4687TIP3    H235553   3.666   1.992  14.176  0.3388 -0.0872  0.7455
 4688TIP3   OH235554   1.715   4.605   3.886 -0.2580  0.0308  0.1567
 4688TIP3    H135555   1.635   4.571   3.846 -0.6175  0.4696  0.4952
 4688TIP3    H235556   1.780   4.537   3.870 -0.1804  0.5722 -1.9075
 4689TIP3   OH235557   0.789   4.564   6.038  0.0575  0.4697  0.2556
 4689TIP3    H135558   0.862   4.559   6.099 -2.3802  0.6554  3.3464
 4689TIP3    H235559   0.753   4.475   6.034 -0.8953  0.8252  0.5603
 4690TIP3   OH235560   3.238   6.216   5.491 -0.1395  0.0969  0.0029
 4690TIP3    H135561   3.319   6.254   5.525  0.5805 -1.8209  0.5402
 4690TIP3    H235562   3.192   6.186   5.569 -0.0485 -1.3093 -0.4657
 4691TIP3   OH235563   1.360   3.441   4.471  0.0557 -0.2134  0.2967
 4691TIP3    H135564   1.349   3.505   4.400 -1.0603  0.2493  0.8674
 4691TIP3    H235565   1.422   3.377   4.436 -0.9076 -0.3046 -1.3071
 4692TIP3   OH235566   3.189   2.740   1.304  0.1821  0.0227  0.2698
 4692TIP3    H135567   3.113   2.774   1.350  0.4600  0.0509  0.7135
 4692TIP3    H235568   3.177   2.767   1.213 -0.6613 -0.5317  0.2066
 4693TIP3   OH235569   5.523   5.646   1.776 -0.3329 -0.2002  0.1355
 4693TIP3    H135570   5.558   5.627   1.863  0.7724  0.5174 -0.1292
 4693TIP3    H235571   5.546   5.570   1.724 -1.1156 -0.6899  0.5061
 4694TIP3   OH235572   3.976   6.477   3.651  0.2278 -0.2217  0.5627
 4694TIP3    H135573   4.023   6.543   3.600 -0.6127 -0.0659 -0.0116
 4694TIP3    H235574   3.888   6.514   3.663 -0.5207 -1.6350 -0.5248
 4695TIP3   OH235575   4.895   6.216   0.815 -0.0823  0.0533 -0.2820
 4695TIP3    H135576   4.803   6.229   0.793 -0.6482 -2.4943  0.5268
 4695TIP3    H235577   4.906   6.121   0.820  2.4842  0.3334  0.1105
 4696TIP3   OH235578   1.971   2.121  11.318  0.0356 -0.0606 -0.0016
 4696TIP3    H135579   1.988   2.042  11.369  0.4605 -0.9806 -1.5392
 4696TIP3    H235580   1.969   2.091  11.227 -1.3590  1.4385 -0.4905
 4697TIP3   OH235581   5.004   5.218  14.598  0.4385  0.4160  0.1437
 4697TIP3    H135582   5.015   5.278  14.524  0.8129 -0.9041 -0.8974
 4697TIP3    H235583   4.938   5.156  14.568 -1.2423  1.3292  1.8823
 4698TIP3   OH235584   3.852   4.084  16.006  0.7216 -0.2461 -0.5323
 4698TIP3    H135585   3.854   4.047  16.094 -0.1256  1.0384  0.0521
 4698TIP3    H235586   3.774   4.045  15.965 -0.8800  1.7397  0.5031
 4699TIP3   OH235587   0.831   1.375   2.778 -0.4175 -0.3517 -0.5257
 4699TIP3    H135588   0.854   1.445   2.716  2.2456 -0.6289  0.1161
 4699TIP3    H235589   0.743   1.399   2.808  0.1028  2.2687 -0.9607
 4700TIP3   OH235590   1.830   1.629  14.966 -0.4669 -0.0473 -0.4057
 4700TIP3    H135591   1.864   1.705  14.919  0.6942 -0.5508 -0.3757
 4700TIP3    H235592   1.741   1.619  14.932 -0.6013  1.2697 -0.4671
 4701TIP3   OH235593   2.351   3.373   5.876  0.0266 -0.8066  0.1638
 4701TIP3    H135594   2.360   3.427   5.954  0.2468  0.1550 -0.5208
 4701TIP3    H235595   2.392   3.289   5.900  0.4875 -0.3638  0.9289
 4702TIP3   OH235596   1.849   2.394  15.080  0.3008 -0.0200  0.2163
 4702TIP3    H135597   1.790   2.423  15.011  0.6651  0.2913  0.0298
 4702TIP3    H235598   1.793   2.376  15.155 -0.1544 -0.8140 -0.3031
 4703TIP3   OH235599   1.393   2.485  11.611  0.0292  0.1398  0.0055
 4703TIP3    H135600   1.428   2.570  11.639  0.2592  0.7210 -2.0080
 4703TIP3    H235601   1.420   2.476  11.520 -4.4939  0.3453 -1.4822
 4704TIP3   OH235602   6.487   2.465   1.128 -0.2559  0.7415 -0.3596
 4704TIP3    H135603   6.552   2.400   1.104  1.6980  3.3950 -2.6039
 4704TIP3    H235604   6.418   2.456   1.063 -0.7293 -0.0766  0.2460
 4705TIP3   OH235605   6.054   0.935   5.523 -0.0705 -0.0700 -0.4015
 4705TIP3    H135606   6.110   0.956   5.448  2.1087 -2.7303  0.4005
 4705TIP3    H235607   6.105   0.962   5.599 -0.4407 -1.2428  0.2808
 4706TIP3   OH235608   4.831   1.777   1.972 -0.2688  0.6525  0.2105
 4706TIP3    H135609   4.880   1.840   1.919  2.0682 -0.1278  1.3553
 4706TIP3    H235610   4.861   1.691   1.942  1.1502  0.1960  2.7916
 4707TIP3   OH235611   4.697   5.687  14.309 -0.3172  0.2195 -0.3661
 4707TIP3    H135612   4.788   5.714  14.321 -0.4816  0.7785 -0.3540
 4707TIP3    H235613   4.703   5.605  14.261  0.1618  0.8349 -1.3836
 4708TIP3   OH235614   6.112   5.991   3.491 -0.4238 -0.2188 -0.0261
 4708TIP3    H135615   6.087   6.082   3.509  0.8957 -0.0412  1.0064
 4708TIP3    H235616   6.207   5.990   3.504 -0.4510 -1.7667  0.0579
 4709TIP3   OH235617   2.617   0.530  11.344  0.2128 -0.3953 -0.6107
 4709TIP3    H135618   2.677   0.512  11.272  0.7991 -0.9881  0.0120
 4709TIP3    H235619   2.560   0.600  11.312  1.6022  0.5560 -1.0000
 4710TIP3   OH235620   3.435   2.624  16.118  0.1515 -0.3885 -0.6219
 4710TIP3    H135621   3.473   2.711  16.108 -1.7163  0.5708  0.4672
 4710TIP3    H235622   3.490   2.581  16.184  1.0212 -0.0211 -1.0972
 4711TIP3   OH235623   1.624   2.517  10.345  0.2634 -0.1975  0.0142
 4711TIP3    H135624   1.551   2.472  10.303  0.1639  0.6163 -0.7197
 4711TIP3    H235625   1.597   2.527  10.436 -1.1196  1.2220 -0.5197
 4712TIP3   OH235626   1.897   5.648   4.373  0.4250 -0.6849  0.3207
 4712TIP3    H135627   1.964   5.667   4.308  0.2380  0.0889  0.3487
 4712TIP3    H235628   1.945   5.607   4.445  0.6062 -1.6977 -0.3663
 4713TIP3   OH235629   5.809   0.090   3.857 -0.4368 -0.3432  0.5799
 4713TIP3    H135630   5.838   0.102   3.948  1.3912 -1.5692  0.1839
 4713TIP3    H235631   5.792  -0.003   3.849 -0.2621 -0.2976 -0.4281
 4714TIP3   OH235632   3.020   4.128   2.388  0.1662  0.5771  0.5033
 4714TIP3    H135633   2.986   4.167   2.468  0.4176  0.4652  0.6668
 4714TIP3    H235634   3.070   4.051   2.417 -0.0060  0.3538  0.2151
 4715TIP3   OH235635   0.567   5.994   3.861  0.0531  0.2786  0.1327
 4715TIP3    H135636   0.598   5.938   3.932 -1.7166 -0.7493  0.1162
 4715TIP3    H235637   0.614   5.964   3.784 -0.4900 -0.8356  0.2322
 4716TIP3   OH235638   3.370   4.306   5.814 -0.0748  0.4371 -0.4198
 4716TIP3    H135639   3.317   4.258   5.877  0.2693  0.0648 -0.4082
 4716TIP3    H235640   3.440   4.345   5.867 -1.1487  2.1325 -0.2176
 4717TIP3   OH235641   5.365   0.843  12.501  0.2216 -0.4923 -0.1014
 4717TIP3    H135642   5.344   0.917  12.558  1.0977 -0.6072  0.3832
 4717TIP3    H235643   5.295   0.842  12.436 -1.3875 -1.0391  1.6276
 4718TIP3   OH235644   2.499   3.613  11.836 -0.2248  0.9160 -0.2762
 4718TIP3    H135645   2.430   3.643  11.895 -1.6423  1.4308 -2.1472
 4718TIP3    H235646   2.531   3.693  11.794  2.4508  0.8436  1.5232
 4719TIP3   OH235647   4.064   6.097   5.517  0.4265 -0.8541  0.1071
 4719TIP3    H135648   4.112   6.087   5.435 -0.2159  1.1902 -0.5585
 4719TIP3    H235649   4.058   6.008   5.553 -0.3328 -1.9762 -2.6595
 4720TIP3   OH235650   2.324   3.335   5.113  0.6759 -0.9973 -0.2262
 4720TIP3    H135651   2.276   3.275   5.055 -1.4999  1.3342 -0.9589
 4720TIP3    H235652   2.318   3.295   5.200 -1.2299 -1.5805 -0.6019
 4721TIP3   OH235653   1.128   1.332   3.598 -0.0563 -0.0139  0.3350
 4721TIP3    H135654   1.045   1.306   3.637 -0.3933  0.1271 -0.2873
 4721TIP3    H235655   1.189   1.333   3.671 -1.0489  1.8653  1.1848
 4722TIP3   OH235656   6.481   1.059  16.508 -0.4124 -0.2885 -0.3276
 4722TIP3    H135657   6.393   1.024  16.523 -0.0714 -0.9987  0.0669
 4722TIP3    H235658   6.467   1.144  16.466 -1.3409  0.5764  1.6785
 4723TIP3   OH235659   1.027   1.361  11.403 -0.5316  0.2887  0.0588
 4723TIP3    H135660   1.011   1.304  11.328 -2.0319  1.5429 -0.5995
 4723TIP3    H235661   0.942   1.365  11.448  0.3159 -0.3421  1.7564
 4724TIP3   OH235662   3.229   1.817  16.794 -0.0712  0.5299  0.0928
 4724TIP3    H135663   3.281   1.774  16.862 -0.3697  1.2474  0.7727
 4724TIP3    H235664   3.176   1.746  16.757  0.5094  0.0278  0.2150
 4725TIP3   OH235665   4.259   3.460   4.567  0.5730 -0.6264 -0.2535
 4725TIP3    H135666   4.316   3.448   4.643 -0.1723  0.1879  0.4600
 4725TIP3    H235667   4.198   3.387   4.571 -0.4170  0.2378  0.8229
 4726TIP3   OH235668   4.284   1.979  16.150 -0.4932 -0.1367  0.2054
 4726TIP3    H135669   4.328   2.039  16.212 -1.4271 -0.2960  1.0287
 4726TIP3    H235670   4.262   2.035  16.075 -0.1194  0.2475  0.3761
 4727TIP3   OH235671   5.159   5.472   5.609 -0.2484  0.0839  0.4380
 4727TIP3    H135672   5.205   5.550   5.641 -0.5151 -0.0365  1.1206
 4727TIP3    H235673   5.219   5.400   5.630 -0.3056  0.0342  0.4285
 4728TIP3   OH235674   6.217   1.086   0.128  0.0194 -0.3842  0.0614
 4728TIP3    H135675   6.304   1.122   0.109 -0.4501  0.9439  0.3799
 4728TIP3    H235676   6.167   1.101   0.047  0.7359 -3.2817 -0.9846
 4729TIP3   OH235677   5.530   0.428  12.299 -0.8999  0.2943  0.1564
 4729TIP3    H135678   5.599   0.477  12.343 -0.8955  0.3146  0.1265
 4729TIP3    H235679   5.576   0.381  12.229 -0.6215 -1.1575  1.3053
 4730TIP3   OH235680   2.050   0.912  16.968 -0.2249 -0.5208  0.0688
 4730TIP3    H135681   2.089   0.829  16.993 -0.1084 -0.5523 -0.2155
 4730TIP3    H235682   2.121   0.976  16.976 -0.6022 -0.2486  1.3823
 4731TIP3   OH235683   5.523   0.764   0.329 -0.2335 -0.0159  0.1286
 4731TIP3    H135684   5.440   0.718   0.322 -1.1835  1.7639 -0.5093
 4731TIP3    H235685   5.505   0.838   0.387  1.0689  0.0331  0.4956
 4732TIP3   OH235686   0.342   4.578   4.484 -0.2451  0.0244  0.1147
 4732TIP3    H135687   0.291   4.579   4.564 -1.5960  1.1710 -0.7577
 4732TIP3    H235688   0.279   4.594   4.414  0.6548 -2.4656 -1.3411
 4733TIP3   OH235689   3.426   2.955   0.692 -0.4397  0.0026 -0.1734
 4733TIP3    H135690   3.510   2.927   0.728 -0.6709  0.0040  0.3750
 4733TIP3    H235691   3.427   2.924   0.602 -0.1664 -0.6688  0.0550
 4734TIP3   OH235692   1.007   1.765  15.747 -0.4080 -0.0497 -0.1694
 4734TIP3    H135693   0.965   1.694  15.698  0.6812  0.3084 -1.6501
 4734TIP3    H235694   0.965   1.762  15.833 -0.0279 -2.8399 -0.0129
 4735TIP3   OH235695   1.226   6.448   5.147  0.0062  0.1882 -0.4179
 4735TIP3    H135696   1.171   6.517   5.184  0.3700 -0.0084  0.5109
 4735TIP3    H235697   1.259   6.485   5.065 -2.0743  0.0269 -1.3507
 4736TIP3   OH235698   6.502   4.561   1.303  0.0784  0.1036 -0.6656
 4736TIP3    H135699   6.536   4.551   1.392 -1.2602  0.1883 -0.1225
 4736TIP3    H235700   6.444   4.637   1.308 -0.5391 -0.3070 -1.4488
 4737TIP3   OH235701   0.502   2.846   5.694  0.3729  0.0641 -0.2425
 4737TIP3    H135702   0.598   2.849   5.696  0.4114  0.4455 -1.8903
 4737TIP3    H235703   0.476   2.835   5.785  1.9418  1.6998  0.4236
 4738TIP3   OH235704   5.775   3.858   4.189  0.4306  0.3854 -0.4799
 4738TIP3    H135705   5.721   3.937   4.191 -0.9139 -0.4344 -2.4608
 4738TIP3    H235706   5.781   3.831   4.281 -0.4738  1.8461  0.0316
 4739TIP3   OH235707   6.269   5.794   0.714 -0.2011  0.0573 -0.0428
 4739TIP3    H135708   6.209   5.788   0.789 -0.8583  2.8717 -0.2755
 4739TIP3    H235709   6.212   5.790   0.637  0.4774 -2.8420 -0.4277
 4740TIP3   OH235710   2.860   6.339   0.982  0.1962 -0.5202 -0.1765
 4740TIP3    H135711   2.889   6.393   1.055  0.9084 -1.4190  0.2135
 4740TIP3    H235712   2.770   6.369   0.964  0.5749  0.7706  0.0326
 4741TIP3   OH235713   3.887   1.892  14.363  1.0461  0.0972  0.3072
 4741TIP3    H135714   3.868   1.952  14.291  2.7025  0.1904 -0.0524
 4741TIP3    H235715   3.800   1.866  14.395  0.3018  0.6423 -1.2117
 4742TIP3   OH235716   2.951   6.530   6.361 -0.0027 -0.3341 -0.1053
 4742TIP3    H135717   2.950   6.437   6.385 -0.7777  0.2155  2.0449
 4742TIP3    H235718   2.860   6.559   6.371  0.3087  0.7611 -0.3720
 4743TIP3   OH235719   2.955   6.293  14.255  0.4618 -0.0572 -0.1970
 4743TIP3    H135720   3.041   6.330  14.234  0.2152  0.1883 -0.8030
 4743TIP3    H235721   2.974   6.203  14.282  0.8089 -0.3809 -1.4572
 4744TIP3   OH235722   1.936   2.884   5.668  0.6141  0.1748 -0.1163
 4744TIP3    H135723   2.006   2.887   5.604  2.1446  0.1154  1.5238
 4744TIP3    H235724   1.973   2.838   5.743 -0.7394  1.2947  1.2915
 4745TIP3   OH235725   6.246   1.823   1.153 -0.3689 -0.3776 -0.6356
 4745TIP3    H135726   6.227   1.731   1.134 -1.9820 -0.4837  1.4092
 4745TIP3    H235727   6.162   1.862   1.173  0.5655  1.0620  0.5943
 4746TIP3   OH235728   1.313   6.730   1.778 -0.5327  0.3081 -0.7170
 4746TIP3    H135729   1.306   6.822   1.803 -0.4444  0.4127 -1.0715
 4746TIP3    H235730   1.341   6.685   1.859 -1.0652  0.5132 -0.4181
 4747TIP3   OH235731   5.067   0.306  11.942  0.2609 -0.4529 -0.6907
 4747TIP3    H135732   5.143   0.253  11.966 -0.2864 -0.5463  0.8686
 4747TIP3    H235733   5.101   0.369  11.878  0.6678 -3.3463 -3.3864
 4748TIP3   OH235734   1.914   1.410   5.677 -0.0474 -0.2104  0.1230
 4748TIP3    H135735   1.922   1.449   5.764  0.4856  0.8839 -0.4140
 4748TIP3    H235736   1.989   1.443   5.629  0.0432 -1.3667 -0.5535
 4749TIP3   OH235737   2.961   3.550   2.034 -0.4083  0.1721 -0.1240
 4749TIP3    H135738   2.959   3.635   2.078 -0.7610 -0.2082  0.6117
 4749TIP3    H235739   2.992   3.489   2.102 -0.4452 -0.3312 -0.5578
 4750TIP3   OH235740   1.563   4.550   4.880 -0.7603 -0.4189 -0.0065
 4750TIP3    H135741   1.553   4.526   4.972  1.5721  0.4243  0.5072
 4750TIP3    H235742   1.500   4.621   4.867 -1.6624 -1.0624  0.6988
 4751TIP3   OH235743   5.151   0.879   1.924 -0.2511 -0.0084 -0.1328
 4751TIP3    H135744   5.151   0.824   1.846 -0.6939  0.6051 -0.5758
 4751TIP3    H235745   5.226   0.850   1.975 -0.1360 -0.6113 -0.6513
 4752TIP3   OH235746   2.610   6.065  14.480  0.4367  0.0154  0.2364
 4752TIP3    H135747   2.687   6.118  14.497  1.6523 -1.5203 -0.4180
 4752TIP3    H235748   2.537   6.118  14.514  1.5257  2.3587 -0.9763
 4753TIP3   OH235749   6.606   1.357  15.842 -0.0892  0.1112 -0.0258
 4753TIP3    H135750   6.559   1.274  15.831  0.4353  0.0024 -1.6868
 4753TIP3    H235751   6.540   1.418  15.874 -0.9961 -0.4279 -0.8235
 4754TIP3   OH235752   4.690   1.350  16.622 -0.0840  0.4430 -0.4069
 4754TIP3    H135753   4.670   1.257  16.627 -2.0264  0.9085  1.1861
 4754TIP3    H235754   4.605   1.393  16.627  0.7034  2.2878 -2.3003
 4755TIP3   OH235755   0.077   4.932  15.254 -0.8964  0.0625  0.1879
 4755TIP3    H135756   0.006   4.901  15.198 -1.0910 -1.0973  1.0466
 4755TIP3    H235757   0.135   4.979  15.196 -0.7595 -1.6667 -1.1228
 4756TIP3   OH235758   6.502   1.405  14.227 -0.2521 -0.5447  0.3101
 4756TIP3    H135759   6.428   1.464  14.239  0.0026  0.2987 -2.0697
 4756TIP3    H235760   6.471   1.339  14.166  0.9698 -0.1347 -0.7764
 4757TIP3   OH235761   1.102   0.179  15.467  0.2513 -0.1931  0.1532
 4757TIP3    H135762   1.071   0.249  15.410  0.9650 -0.5995 -0.7561
 4757TIP3    H235763   1.024   0.147  15.512 -0.0996  1.0628  0.4430
 4758TIP3   OH235764   5.178   3.859   1.481  0.1825 -0.1556  0.0699
 4758TIP3    H135765   5.162   3.820   1.567 -1.7977 -1.2843 -0.8004
 4758TIP3    H235766   5.273   3.875   1.481  0.7641 -3.1116  1.2434
 4759TIP3   OH235767   0.435   0.004  15.388 -0.0426 -0.7308 -0.3615
 4759TIP3    H135768   0.499   0.019  15.318 -0.7084 -1.9897 -1.2695
 4759TIP3    H235769   0.471   0.049  15.464  0.3819  1.2205 -1.6930
 4760TIP3   OH235770   1.305   3.763  13.687 -0.6631 -0.3115  0.0321
 4760TIP3    H135771   1.265   3.796  13.767 -3.1430  1.5622 -1.8657
 4760TIP3    H235772   1.380   3.712  13.716 -2.3777 -0.9408  3.5970
 4761TIP3   OH235773   4.847   3.930  15.036 -0.4570  0.4240  0.1421
 4761TIP3    H135774   4.807   3.992  15.096  1.3917  0.8844  0.9218
 4761TIP3    H235775   4.831   3.966  14.949  1.4664  2.5489  0.6305
 4762TIP3   OH235776   0.145   1.401  14.944  0.0319  0.0038 -0.3688
 4762TIP3    H135777   0.102   1.327  14.901 -0.2814  0.1774 -0.3546
 4762TIP3    H235778   0.128   1.387  15.037 -0.2359  0.2268 -0.3850
 4763TIP3   OH235779   1.634   1.672  14.658  0.5644 -0.1928  0.3018
 4763TIP3    H135780   1.620   1.743  14.595 -0.3197  1.8128  2.6370
 4763TIP3    H235781   1.710   1.701  14.709  1.0687 -1.6192  0.3663
 4764TIP3   OH235782   5.720   6.109   6.146 -0.1272  0.5306 -0.2901
 4764TIP3    H135783   5.727   6.178   6.212 -0.1952  0.8250 -0.5915
 4764TIP3    H235784   5.629   6.113   6.117  0.0389  0.7502 -0.7811
 4765TIP3   OH235785   2.064   2.250  10.966  0.1599  0.1783 -0.0142
 4765TIP3    H135786   2.006   2.181  10.999 -2.0415  2.1064  0.2916
 4765TIP3    H235787   2.107   2.285  11.044  0.8529 -0.4277 -0.1090
 4766TIP3   OH235788   5.748   3.427   0.083  0.4906 -0.3626 -0.4841
 4766TIP3    H135789   5.748   3.351   0.025 -2.4100 -0.9284  0.1823
 4766TIP3    H235790   5.723   3.501   0.027 -2.4008 -0.9240  0.0044
 4767TIP3   OH235791   0.958   0.119  10.580  0.8625  0.5272 -0.4894
 4767TIP3    H135792   0.921   0.042  10.538  0.0900  0.5491  0.1521
 4767TIP3    H235793   1.051   0.098  10.591  0.6071 -0.3974 -0.1034
 4768TIP3   OH235794   5.007   1.398   5.802  0.1305 -0.1362  0.3145
 4768TIP3    H135795   5.013   1.486   5.767 -0.7926  0.1943  0.9625
 4768TIP3    H235796   4.956   1.407   5.882  0.2661 -1.2183  0.5406
 4769TIP3   OH235797   1.264   4.890  12.319  0.3837 -0.1353  0.2048
 4769TIP3    H135798   1.287   4.980  12.293 -0.2958 -0.2671 -0.9071
 4769TIP3    H235799   1.294   4.836  12.245 -0.9689 -0.6080 -0.0059
 4770TIP3   OH235800   3.615   0.219  16.976  0.7187  0.9177  0.3720
 4770TIP3    H135801   3.608   0.129  16.945  1.0432  0.6036  1.1996
 4770TIP3    H235802   3.708   0.239  16.972  0.2685  2.6437 -3.7650
 4771TIP3   OH235803   3.396   6.388  11.564  0.1163  0.8630 -0.1361
 4771TIP3    H135804   3.389   6.460  11.626 -1.5288  0.1979  0.4855
 4771TIP3    H235805   3.452   6.422  11.494  1.3877  1.8664  1.3374
 4772TIP3   OH235806   5.477   2.366   5.609 -0.1745 -0.3667  0.1222
 4772TIP3    H135807   5.500   2.276   5.587  0.9131 -0.0544 -0.0355
 4772TIP3    H235808   5.475   2.412   5.525 -0.2862 -0.1409  0.2477
 4773TIP3   OH235809   1.395   2.766   2.606 -0.0516  0.1455 -0.0510
 4773TIP3    H135810   1.380   2.729   2.693  0.5508  2.1329  0.9217
 4773TIP3    H235811   1.308   2.794   2.578 -0.2559 -0.5405 -0.1141
 4774TIP3   OH235812   0.479   2.510   5.723  0.0528 -0.0384  0.4807
 4774TIP3    H135813   0.444   2.568   5.791  1.7530 -1.0338  2.2680
 4774TIP3    H235814   0.551   2.558   5.684  0.4172 -0.2817  0.8439
 4775TIP3   OH235815   0.123   6.101  16.197 -0.1313 -0.3206 -0.6358
 4775TIP3    H135816   0.171   6.081  16.278 -0.5382  0.6053 -0.1589
 4775TIP3    H235817   0.034   6.071  16.215 -1.0697  2.9396  0.5619
 4776TIP3   OH235818   5.221   4.107  10.921 -0.1243  0.2508 -0.3233
 4776TIP3    H135819   5.314   4.127  10.925 -0.1155  0.5664 -1.6022
 4776TIP3    H235820   5.181   4.189  10.891 -0.8113  0.1112  0.2017
 4777TIP3   OH235821   3.358   6.284  12.261  0.3799 -0.2165  0.4464
 4777TIP3    H135822   3.352   6.375  12.233 -0.4781 -0.2385  0.5484
 4777TIP3    H235823   3.402   6.239  12.189 -0.0400  0.0970 -0.0008
 4778TIP3   OH235824   6.669   0.767  11.719  0.1650  0.5292  0.5671
 4778TIP3    H135825   6.646   0.777  11.811  0.6704  0.1569  0.7324
 4778TIP3    H235826   6.587   0.785  11.672 -0.2300  0.1570  1.1137
 4779TIP3   OH235827   1.027   1.561   0.898  0.3278  0.0444 -0.4614
 4779TIP3    H135828   0.968   1.634   0.877 -0.5806  0.0197  1.8064
 4779TIP3    H235829   0.971   1.484   0.894  0.4901 -0.1274  0.4132
 4780TIP3   OH235830   0.721   5.061  15.610 -0.6663 -0.3211 -0.1811
 4780TIP3    H135831   0.814   5.079  15.595 -0.3028 -1.8800  0.0882
 4780TIP3    H235832   0.720   5.013  15.693 -2.0148  2.3949  1.4218
 4781TIP3   OH235833   0.054   1.935  13.853  0.5434 -1.4052  0.8490
 4781TIP3    H135834  -0.020   1.941  13.913  2.5150 -0.3047  3.2508
 4781TIP3    H235835   0.117   2.000  13.885  0.6063  1.1791 -3.9960
 4782TIP3   OH235836   4.069   0.670   1.138 -0.1329  0.0483 -0.0707
 4782TIP3    H135837   3.978   0.651   1.159 -0.7514  2.7008 -0.1023
 4782TIP3    H235838   4.112   0.677   1.223 -0.0250 -0.8946 -0.0464
 4783TIP3   OH235839   1.878   2.476  11.942  0.8204  0.1421 -0.1039
 4783TIP3    H135840   1.959   2.515  11.975 -0.0794  0.6303  1.5875
 4783TIP3    H235841   1.809   2.520  11.991 -0.6262  1.4147 -3.2316
 4784TIP3   OH235842   4.618   0.768   4.342 -0.0354  0.1337  0.7881
 4784TIP3    H135843   4.524   0.752   4.347  0.0616 -0.1490  1.7564
 4784TIP3    H235844   4.633   0.840   4.403  0.0944  1.4480 -0.7719
 4785TIP3   OH235845   4.245   3.428   3.784 -0.1190  0.3731 -0.0936
 4785TIP3    H135846   4.231   3.372   3.707 -1.6256  2.9610 -1.7850
 4785TIP3    H235847   4.326   3.475   3.765  0.4106 -0.2157  0.6940
 4786TIP3   OH235848   6.643   5.946  13.907 -0.2984 -0.1855 -0.3014
 4786TIP3    H135849   6.644   5.882  13.835  0.8888 -1.2374  0.6310
 4786TIP3    H235850   6.560   5.993  13.896 -1.3329 -2.0819 -0.8386
 4787TIP3   OH235851   5.927   2.160   1.405  0.6710 -0.3239 -0.1046
 4787TIP3    H135852   5.966   2.087   1.453  0.7645  0.3404  0.8438
 4787TIP3    H235853   5.966   2.238   1.445  0.5387  0.2478 -1.0768
 4788TIP3   OH235854   4.991   5.657   2.273 -0.1251  0.0754  0.6790
 4788TIP3    H135855   5.005   5.580   2.218 -2.8219 -0.6995  1.0155
 4788TIP3    H235856   5.015   5.731   2.218  3.3184 -0.9938  0.6210
 4789TIP3   OH235857   0.180   4.567   3.486 -0.5399 -0.0663  0.1956
 4789TIP3    H135858   0.251   4.608   3.437 -1.1639  0.5269 -0.2266
 4789TIP3    H235859   0.105   4.625   3.474 -1.0787 -0.6333  0.7109
 4790TIP3   OH235860   3.141   0.236   5.723 -0.1682  0.2288 -0.1972
 4790TIP3    H135861   3.094   0.319   5.729 -1.5718 -0.5838  0.1659
 4790TIP3    H235862   3.226   0.254   5.764  0.3065  2.0185 -1.9376
 4791TIP3   OH235863   4.379   6.817  13.956  0.4813  0.0131 -0.3196
 4791TIP3    H135864   4.459   6.861  13.983 -0.9382  1.3938  1.8081
 4791TIP3    H235865   4.408   6.734  13.919  2.8514  0.3400  0.7389
 4792TIP3   OH235866   1.290   4.271   1.662  0.3607  0.8633  0.2107
 4792TIP3    H135867   1.370   4.301   1.705  0.5305  0.9898 -0.1913
 4792TIP3    H235868   1.237   4.350   1.651 -0.5683  0.5196  2.0322
 4793TIP3   OH235869   4.728   4.581   4.799 -0.0355 -0.4185  0.0064
 4793TIP3    H135870   4.700   4.491   4.814 -0.8366  0.2184  2.4718
 4793TIP3    H235871   4.822   4.574   4.784 -0.0035 -1.6173  0.6931
 4794TIP3   OH235872   1.147   5.846  16.059  0.2454  0.3445  0.0643
 4794TIP3    H135873   1.073   5.881  16.008  0.5605 -2.2412 -2.3390
 4794TIP3    H235874   1.129   5.752  16.065  1.0619  0.3423  3.4510
 4795TIP3   OH235875   5.959   1.255   1.208  0.0494 -1.1931  0.4808
 4795TIP3    H135876   6.036   1.247   1.152  0.1175 -2.2926  0.7326
 4795TIP3    H235877   5.903   1.319   1.162  0.6553 -1.1550 -0.2086
 4796TIP3   OH235878   6.283   3.701  16.039  0.4231 -0.0295 -0.1561
 4796TIP3    H135879   6.271   3.711  16.134  1.4973  2.3444 -0.2293
 4796TIP3    H235880   6.325   3.616  16.029  0.0880 -0.4057  1.4859
 4797TIP3   OH235881   3.841   6.267   1.256  0.2486 -0.5462  0.4544
 4797TIP3    H135882   3.794   6.239   1.334 -1.8125  0.3862 -0.4001
 4797TIP3    H235883   3.866   6.357   1.275 -1.4252  0.1376 -0.4255
 4798TIP3   OH235884   0.984   3.316  12.920 -0.2649 -0.3994 -0.6116
 4798TIP3    H135885   1.027   3.233  12.903  0.4587  0.2157 -1.7950
 4798TIP3    H235886   0.899   3.308  12.877  0.2675 -0.0900 -1.7355
 4799TIP3   OH235887   5.494   2.045   1.137 -0.0409  0.3073  0.1497
 4799TIP3    H135888   5.536   2.073   1.056 -1.6941  1.9306 -0.1737
 4799TIP3    H235889   5.549   2.082   1.206 -0.4732  1.7713 -0.2678
 4800TIP3   OH235890   2.607   5.842   3.803 -0.1242  0.3782  0.2176
 4800TIP3    H135891   2.702   5.854   3.793  0.2237 -1.7121  0.7989
 4800TIP3    H235892   2.575   5.829   3.713  0.7826 -3.0742  0.3211
 4801TIP3   OH235893   6.747   1.089  17.128 -0.0577 -0.2489  0.0083
 4801TIP3    H135894   6.802   1.140  17.068 -0.6671 -0.2291 -0.5427
 4801TIP3    H235895   6.809   1.047  17.187  0.6725 -1.6718 -1.7233
 4802TIP3   OH235896   0.235   3.325  15.416  0.2895 -0.5072 -0.1718
 4802TIP3    H135897   0.258   3.371  15.497 -1.8150 -0.5374  0.4693
 4802TIP3    H235898   0.313   3.273  15.394  1.1385  0.0836  1.4108
 4803TIP3   OH235899   3.000   5.218  12.545 -0.7717 -0.3442 -0.5282
 4803TIP3    H135900   2.906   5.216  12.565 -0.5393  0.7066  0.7612
 4803TIP3    H235901   3.006   5.187  12.455 -2.2683 -1.3690 -0.2991
 4804TIP3   OH235902   0.572   4.590   4.307  0.0119 -0.5904  0.5653
 4804TIP3    H135903   0.508   4.584   4.378 -0.7990  0.0030 -0.1042
 4804TIP3    H235904   0.525   4.558   4.230  0.0968  1.0610 -0.1937
 4805TIP3   OH235905   4.814   2.101   5.901  0.4429 -0.3916  0.8208
 4805TIP3    H135906   4.775   2.068   5.982 -1.9125  0.8390  0.2336
 4805TIP3    H235907   4.834   2.192   5.919  1.7188 -0.6190  0.6246
 4806TIP3   OH235908   2.359   3.201   2.214  0.3021  0.2447 -0.3556
 4806TIP3    H135909   2.300   3.241   2.278  0.2413 -0.6264  0.1337
 4806TIP3    H235910   2.444   3.198   2.258  0.2273 -0.4875 -0.2698
 4807TIP3   OH235911   1.071   1.307  12.597 -0.1632  0.0827 -0.3530
 4807TIP3    H135912   1.068   1.265  12.683  1.1179 -0.7130 -0.6864
 4807TIP3    H235913   0.997   1.270  12.549  0.2997 -0.9781 -0.2592
 4808TIP3   OH235914   3.071   3.012   1.286  0.3771 -0.3329 -0.1787
 4808TIP3    H135915   3.120   3.045   1.362 -0.8537  2.9162 -0.7086
 4808TIP3    H235916   3.136   3.007   1.216  0.8135 -0.0753  0.2016
 4809TIP3   OH235917   0.215   2.620   1.306 -0.2089  0.2657 -0.1527
 4809TIP3    H135918   0.131   2.642   1.345 -0.6002  0.9248 -1.3207
 4809TIP3    H235919   0.220   2.524   1.311 -0.7120  0.2731  0.5351
 4810TIP3   OH235920   6.033   1.991  14.015  0.1623  0.4842 -0.1277
 4810TIP3    H135921   5.996   1.952  14.094  0.7858 -0.7091 -0.4237
 4810TIP3    H235922   6.097   1.927  13.984  0.4071  1.2503 -1.2237
 4811TIP3   OH235923   3.294   1.687  10.808  0.4737  0.4611 -0.3660
 4811TIP3    H135924   3.309   1.626  10.736 -1.8119  0.4970 -0.9058
 4811TIP3    H235925   3.274   1.630  10.883  0.1810  0.5014 -0.4138
 4812TIP3   OH235926   4.362   3.813   0.180  0.0556  0.2073 -0.6895
 4812TIP3    H135927   4.316   3.889   0.146 -0.3376 -0.2970 -1.3143
 4812TIP3    H235928   4.294   3.761   0.222  0.3271  0.2217 -0.2338
 4813TIP3   OH235929   2.344   3.590   2.848 -0.1837 -0.5491  0.6922
 4813TIP3    H135930   2.363   3.681   2.826 -1.4397 -0.2249  0.9083
 4813TIP3    H235931   2.294   3.595   2.930  0.5546 -1.4871  1.2132
 4814TIP3   OH235932   1.988   1.447  12.468  0.1168 -0.0456  0.0332
 4814TIP3    H135933   1.945   1.527  12.438  0.0157 -0.4069 -0.8017
 4814TIP3    H235934   2.031   1.472  12.550  0.7669  1.0806 -0.6382
 4815TIP3   OH235935   5.709   5.588  15.128 -0.0254  0.2558 -0.4673
 4815TIP3    H135936   5.732   5.640  15.051 -1.9133  2.5225  0.4209
 4815TIP3    H235937   5.647   5.523  15.096 -1.1548  1.4785 -0.8253
 4816TIP3   OH235938   6.166   2.956   2.956 -0.1145  0.0002 -0.0532
 4816TIP3    H135939   6.254   2.952   2.994 -0.2457  0.7229  0.3376
 4816TIP3    H235940   6.122   2.877   2.987  0.7795 -0.9698 -1.2073
 4817TIP3   OH235941   5.253   5.580  13.808  0.0176  0.0336  0.4434
 4817TIP3    H135942   5.226   5.505  13.861  1.1487 -1.2613 -0.7769
 4817TIP3    H235943   5.267   5.543  13.720 -0.3524  1.8538 -0.3976
 4818TIP3   OH235944   2.049   3.844  14.920 -0.2868 -0.4687  0.1081
 4818TIP3    H135945   1.989   3.770  14.910  0.6819 -1.1603 -0.6670
 4818TIP3    H235946   2.021   3.887  15.001 -0.5747 -1.9553  0.8223
 4819TIP3   OH235947   5.950   0.245   2.341 -0.2969  0.0255 -0.1468
 4819TIP3    H135948   6.000   0.276   2.265  1.9601 -0.0107  1.2733
 4819TIP3    H235949   5.922   0.156   2.317  1.2773 -0.3786 -0.5620
 4820TIP3   OH235950   6.405   0.339   2.677 -0.1107 -0.4267 -0.9033
 4820TIP3    H135951   6.373   0.314   2.763 -2.3664 -0.6132 -1.7610
 4820TIP3    H235952   6.444   0.260   2.641  0.7010 -0.3853 -0.1405
 4821TIP3   OH235953   3.320   5.886  13.915  0.6664 -0.1649 -0.1454
 4821TIP3    H135954   3.296   5.979  13.910  0.8415 -0.0230  1.3674
 4821TIP3    H235955   3.241   5.839  13.890  0.4015  0.3779 -0.3462
 4822TIP3   OH235956   6.411   2.403   1.856  0.0843  0.2360 -0.3600
 4822TIP3    H135957   6.348   2.445   1.914 -0.0697 -0.5121  0.0245
 4822TIP3    H235958   6.361   2.336   1.810  0.9972 -1.7534  1.4364
 4823TIP3   OH235959   5.153   4.161  16.088 -0.0408  0.1474 -0.5791
 4823TIP3    H135960   5.166   4.244  16.135 -0.2740  0.7077 -1.4891
 4823TIP3    H235961   5.227   4.157  16.028  0.2672 -0.5786 -0.1474
 4824TIP3   OH235962   5.224   3.735  15.137  0.3265 -0.3673  0.3071
 4824TIP3    H135963   5.217   3.827  15.112  1.4969 -0.7842 -1.6931
 4824TIP3    H235964   5.138   3.698  15.118 -0.2860  0.3917  1.5317
 4825TIP3   OH235965   1.666   4.817   1.545 -0.5937  0.2710 -0.6655
 4825TIP3    H135966   1.670   4.896   1.491 -0.5729  0.3535 -0.5450
 4825TIP3    H235967   1.752   4.814   1.588 -0.1199 -0.5113 -1.6387
 4826TIP3   OH235968   4.490   5.189   5.714  0.5606 -0.4133  0.2229
 4826TIP3    H135969   4.452   5.133   5.782  0.3000  0.0090  0.4307
 4826TIP3    H235970   4.423   5.257   5.699  0.9948  0.0086  0.1849
 4827TIP3   OH235971   2.942   2.591  12.839  0.6981  0.0830 -0.2832
 4827TIP3    H135972   2.914   2.639  12.917 -0.1083  0.6885 -0.9425
 4827TIP3    H235973   3.037   2.584  12.849  0.4657 -0.9136  1.3556
 4828TIP3   OH235974   0.825   6.155   4.093 -0.0662  0.8406  0.3264
 4828TIP3    H135975   0.826   6.097   4.168 -2.4244  0.1887 -0.0921
 4828TIP3    H235976   0.860   6.103   4.021  0.3903  0.8401  0.5499
 4829TIP3   OH235977   1.096   5.473   4.853 -0.2351 -0.2212  0.0325
 4829TIP3    H135978   1.015   5.483   4.904  0.9327  2.9135  1.3826
 4829TIP3    H235979   1.127   5.385   4.875 -3.8725 -1.9813 -1.4903
 4830TIP3   OH235980   0.572   0.206  14.588 -0.3905 -0.6350  0.3693
 4830TIP3    H135981   0.626   0.284  14.571 -1.6589  0.4506  1.2551
 4830TIP3    H235982   0.528   0.225  14.671 -0.5312 -2.4073  0.7010
 4831TIP3   OH235983   1.945   3.747   0.258 -0.1466  0.5485  0.0275
 4831TIP3    H135984   1.981   3.818   0.312 -0.8384  1.1069 -0.2352
 4831TIP3    H235985   1.972   3.667   0.303  2.5096  0.9079 -0.8350
 4832TIP3   OH235986   0.001   0.858   4.610  0.0643  0.1556 -0.1715
 4832TIP3    H135987   0.044   0.786   4.566  2.1004 -0.3118  2.4647
 4832TIP3    H235988   0.073   0.914   4.641 -1.3976  2.0429 -0.0703
 4833TIP3   OH235989   0.704   1.005  13.760 -0.3830 -0.0264  0.0167
 4833TIP3    H135990   0.778   1.039  13.810  0.5654 -0.2336 -1.2053
 4833TIP3    H235991   0.730   1.017  13.668 -1.8283 -0.1802 -0.4219
 4834TIP3   OH235992   6.747   0.267  15.854  0.7756  0.0228  0.4810
 4834TIP3    H135993   6.759   0.348  15.806  0.8676  0.3455  1.0415
 4834TIP3    H235994   6.689   0.290  15.927 -0.3365 -0.7296 -0.1502
 4835TIP3   OH235995   3.947   4.451  12.293  0.3259 -0.0161  0.2296
 4835TIP3    H135996   3.964   4.544  12.277  2.6473 -0.2396  1.2011
 4835TIP3    H235997   3.859   4.449  12.330  0.2662  1.7997  0.2443
 4836TIP3   OH235998   0.933   4.730  17.159 -0.6993 -0.1916  0.2470
 4836TIP3    H135999   0.977   4.651  17.128  0.3810  0.3168  0.4627
 4836TIP3    H236000   0.851   4.732  17.111 -0.4042 -1.0520 -0.3039
 4837TIP3   OH236001   1.526   2.073   5.282  0.4741 -0.0477 -0.1534
 4837TIP3    H136002   1.568   2.157   5.265 -0.5823  0.6661  0.7268
 4837TIP3    H236003   1.570   2.039   5.360  0.9728 -0.3790 -0.5696
 4838TIP3   OH236004   1.433   4.041  10.967 -0.6998  0.5626  0.3243
 4838TIP3    H136005   1.390   3.966  10.927 -0.7336 -0.1467  1.6554
 4838TIP3    H236006   1.525   4.031  10.944 -0.5817 -0.3245  1.1463
 4839TIP3   OH236007   1.922   5.456   5.955 -0.6137  0.0690  0.4189
 4839TIP3    H136008   1.850   5.470   6.015  0.3403  1.2562  1.3093
 4839TIP3    H236009   1.920   5.531   5.896  1.0827  1.1537  1.6935
 4840TIP3   OH236010   2.567   0.299  14.179 -0.5271  0.2657 -0.3493
 4840TIP3    H136011   2.629   0.240  14.222  1.1302  1.0096 -1.6764
 4840TIP3    H236012   2.495   0.243  14.152 -0.2435 -0.6820  0.8218
 4841TIP3   OH236013   4.540   0.970   1.487 -0.1349 -0.2268 -0.0035
 4841TIP3    H136014   4.540   0.878   1.512  0.3559 -0.0678  0.5795
 4841TIP3    H236015   4.547   1.018   1.570  2.3106  0.2940 -0.4871
 4842TIP3   OH236016   3.874   5.857   0.365 -0.0632 -0.3286 -0.5066
 4842TIP3    H136017   3.795   5.895   0.404 -0.9720 -1.0080 -1.6432
 4842TIP3    H236018   3.934   5.931   0.354  0.1774 -0.0932  2.0173
 4843TIP3   OH236019   1.946   3.823  15.629 -0.1662 -0.4979 -0.3283
 4843TIP3    H136020   1.851   3.818  15.636 -0.3588  2.5717  0.0134
 4843TIP3    H236021   1.962   3.857  15.541  0.6769 -2.0932 -0.8059
 4844TIP3   OH236022   3.153   3.052  15.377 -0.0654 -0.0315 -0.6069
 4844TIP3    H136023   3.193   3.126  15.424  0.9567 -1.2700  0.5265
 4844TIP3    H236024   3.059   3.068  15.384  0.1120  0.6230  0.5685
 4845TIP3   OH236025   2.420   1.805   5.209 -0.1594  0.1936  0.2408
 4845TIP3    H136026   2.375   1.882   5.244 -0.6929  0.1746 -0.3798
 4845TIP3    H236027   2.513   1.826   5.215 -0.1970 -0.2353  2.6045
 4846TIP3   OH236028   2.544   6.139  15.191 -0.5763  0.4235 -0.3008
 4846TIP3    H136029   2.540   6.225  15.148 -1.1979  0.0375 -1.0176
 4846TIP3    H236030   2.567   6.078  15.122  0.4050  0.0833  0.3263
 4847TIP3   OH236031   4.029   2.754   2.653  0.2872 -0.4422 -0.6056
 4847TIP3    H136032   3.958   2.690   2.649 -0.3510  0.0726  1.7676
 4847TIP3    H236033   4.078   2.740   2.572 -1.2772 -2.2413 -1.2873
 4848TIP3   OH236034   6.449   2.497   3.886  0.7564  0.1283 -0.6755
 4848TIP3    H136035   6.489   2.420   3.925  0.0568 -0.0007 -0.2083
 4848TIP3    H236036   6.405   2.465   3.808 -1.7688 -0.4235  0.9134
 4849TIP3   OH236037   0.894   5.776   1.276  0.0467  0.1745  0.5502
 4849TIP3    H136038   0.873   5.837   1.206 -1.2032 -0.2755  0.5159
 4849TIP3    H236039   0.826   5.708   1.270  1.0227 -0.8714  0.9915
 4850TIP3   OH236040   3.645   5.102  15.162  0.3598  0.0922  0.2838
 4850TIP3    H136041   3.737   5.081  15.142 -0.5169 -0.9553 -2.9360
 4850TIP3    H236042   3.625   5.178  15.107 -0.7205  0.2985  0.9467
 4851TIP3   OH236043   3.834   4.016  11.740  0.5884  0.8279  0.0453
 4851TIP3    H136044   3.892   4.013  11.665  0.9641  0.5261  0.3428
 4851TIP3    H236045   3.752   3.978  11.709  0.7545  0.6708 -0.1992
 4852TIP3   OH236046   0.178   2.061   1.824  0.0255  0.0124 -0.3842
 4852TIP3    H136047   0.245   2.116   1.785  1.5858 -0.5557  1.3874
 4852TIP3    H236048   0.154   1.999   1.755  0.2858  1.1177 -1.4833
 4853TIP3   OH236049   0.970   0.372   0.047 -0.0482  0.5903  0.2346
 4853TIP3    H136050   1.040   0.366   0.112 -0.4208 -0.4009  0.5504
 4853TIP3    H236051   1.003   0.322  -0.028 -0.6197 -0.2915  0.5681
 4854TIP3   OH236052   3.336   3.381   2.287 -0.5470  0.2640  0.2295
 4854TIP3    H136053   3.336   3.434   2.367  0.0507  1.9017 -0.8103
 4854TIP3    H236054   3.365   3.442   2.219 -0.3957 -1.2785 -1.1151
 4855TIP3   OH236055   2.451   5.123   4.539 -0.6782 -0.7650  0.1517
 4855TIP3    H136056   2.519   5.059   4.519 -1.4016 -1.7965  0.8833
 4855TIP3    H236057   2.477   5.160   4.624 -0.5391 -0.4781 -0.0152
 4856TIP3   OH236058   0.579   0.703   3.521 -0.2048 -0.4793 -0.0804
 4856TIP3    H136059   0.498   0.752   3.535 -0.6210 -0.9125 -0.9305
 4856TIP3    H236060   0.641   0.769   3.488 -0.4490 -0.3019 -0.1896
 4857TIP3   OH236061   3.790   6.521   4.853  0.6430  0.3112  0.1893
 4857TIP3    H136062   3.793   6.579   4.930  2.4137  0.7184 -0.1540
 4857TIP3    H236063   3.838   6.443   4.880  0.1712 -0.0702 -0.0817
 4858TIP3   OH236064   2.608   3.896  15.911 -0.5820  0.1492 -0.0174
 4858TIP3    H136065   2.638   3.986  15.911  2.1208 -0.6879 -1.1562
 4858TIP3    H236066   2.618   3.867  16.002  1.8117  0.0409 -0.2640
 4859TIP3   OH236067   4.156   0.498  11.797 -0.1256  0.1748  0.3921
 4859TIP3    H136068   4.244   0.522  11.826  0.3146 -0.2648 -0.5570
 4859TIP3    H236069   4.099   0.525  11.869  0.8789 -0.3995  1.4266
 4860TIP3   OH236070   4.165   6.618   2.175  0.2167 -0.3484  0.3952
 4860TIP3    H136071   4.252   6.646   2.146 -0.5362  1.9340  0.2748
 4860TIP3    H236072   4.176   6.596   2.267  0.9369 -0.1854  0.3504
 4861TIP3   OH236073   0.187   0.819  14.683 -0.1274  0.1516 -0.2484
 4861TIP3    H136074   0.160   0.909  14.666 -1.7034 -0.2469  0.0137
 4861TIP3    H236075   0.265   0.807  14.629  0.8224  2.0330  0.6488
 4862TIP3   OH236076   3.799   2.812  12.027 -0.0510 -0.7676  0.4797
 4862TIP3    H136077   3.801   2.862  11.946  1.2237 -0.8140  0.4800
 4862TIP3    H236078   3.839   2.728  12.005 -3.6718 -2.4635  0.0560
 4863TIP3   OH236079   3.287   1.359  16.489 -0.2396  0.6374  0.1982
 4863TIP3    H136080   3.320   1.388  16.574  0.4180  2.2539 -0.6043
 4863TIP3    H236081   3.296   1.263  16.492  0.1198  0.6973  1.7934
 4864TIP3   OH236082   0.589   6.562   0.764  0.4636 -0.1832  0.3439
 4864TIP3    H136083   0.577   6.492   0.699 -0.4344  1.2043 -1.0303
 4864TIP3    H236084   0.673   6.601   0.743 -0.2114  0.8201 -0.5560
 4865TIP3   OH236085   4.703   0.583   3.809  0.1987  0.0453 -0.0131
 4865TIP3    H136086   4.682   0.631   3.729 -2.2755  0.7967  1.0448
 4865TIP3    H236087   4.717   0.652   3.874 -0.2661 -0.6015  0.7752
 4866TIP3   OH236088   4.615   0.514  13.917  0.8571 -0.3158  0.0455
 4866TIP3    H136089   4.653   0.578  13.977  1.4322 -1.8697  1.3670
 4866TIP3    H236090   4.690   0.481  13.867  1.3313 -3.2728  2.5494
 4867TIP3   OH236091   1.364   6.382  11.573  0.0528  0.0346 -0.2048
 4867TIP3    H136092   1.321   6.417  11.495 -0.1725 -1.4356 -0.7521
 4867TIP3    H236093   1.354   6.288  11.566 -0.0154 -0.1237  1.6383
 4868TIP3   OH236094   6.246   3.273  12.458 -0.3786  0.3831  0.2187
 4868TIP3    H136095   6.263   3.181  12.478 -0.6240  0.0849 -0.8586
 4868TIP3    H236096   6.154   3.286  12.483 -0.2323  0.4289  0.7186
 4869TIP3   OH236097   4.269   3.321  16.733 -0.0966 -0.1370 -0.7327
 4869TIP3    H136098   4.266   3.387  16.802  1.9955 -0.8452  0.0861
 4869TIP3    H236099   4.346   3.343  16.681 -0.0395 -1.2576 -1.1406
 4870TIP3   OH236100   4.566   4.803   2.255 -0.4734  0.0808  0.4521
 4870TIP3    H136101   4.581   4.717   2.216 -0.2508 -0.0844  0.9035
 4870TIP3    H236102   4.595   4.794   2.346  1.8776  1.3064 -0.1175
 4871TIP3   OH236103   5.676   1.041   3.941  0.1119 -0.7111 -0.3461
 4871TIP3    H136104   5.601   0.987   3.916 -1.2001  0.6093  0.6725
 4871TIP3    H236105   5.707   1.079   3.859 -0.4049 -1.1642 -0.7520
 4872TIP3   OH236106   5.163   3.482   5.968 -0.1887 -0.3832  0.1342
 4872TIP3    H136107   5.159   3.432   6.050 -0.8450 -1.0337 -0.2957
 4872TIP3    H236108   5.217   3.558   5.990  0.5320 -1.1002  0.8781
 4873TIP3   OH236109   2.770   1.045   0.935  0.7544  0.1516 -0.4805
 4873TIP3    H136110   2.846   1.021   0.883  0.5127 -0.8264 -0.3884
 4873TIP3    H236111   2.805   1.098   1.006  1.2669  0.2035 -0.7678
 4874TIP3   OH236112   2.212   4.272  12.434 -0.3455  0.5005 -0.1507
 4874TIP3    H136113   2.284   4.335  12.425 -0.1904  0.5171  1.0761
 4874TIP3    H236114   2.147   4.318  12.488  0.2365 -0.7744  1.6806
 4875TIP3   OH236115   5.166   6.455   2.911 -0.5583 -0.0450 -0.0440
 4875TIP3    H136116   5.171   6.477   2.818 -1.2692  1.9140  0.3605
 4875TIP3    H236117   5.075   6.428   2.924 -0.3132 -0.8840 -0.0153
 4876TIP3   OH236118   2.029   5.521   2.915  0.1468  0.0932 -0.4939
 4876TIP3    H136119   2.111   5.491   2.876 -0.5549  0.0856 -1.9908
 4876TIP3    H236120   1.987   5.573   2.847 -1.7906 -1.1293 -0.2837
 4877TIP3   OH236121   0.498   6.024  15.837  0.0319 -0.3700 -0.2359
 4877TIP3    H136122   0.469   6.005  15.748  1.0955 -2.0231 -0.2458
 4877TIP3    H236123   0.589   6.051  15.828 -1.0493  3.6287 -0.0739
 4878TIP3   OH236124   0.190   6.239  11.100 -0.0288 -0.0603 -0.9810
 4878TIP3    H136125   0.101   6.275  11.093  0.1042  0.2914 -0.8822
 4878TIP3    H236126   0.177   6.146  11.113 -0.4234  0.1650  0.2936
 4879TIP3   OH236127   5.567   0.781  14.186  0.7532  0.0653 -0.1461
 4879TIP3    H136128   5.484   0.796  14.231 -0.0717  0.8898 -1.9110
 4879TIP3    H236129   5.581   0.687  14.192 -1.1053 -0.2986 -1.1698
 4880TIP3   OH236130   1.855   0.366   1.322 -0.4946 -0.0509  0.1567
 4880TIP3    H136131   1.827   0.358   1.231  0.8231 -0.7252 -0.2068
 4880TIP3    H236132   1.781   0.407   1.366 -0.6083  1.5940 -1.4970
 4881TIP3   OH236133   3.956   3.958   3.019 -0.5557  0.8530 -0.4344
 4881TIP3    H136134   3.877   3.933   2.971 -0.4738 -1.2648  0.4609
 4881TIP3    H236135   3.995   3.874   3.044  1.6489  1.8943 -0.3471
 4882TIP3   OH236136   4.329   4.536  13.578  0.2779 -0.2081  0.3294
 4882TIP3    H136137   4.380   4.616  13.586 -1.8853  1.5693 -2.5903
 4882TIP3    H236138   4.294   4.520  13.666  0.7614  2.0296  0.9386
 4883TIP3   OH236139   2.775   4.373  12.110 -0.4924 -0.4776 -0.5737
 4883TIP3    H136140   2.847   4.324  12.068 -0.5130 -0.7417 -0.2963
 4883TIP3    H236141   2.789   4.463  12.081  0.1690 -0.4631 -0.2236
 4884TIP3   OH236142   0.837   2.033   1.902 -0.3675 -0.2406  0.2195
 4884TIP3    H136143   0.852   2.126   1.886  0.9712 -0.0711  2.2628
 4884TIP3    H236144   0.905   1.989   1.850  0.1199  0.0202  0.6270
 4885TIP3   OH236145   6.519   2.499  10.971 -0.5541 -0.1282 -0.0631
 4885TIP3    H136146   6.456   2.447  10.920  0.6573 -0.7812 -0.9292
 4885TIP3    H236147   6.489   2.589  10.961 -1.8048 -0.5052  0.1822
 4886TIP3   OH236148   1.605   2.335   5.367  0.4772  0.2922  0.1307
 4886TIP3    H136149   1.591   2.421   5.329  0.4342  0.7916  1.2596
 4886TIP3    H236150   1.680   2.346   5.426 -0.5632 -0.0320  1.5432
 4887TIP3   OH236151   4.249   2.788  14.084 -1.3014 -0.5095  0.2584
 4887TIP3    H136152   4.167   2.783  14.133 -1.6848  1.1845 -0.1930
 4887TIP3    H236153   4.302   2.852  14.132 -1.2277  0.3019 -0.8897
 4888TIP3   OH236154   3.458   6.159  12.942  0.1386  0.6521  0.5529
 4888TIP3    H136155   3.535   6.214  12.953  1.1918 -0.3047 -1.7549
 4888TIP3    H236156   3.460   6.100  13.018  0.8283  1.6028  1.2916
 4889TIP3   OH236157   5.013   0.586   2.308 -0.0026 -0.4663 -0.1734
 4889TIP3    H136158   4.991   0.660   2.252 -1.4956 -0.2927  0.6322
 4889TIP3    H236159   5.098   0.609   2.345 -0.2881  0.6830 -0.2073
 4890TIP3   OH236160   3.802   2.631   4.075  0.0561  0.0129 -0.2729
 4890TIP3    H136161   3.868   2.620   4.144  1.2448 -0.8452 -1.5072
 4890TIP3    H236162   3.763   2.544   4.066 -0.5679  0.2867 -0.2272
 4891TIP3   OH236163   3.507   5.487  10.907 -0.4972  0.2106 -0.0311
 4891TIP3    H136164   3.581   5.457  10.854 -0.5802 -2.5241  1.3279
 4891TIP3    H236165   3.430   5.447  10.866 -1.0663  1.5401 -0.3218
 4892TIP3   OH236166   4.476   0.753  15.086  0.9058  0.0564 -0.4276
 4892TIP3    H136167   4.398   0.808  15.095  0.9612 -0.0251  0.6483
 4892TIP3    H236168   4.543   0.798  15.137  1.2382 -0.4807 -0.3823
 4893TIP3   OH236169   3.502   5.412   1.532 -0.1829 -0.2868 -0.1627
 4893TIP3    H136170   3.413   5.382   1.551 -1.0185  1.9953 -0.3354
 4893TIP3    H236171   3.490   5.495   1.486  2.0441  0.9375  1.3601
 4894TIP3   OH236172   0.226   6.015  14.460 -0.5640  0.0265  0.1966
 4894TIP3    H136173   0.240   5.922  14.446 -2.1556 -0.1198 -0.4901
 4894TIP3    H236174   0.198   6.049  14.375  0.8281  1.3129  0.2101
 4895TIP3   OH236175   5.784   5.191   0.044  0.6488 -0.2770  0.0227
 4895TIP3    H136176   5.878   5.177   0.042  0.8027  0.7924 -0.4112
 4895TIP3    H236177   5.766   5.217   0.135  1.3957  3.5398 -0.8235
 4896TIP3   OH236178   3.669   5.385   3.123  0.2660  0.1973 -0.2818
 4896TIP3    H136179   3.669   5.292   3.147  1.8149  0.4950  0.9427
 4896TIP3    H236180   3.592   5.421   3.166  0.6631 -0.1521  0.7322
 4897TIP3   OH236181   3.594   1.125  13.959  0.3808 -0.1278  0.1113
 4897TIP3    H136182   3.635   1.212  13.956  0.5080 -0.1996 -0.3205
 4897TIP3    H236183   3.639   1.075  13.891 -0.3515 -0.2391 -0.3021
 4898TIP3   OH236184   6.646   2.435  16.399  0.2198  0.7628  0.2364
 4898TIP3    H136185   6.725   2.445  16.452 -0.2952  2.1264  0.7686
 4898TIP3    H236186   6.649   2.509  16.338  0.5537 -0.5133 -1.3237
 4899TIP3   OH236187   1.504   6.295   4.317 -0.2518 -0.4342 -0.1854
 4899TIP3    H136188   1.528   6.203   4.318  0.3742 -0.2868 -0.7671
 4899TIP3    H236189   1.571   6.336   4.262  1.1086  0.8003  2.2797
 4900TIP3   OH236190   3.838   1.250   5.057 -0.5694  0.1800 -0.5498
 4900TIP3    H136191   3.849   1.161   5.022 -1.4543 -0.4027  0.6208
 4900TIP3    H236192   3.835   1.238   5.152  0.1992  1.5687 -0.3396
 4901TIP3   OH236193   3.736   4.305  11.759  0.5300 -0.3608  0.6597
 4901TIP3    H136194   3.830   4.319  11.770  0.4959 -1.2294  2.2177
 4901TIP3    H236195   3.727   4.210  11.751  0.1168 -0.0848 -3.1753
 4902TIP3   OH236196   5.326   3.442   4.997  0.2707  0.0409 -0.6758
 4902TIP3    H136197   5.322   3.527   4.954 -0.9049 -0.0862 -0.8339
 4902TIP3    H236198   5.362   3.383   4.931  0.9016  0.3698 -0.6305
 4903TIP3   OH236199   0.557   4.335   4.528 -0.7663  0.5301 -0.3414
 4903TIP3    H136200   0.509   4.255   4.505  1.5671 -0.9050 -0.4083
 4903TIP3    H236201   0.491   4.391   4.570 -2.1780 -1.9369  0.8875
 4904TIP3   OH236202   3.702   6.262  12.334 -0.2301  0.0030 -0.1086
 4904TIP3    H136203   3.680   6.216  12.253  0.3644  0.0733 -0.3088
 4904TIP3    H236204   3.704   6.355  12.309  0.1393  0.0099 -0.0580
 4905TIP3   OH236205   2.122   5.497   4.524  0.4728  0.0893 -0.6590
 4905TIP3    H136206   2.181   5.570   4.510  0.1548  0.1591 -1.6670
 4905TIP3    H236207   2.141   5.467   4.613  0.8898  1.1275 -0.3984
 4906TIP3   OH236208   4.310   1.858   0.048 -0.1987  0.5435 -0.6396
 4906TIP3    H136209   4.300   1.777   0.097  1.0190 -1.1118 -2.9795
 4906TIP3    H236210   4.277   1.837  -0.040 -1.8419  3.2321 -0.7058
 4907TIP3   OH236211   6.449   4.223   6.307 -0.5387 -0.0841 -0.9422
 4907TIP3    H136212   6.534   4.254   6.276  1.4195 -0.9083  3.3266
 4907TIP3    H236213   6.451   4.129   6.291 -0.9015 -0.0209 -1.3714
 4908TIP3   OH236214   4.049   2.602   5.846 -0.0430  0.5582  0.2900
 4908TIP3    H136215   4.030   2.511   5.823  1.6030  0.0437  0.8958
 4908TIP3    H236216   3.982   2.653   5.801 -1.6611 -1.0313  0.8315
 4909TIP3   OH236217   2.158   5.257  12.837 -0.4751  0.2648 -0.2685
 4909TIP3    H136218   2.144   5.172  12.796  0.0565  0.3415 -0.6118
 4909TIP3    H236219   2.112   5.252  12.921 -1.7291  0.1694 -0.9578
 4910TIP3   OH236220   6.212   2.096   5.305  0.1426  0.5615 -0.7328
 4910TIP3    H136221   6.150   2.095   5.378 -0.3497  0.9353 -1.1424
 4910TIP3    H236222   6.157   2.104   5.227  0.7511  1.8333 -1.0461
 4911TIP3   OH236223   4.609   3.628   0.404  0.4439  1.1374  0.0754
 4911TIP3    H136224   4.635   3.682   0.478 -1.4047  3.0602 -0.6268
 4911TIP3    H236225   4.660   3.661   0.330  0.1282  1.1758 -0.1253
 4912TIP3   OH236226   3.462   4.680  12.983  0.2168  0.0045 -0.0202
 4912TIP3    H136227   3.416   4.753  12.942 -1.0177 -0.0837  1.1492
 4912TIP3    H236228   3.450   4.694  13.077  1.7390 -0.5824  0.2713
 4913TIP3   OH236229   0.601   1.483   4.159 -0.3854  0.0538  0.0332
 4913TIP3    H136230   0.521   1.450   4.199  0.2405 -1.2041  0.2757
 4913TIP3    H236231   0.645   1.531   4.229 -0.7633  0.4483 -0.0023
 4914TIP3   OH236232   0.704   0.663  13.693 -0.0537 -0.1709 -0.3035
 4914TIP3    H136233   0.667   0.698  13.612 -1.7311 -0.1947  0.4257
 4914TIP3    H236234   0.740   0.739  13.737 -0.3074  0.0534 -0.4767
 4915TIP3   OH236235   6.260   6.419   2.245 -0.5433 -0.7634 -0.0686
 4915TIP3    H136236   6.239   6.405   2.153  1.4412  0.3219 -0.7033
 4915TIP3    H236237   6.331   6.358   2.263 -0.1198 -0.1383  0.4133
 4916TIP3   OH236238   0.124   5.570   2.947 -0.0972  0.5214 -0.2413
 4916TIP3    H136239   0.167   5.516   2.881 -0.1870 -0.6627  0.6574
 4916TIP3    H236240   0.190   5.634   2.972  0.4459  0.0272 -0.3991
 4917TIP3   OH236241   6.704   0.088  16.617  0.5050  0.3433 -0.1614
 4917TIP3    H136242   6.750   0.005  16.629  0.0824  0.2721  0.9907
 4917TIP3    H236243   6.641   0.070  16.548  0.0553 -0.4535  0.4388
 4918TIP3   OH236244   2.253   2.827   6.094 -0.9638 -0.2928 -0.0542
 4918TIP3    H136245   2.324   2.772   6.128  0.1153  0.0725 -1.6771
 4918TIP3    H236246   2.221   2.874   6.171  0.2707 -0.7719  0.7771
 4919TIP3   OH236247   5.515   1.538   3.574  0.1338  0.1731 -0.1161
 4919TIP3    H136248   5.514   1.461   3.630 -0.0586 -1.2545 -2.0591
 4919TIP3    H236249   5.429   1.578   3.586 -0.1243 -0.4590  0.1617
 4920TIP3   OH236250   3.054   4.326   4.447  0.2544  0.1364 -0.4463
 4920TIP3    H136251   3.103   4.371   4.516  0.9759  0.8495 -1.4166
 4920TIP3    H236252   2.993   4.269   4.495  0.7579  0.6016  0.7784
 4921TIP3   OH236253   2.741   4.241  13.512  0.0893 -0.0050  0.4467
 4921TIP3    H136254   2.732   4.273  13.602  0.0395 -0.5628  0.6481
 4921TIP3    H236255   2.771   4.150  13.522  0.0475 -0.0817 -0.0968
 4922TIP3   OH236256   2.634   5.965   0.566  0.4366 -0.6015  0.4369
 4922TIP3    H136257   2.583   5.904   0.512  0.3744  0.8524 -1.1900
 4922TIP3    H236258   2.568   6.020   0.609  0.5572 -0.3641  0.3180
 4923TIP3   OH236259   4.970   5.457  15.645 -0.5270 -0.3361 -0.4622
 4923TIP3    H136260   4.885   5.499  15.654 -0.6309 -0.9679  1.6720
 4923TIP3    H236261   5.032   5.517  15.687 -0.1702 -0.6642 -0.5109
 4924TIP3   OH236262   4.530   5.406   6.330 -0.5057  0.4816 -0.3116
 4924TIP3    H136263   4.613   5.374   6.366 -0.2087  0.1126 -1.2994
 4924TIP3    H236264   4.486   5.448   6.404  0.9714  1.5129 -0.0038
 4925TIP3   OH236265   2.213   2.085   2.717 -0.1680 -0.1178  0.0810
 4925TIP3    H136266   2.128   2.118   2.691  1.0498  2.4453 -0.8185
 4925TIP3    H236267   2.273   2.160   2.705  3.0096 -3.0235 -3.4562
 4926TIP3   OH236268   1.217   2.044   2.101  0.4292  0.0018  0.1295
 4926TIP3    H136269   1.255   1.957   2.097  1.3488  0.4056 -0.0439
 4926TIP3    H236270   1.279   2.096   2.152  0.0102  0.6109  0.0339
 4927TIP3   OH236271   5.236   6.479  12.044 -0.0616 -0.2600  0.2558
 4927TIP3    H136272   5.151   6.487  12.002 -0.5239  0.8529  1.3602
 4927TIP3    H236273   5.299   6.482  11.972 -0.9625 -1.4996 -0.6017
 4928TIP3   OH236274   0.465   4.017  11.879  0.1920  0.3611  0.3986
 4928TIP3    H136275   0.482   4.035  11.786  0.6361 -1.0707  0.1856
 4928TIP3    H236276   0.414   3.936  11.878 -1.7482  1.5308  1.3081
 4929TIP3   OH236277   1.595   5.125   4.134  0.7941  0.5890  0.3846
 4929TIP3    H136278   1.502   5.109   4.151  0.9666 -2.3808 -1.0595
 4929TIP3    H236279   1.601   5.219   4.118 -1.9040  0.8913  0.9263
 4930TIP3   OH236280   1.980   3.955   4.092 -0.0250  0.4077 -0.4765
 4930TIP3    H136281   2.044   4.025   4.086  2.5419 -1.8208 -0.2489
 4930TIP3    H236282   1.979   3.916   4.004 -0.0708 -0.4142 -0.1136
 4931TIP3   OH236283   0.174   4.321  14.833  1.4516 -0.0889  0.1730
 4931TIP3    H136284   0.129   4.354  14.911  0.8116 -3.4572  1.3236
 4931TIP3    H236285   0.263   4.356  14.840  1.2902 -0.0055  2.2016
 4932TIP3   OH236286   2.825   0.942   2.552  0.0156 -0.2324 -0.2746
 4932TIP3    H136287   2.907   0.910   2.590  0.6765  1.4722 -0.2401
 4932TIP3    H236288   2.843   0.947   2.458 -0.9916 -2.5640 -0.6419
 4933TIP3   OH236289   5.858   0.653  11.496 -0.5257 -0.0763 -0.0549
 4933TIP3    H136290   5.913   0.679  11.422 -1.7542  1.0779 -0.5922
 4933TIP3    H236291   5.828   0.735  11.534 -0.7387 -0.6776  1.1016
 4934TIP3   OH236292   1.249   4.897  14.349 -0.6525 -1.1472 -0.4535
 4934TIP3    H136293   1.244   4.936  14.262  0.4395  0.5493  0.2011
 4934TIP3    H236294   1.185   4.947  14.401  2.2124  1.2889  0.9089
 4935TIP3   OH236295   4.209   0.937  17.016 -0.6010  0.5154 -0.2163
 4935TIP3    H136296   4.148   0.869  17.044 -1.0217  0.2683 -1.6686
 4935TIP3    H236297   4.272   0.944  17.088  0.3496 -2.5085 -0.6533
 4936TIP3   OH236298   3.209   5.512   3.189 -0.3634 -0.1282 -0.2313
 4936TIP3    H136299   3.130   5.531   3.240  0.1058 -2.1499  1.3151
 4936TIP3    H236300   3.179   5.453   3.121 -0.6487  1.1586 -1.2440
 4937TIP3   OH236301   0.699   0.029   6.314 -0.1938  0.0411 -0.0631
 4937TIP3    H136302   0.628   0.020   6.378 -1.4881 -1.7202 -1.6821
 4937TIP3    H236303   0.724   0.121   6.320 -1.6381  0.3712  1.5710
 4938TIP3   OH236304   4.108   4.160  14.505 -0.1854 -0.2873  1.4213
 4938TIP3    H136305   4.069   4.072  14.507  1.3740 -1.1119 -1.2853
 4938TIP3    H236306   4.201   4.144  14.521 -0.0101  0.9559  1.6280
 4939TIP3   OH236307   4.581   1.709  14.937  0.0582 -0.0826 -0.2898
 4939TIP3    H136308   4.577   1.616  14.915  0.2057 -0.1951  0.1704
 4939TIP3    H236309   4.516   1.749  14.879 -1.4607 -0.7366  0.9275
 4940TIP3   OH236310   5.753   2.164  15.078  0.4698  0.3450 -0.2214
 4940TIP3    H136311   5.711   2.199  15.157  0.4737  1.1339 -0.5613
 4940TIP3    H236312   5.808   2.092  15.109  1.4549  1.4737  0.6632
 4941TIP3   OH236313   5.411   2.039  14.723  0.0067  0.2649 -0.1890
 4941TIP3    H136314   5.381   1.963  14.774  0.5257  0.0233 -0.2388
 4941TIP3    H236315   5.464   2.089  14.785 -1.3820  1.2673  0.2173
 4942TIP3   OH236316   2.844   1.751   2.101 -0.1873  0.4472  0.3428
 4942TIP3    H136317   2.759   1.723   2.137  0.9010 -1.6947  1.3628
 4942TIP3    H236318   2.852   1.702   2.019 -0.5615  1.7751 -0.5102
 4943TIP3   OH236319   1.263   5.921  14.630  0.4960  0.2662 -0.1005
 4943TIP3    H136320   1.202   5.937  14.702 -0.0293 -0.6007 -0.3504
 4943TIP3    H236321   1.349   5.914  14.672  0.4199  1.3682  0.2634
 4944TIP3   OH236322   4.299   1.179  14.029 -0.0087  0.1432 -0.0201
 4944TIP3    H136323   4.264   1.198  13.941 -1.5027  2.0895  0.9559
 4944TIP3    H236324   4.234   1.216  14.089  1.7549  0.1845  1.8993
 4945TIP3   OH236325   5.457   2.940   5.489  0.2629 -0.0383 -0.1915
 4945TIP3    H136326   5.365   2.920   5.475  1.2584 -2.8593 -3.1228
 4945TIP3    H236327   5.499   2.856   5.505  2.3368  1.2249  1.5049
 4946TIP3   OH236328   4.196   1.699   1.229 -0.0405 -0.2889 -0.1714
 4946TIP3    H136329   4.207   1.762   1.300 -2.6628 -1.0838  0.9834
 4946TIP3    H236330   4.126   1.736   1.175  0.3907 -0.8038 -1.0903
 4947TIP3   OH236331   2.972   4.096   0.490 -0.5030  0.3255 -0.2155
 4947TIP3    H136332   2.956   4.012   0.446  1.5904 -0.6574  0.8120
 4947TIP3    H236333   3.025   4.146   0.427 -0.7338  0.3998 -0.3495
 4948TIP3   OH236334   5.055   0.524  16.233 -0.0960 -0.0721  0.3088
 4948TIP3    H136335   5.037   0.562  16.319  1.3893  2.2520 -0.3531
 4948TIP3    H236336   4.981   0.551  16.179  0.4902  1.1723  0.0891
 4949TIP3   OH236337   4.560   0.671  11.274  0.1486 -0.2068  0.4848
 4949TIP3    H136338   4.499   0.724  11.223  0.4849 -0.4264 -0.1426
 4949TIP3    H236339   4.552   0.705  11.363 -0.2882  0.3062  0.2516
 4950TIP3   OH236340   5.679   4.150   3.261  0.0496 -0.3216  0.0961
 4950TIP3    H136341   5.637   4.224   3.304 -0.3573 -0.3223 -0.2951
 4950TIP3    H236342   5.615   4.121   3.196  0.6925 -0.2594 -0.5672
 4951TIP3   OH236343   3.400   4.359  10.957  0.0532  0.1428  0.2849
 4951TIP3    H136344   3.428   4.383  11.046 -2.1512  2.5806  0.3767
 4951TIP3    H236345   3.309   4.331  10.967 -0.0159 -0.1574 -1.1270
 4952TIP3   OH236346   0.358   0.609   1.668 -0.4834 -0.5442 -0.2245
 4952TIP3    H136347   0.386   0.569   1.585  0.8425 -0.9313  0.3995
 4952TIP3    H236348   0.356   0.703   1.649 -2.3995 -0.7817 -1.3357
 4953TIP3   OH236349   4.264   4.052  16.972 -0.0026  0.0776 -0.0920
 4953TIP3    H136350   4.203   4.110  17.017 -0.7947 -1.5533  1.0107
 4953TIP3    H236351   4.209   3.989  16.927  0.8362 -0.8775  0.1800
 4954TIP3   OH236352   1.137   2.934   5.416  0.8554 -0.0291 -0.0674
 4954TIP3    H136353   1.123   2.880   5.494 -1.6383 -1.1403 -1.2316
 4954TIP3    H236354   1.148   3.022   5.451  3.8503 -1.0496  1.7837
 4955TIP3   OH236355   2.907   6.649  12.042 -0.4150 -0.4565  0.1682
 4955TIP3    H136356   2.933   6.560  12.019 -0.3143 -0.2174 -0.6552
 4955TIP3    H236357   2.941   6.662  12.131  0.9258 -0.6904 -0.2986
 4956TIP3   OH236358   4.982   5.029  15.592  0.1489  0.4813 -0.0408
 4956TIP3    H136359   5.012   5.039  15.501  1.5367  0.6062  0.4116
 4956TIP3    H236360   4.925   5.104  15.607  0.0054  0.5246 -0.7820
 4957TIP3   OH236361   3.509   0.785   5.717  0.1273 -0.0277 -0.3214
 4957TIP3    H136362   3.472   0.731   5.787  1.9305  0.0357  0.7215
 4957TIP3    H236363   3.590   0.820   5.754  0.6886  0.6952 -2.1618
 4958TIP3   OH236364   2.062   1.985   3.348 -0.0657 -0.7804 -0.1570
 4958TIP3    H136365   2.093   1.946   3.266 -0.3049  0.5930 -0.9069
 4958TIP3    H236366   2.099   1.928   3.416  0.6113 -1.6049 -1.1873
 4959TIP3   OH236367   6.386   5.366  15.521  0.5926 -0.1541  0.2740
 4959TIP3    H136368   6.342   5.444  15.487  1.3909  0.1505 -0.0756
 4959TIP3    H236369   6.357   5.360  15.612 -0.6634 -0.3160 -0.1324
 4960TIP3   OH236370   0.421   2.631  14.361  0.7275  0.0393  0.2383
 4960TIP3    H136371   0.481   2.632  14.286 -0.5746 -0.6762 -0.8301
 4960TIP3    H236372   0.420   2.540  14.389 -0.4687 -0.1058 -0.2577
 4961TIP3   OH236373   4.282   1.429  14.701 -0.2310 -0.0262 -0.4344
 4961TIP3    H136374   4.248   1.384  14.623 -0.1543  0.1139 -0.5487
 4961TIP3    H236375   4.241   1.516  14.697 -2.6513 -1.0443  1.3341
 4962TIP3   OH236376   4.059   5.154  13.237  0.8407  0.2660  0.1558
 4962TIP3    H136377   4.101   5.160  13.323  0.2909 -0.7457  0.5124
 4962TIP3    H236378   3.966   5.166  13.254  0.8002  0.7746 -0.3987
 4963TIP3   OH236379   6.526   4.830  13.523  0.3055  0.1697 -0.1584
 4963TIP3    H136380   6.477   4.821  13.605 -0.1167  1.7251 -0.2209
 4963TIP3    H236381   6.472   4.787  13.457  0.5389 -0.8933  0.3374
 4964TIP3   OH236382   3.003   1.347   4.693  0.3711 -0.3221  0.1585
 4964TIP3    H136383   3.056   1.336   4.614 -1.9300  0.9501 -1.6066
 4964TIP3    H236384   2.970   1.259   4.712  1.1884 -0.6844 -0.1001
 4965TIP3   OH236385   5.506   5.391  15.065 -0.0291  0.0508  0.3658
 4965TIP3    H136386   5.462   5.460  15.114  0.5822  0.7095  0.0021
 4965TIP3    H236387   5.438   5.352  15.010 -0.1226  1.1671 -0.3095
 4966TIP3   OH236388   1.672   2.778  14.120  0.0527  0.1206 -0.1265
 4966TIP3    H136389   1.716   2.734  14.193  0.8527  2.0474  0.5893
 4966TIP3    H236390   1.579   2.767  14.138  0.2432 -0.8199  0.3131
 4967TIP3   OH236391   6.487   3.905  13.942 -0.0527  0.4658  0.5601
 4967TIP3    H136392   6.484   3.962  14.020  0.6581 -0.8052  1.5343
 4967TIP3    H236393   6.402   3.919  13.900  0.2476  2.5261  0.5728
 4968TIP3   OH236394   6.231   1.930  11.024  0.3402 -0.3096 -0.0206
 4968TIP3    H136395   6.172   2.002  11.047  0.8875  0.5972 -1.3809
 4968TIP3    H236396   6.184   1.880  10.958  0.6357 -0.2347 -0.2883
 4969TIP3   OH236397   4.259   2.684  13.632  0.0726  0.1671 -0.0636
 4969TIP3    H136398   4.261   2.735  13.714 -2.3109  1.7141 -0.9241
 4969TIP3    H236399   4.274   2.749  13.563  0.5873 -0.9006 -0.9777
 4970TIP3   OH236400   1.246   2.561  13.897  0.1101 -0.0494 -0.1199
 4970TIP3    H136401   1.259   2.632  13.960  0.5037  0.8649 -1.2166
 4970TIP3    H236402   1.156   2.531  13.912  0.6398 -0.7415  1.7754
 4971TIP3   OH236403   1.831   6.022   1.833  0.0897 -0.0154  0.0423
 4971TIP3    H136404   1.899   6.032   1.900 -0.4097  0.2839  0.5020
 4971TIP3    H236405   1.815   6.111   1.802 -0.1468 -0.0783 -0.0133
 4972TIP3   OH236406   0.601   6.157   4.704  0.5393  0.7584 -0.3788
 4972TIP3    H136407   0.697   6.163   4.706  0.4646  1.6627  1.3005
 4972TIP3    H236408   0.579   6.104   4.781 -0.3573  1.1842 -0.3419
 4973TIP3   OH236409   4.259   3.232   2.902 -0.1981  0.3431 -0.6538
 4973TIP3    H136410   4.268   3.139   2.879  0.8675  0.2322  0.1778
 4973TIP3    H236411   4.261   3.233   2.998  1.6425  1.3961 -0.6761
 4974TIP3   OH236412   2.463   3.644   2.350  0.3202  0.3995  0.0237
 4974TIP3    H136413   2.519   3.615   2.278 -1.3280  0.1277 -1.1998
 4974TIP3    H236414   2.489   3.734   2.366  0.7344  0.4556 -0.9118
 4975TIP3   OH236415   2.184   0.011  16.206 -0.4307  0.4654 -0.4769
 4975TIP3    H136416   2.135   0.005  16.124 -2.8480 -0.6269  0.9803
 4975TIP3    H236417   2.186  -0.079  16.239  1.6616  0.6816  0.0586
 4976TIP3   OH236418   0.018   5.351   2.443  0.1794  0.0121  0.1986
 4976TIP3    H136419   0.103   5.387   2.419  0.8107 -3.2649 -2.8270
 4976TIP3    H236420   0.038   5.278   2.501 -0.4669 -1.4372 -1.3726
 4977TIP3   OH236421   5.777   4.051  15.115  0.4492 -0.5796  0.4285
 4977TIP3    H136422   5.781   4.145  15.133  0.8779 -0.3009 -1.0172
 4977TIP3    H236423   5.751   4.011  15.198  0.3361  0.8089  1.0709
 4978TIP3   OH236424   2.984   2.056   0.438 -0.7918 -0.5723 -0.3644
 4978TIP3    H136425   2.893   2.026   0.432 -1.2813  0.7738  0.1333
 4978TIP3    H236426   2.995   2.084   0.529  0.1340 -0.7728 -0.4067
 4979TIP3   OH236427   0.273   3.346  13.804  0.1915  0.3081 -0.1721
 4979TIP3    H136428   0.194   3.304  13.837  0.0162  1.0502  0.3690
 4979TIP3    H236429   0.289   3.304  13.719 -1.0822  0.5170 -0.5320
 4980TIP3   OH236430   4.650   0.197  13.696 -0.0583  0.1019 -0.4724
 4980TIP3    H136431   4.605   0.276  13.667  0.9985  0.1814 -1.9330
 4980TIP3    H236432   4.628   0.131  13.630  0.1080 -0.4859  0.0472
 4981TIP3   OH236433   5.172   3.715  16.519 -0.2396 -0.0053  0.2339
 4981TIP3    H136434   5.217   3.705  16.436 -0.6018  0.9141 -0.0831
 4981TIP3    H236435   5.131   3.802  16.514 -0.4764 -0.0454  1.2620
 4982TIP3   OH236436   4.723   5.641   0.726  0.2395  0.2639  0.6569
 4982TIP3    H136437   4.744   5.569   0.785 -1.7100  0.3323  1.4971
 4982TIP3    H236438   4.805   5.662   0.682  1.2371 -1.2235  1.7768
 4983TIP3   OH236439   2.380   5.529  15.780  0.7200  0.2772 -0.2182
 4983TIP3    H136440   2.326   5.564  15.851  0.6133  0.0647 -0.1953
 4983TIP3    H236441   2.449   5.479  15.824  1.2951  1.0468 -0.2219
 4984TIP3   OH236442   3.042   3.091   2.146  0.1100 -0.0762 -0.1300
 4984TIP3    H136443   2.983   3.068   2.074 -0.2100 -2.0668  0.7152
 4984TIP3    H236444   2.983   3.111   2.219  0.4437  0.1707  0.0703
 4985TIP3   OH236445   4.829   0.552   5.106 -0.0171 -0.5977  0.0546
 4985TIP3    H136446   4.839   0.599   5.189 -0.9101  0.9301 -0.6746
 4985TIP3    H236447   4.751   0.498   5.118 -0.2717 -0.2092  0.1169
 4986TIP3   OH236448   5.168   6.417  13.574 -0.0718 -0.8052 -0.1122
 4986TIP3    H136449   5.192   6.325  13.564 -1.3404 -1.1195 -0.2659
 4986TIP3    H236450   5.193   6.457  13.490 -1.8819 -1.5315 -1.0172
 4987TIP3   OH236451   3.561   6.530  11.379  0.1916  0.0125  0.1589
 4987TIP3    H136452   3.528   6.570  11.298 -0.1669  1.0154  0.8056
 4987TIP3    H236453   3.645   6.490  11.353 -1.1116 -1.8994 -1.3208
 4988TIP3   OH236454   1.367   6.125   5.508  0.3228  0.2258 -0.3736
 4988TIP3    H136455   1.426   6.059   5.472  2.2630  1.3604  0.6731
 4988TIP3    H236456   1.329   6.084   5.585  1.6185  0.3663  0.3449
 4989TIP3   OH236457   0.958   1.564   2.063  0.1264 -0.2210  0.3775
 4989TIP3    H136458   0.968   1.589   2.155 -1.6407  1.4821  0.1437
 4989TIP3    H236459   0.867   1.533   2.056 -0.0604  0.5715 -0.9867
 4990TIP3   OH236460   5.115   5.336   1.871  0.6033 -0.4210  0.4846
 4990TIP3    H136461   5.094   5.282   1.795  0.2025  0.3520  0.0384
 4990TIP3    H236462   5.191   5.294   1.911  0.1988 -1.4019  0.2382
 4991TIP3   OH236463   1.079   0.414   4.978 -0.1764  0.3868 -0.1739
 4991TIP3    H136464   1.059   0.489   4.922  1.7846 -1.4231 -3.4195
 4991TIP3    H236465   1.101   0.344   4.917 -0.6567 -2.4690  2.8352
 4992TIP3   OH236466   2.717   0.412  13.372  0.0308  0.7440 -0.4631
 4992TIP3    H136467   2.707   0.435  13.465 -1.8403  0.5007 -0.5748
 4992TIP3    H236468   2.729   0.496  13.328 -0.6168  1.0016 -0.1608
 4993TIP3   OH236469   4.982   3.512   4.052 -0.7395  0.1919  0.0484
 4993TIP3    H136470   4.906   3.570   4.052  1.2295  2.8678  0.1838
 4993TIP3    H236471   4.977   3.467   4.136 -2.2590  0.1820 -0.0207
 4994TIP3   OH236472   3.793   6.727   1.285  0.4625  0.0941 -0.1060
 4994TIP3    H136473   3.733   6.784   1.237  1.4734  0.1463 -1.3372
 4994TIP3    H236474   3.793   6.761   1.374 -1.6206 -0.1369  0.0151
 4995TIP3   OH236475   3.288   4.581   1.460 -0.1831  0.6713 -0.1160
 4995TIP3    H136476   3.353   4.647   1.438 -0.5489  0.6465 -1.2869
 4995TIP3    H236477   3.315   4.503   1.414  1.3135 -0.5921  2.7865
 4996TIP3   OH236478   5.261   2.367  12.622  0.4607 -0.1509 -0.1619
 4996TIP3    H136479   5.306   2.292  12.585  0.2049 -0.4021  0.0394
 4996TIP3    H236480   5.198   2.330  12.684 -0.0942  0.1905 -0.5187
 4997TIP3   OH236481   2.876   5.208   3.187 -0.7261  0.4320 -0.2862
 4997TIP3    H136482   2.835   5.224   3.272  0.7295  1.1945  0.2694
 4997TIP3    H236483   2.956   5.160   3.208 -0.6287  0.1581 -1.2825
 4998TIP3   OH236484   5.330   0.210   3.446 -0.4740 -0.2365  0.3070
 4998TIP3    H136485   5.351   0.129   3.400  0.1760  0.1895 -0.1666
 4998TIP3    H236486   5.359   0.195   3.536 -1.1897 -0.8559  0.4346
 4999TIP3   OH236487   2.960   5.576   4.778 -0.0259  0.3055  0.1359
 4999TIP3    H136488   3.005   5.552   4.697  0.3716  1.4197  0.0107
 4999TIP3    H236489   2.889   5.633   4.750 -0.2304  0.2456  0.5251
 5000TIP3   OH236490   0.291   2.488  16.156  0.4313 -0.1567  0.4172
 5000TIP3    H136491   0.365   2.490  16.216 -0.3571 -0.1486  1.4064
 5000TIP3    H236492   0.254   2.400  16.167 -1.3356  0.7357  1.9742
 5001TIP3   OH236493   3.445   1.949  11.080  0.3605 -0.4488 -0.5989
 5001TIP3    H136494   3.368   1.941  11.023 -0.4388 -0.3941  0.4699
 5001TIP3    H236495   3.498   1.872  11.057 -0.1252 -0.6294 -1.1565
 5002TIP3   OH236496   5.910   1.541   3.847 -0.5240 -0.1109 -0.0949
 5002TIP3    H136497   5.873   1.478   3.909 -1.6824 -0.1999 -0.8451
 5002TIP3    H236498   5.845   1.611   3.844  1.3244  1.7353  1.6533
 5003TIP3   OH236499   1.532   2.820  14.788  0.6850  0.6129 -0.3951
 5003TIP3    H136500   1.450   2.821  14.738 -0.0737  0.4196  0.8220
 5003TIP3    H236501   1.587   2.756  14.743 -0.0691  0.2883 -0.8628
 5004TIP3   OH236502   3.903   1.556  12.351  0.2440  0.0387  0.2174
 5004TIP3    H136503   3.917   1.528  12.261 -0.4462  2.1946 -0.6136
 5004TIP3    H236504   3.970   1.622  12.366 -1.3888  1.7436  0.2776
 5005TIP3   OH236505   4.290   0.198  13.781 -0.3045 -0.4836  0.2365
 5005TIP3    H136506   4.309   0.156  13.697  0.7247  1.1822 -0.3813
 5005TIP3    H236507   4.302   0.129  13.846 -1.9707 -2.0340 -1.0290
 5006TIP3   OH236508   4.271   5.797   2.712 -0.2834 -0.0033  0.7458
 5006TIP3    H136509   4.216   5.730   2.673  0.3624  0.0653 -0.2855
 5006TIP3    H236510   4.356   5.787   2.670  0.1958  0.5987  1.5432
 5007TIP3   OH236511   3.386   3.313  16.090  0.3088 -0.0394 -0.3306
 5007TIP3    H136512   3.462   3.279  16.137 -0.4517 -0.7438  0.3846
 5007TIP3    H236513   3.327   3.344  16.158 -0.0303  0.5611 -0.8937
 5008TIP3   OH236514   2.654   0.764   0.968  0.2058 -0.0633  0.1788
 5008TIP3    H136515   2.743   0.758   0.934 -0.9504  1.5646 -3.3210
 5008TIP3    H236516   2.647   0.854   1.000 -0.1294 -0.2747  0.7117
 5009TIP3   OH236517   5.003   3.539   3.218 -0.0045  0.2201 -0.2712
 5009TIP3    H136518   4.993   3.573   3.307  2.2305 -0.8352  0.4331
 5009TIP3    H236519   4.997   3.444   3.227 -0.4194  0.1331 -1.3514
 5010TIP3   OH236520   4.870   4.198   0.179 -0.4801 -0.0454  0.2234
 5010TIP3    H136521   4.953   4.199   0.227 -0.2371 -0.5634 -0.1829
 5010TIP3    H236522   4.819   4.128   0.221 -1.1875  1.0593  1.2567
 5011TIP3   OH236523   0.033   1.523   5.359 -0.1461  0.2392 -0.0483
 5011TIP3    H136524   0.085   1.525   5.439  0.3656 -0.5188 -0.3494
 5011TIP3    H236525  -0.057   1.536   5.388  0.1258  0.7722  0.5622
 5012TIP3   OH236526   1.699   5.571  12.469  0.5095  0.6651 -0.0270
 5012TIP3    H136527   1.792   5.565  12.447  0.3900  0.2766 -0.4225
 5012TIP3    H236528   1.697   5.621  12.551  1.1300 -0.0241  0.4167
 5013TIP3   OH236529   2.316   0.226  12.944  0.7750  0.1765  0.0453
 5013TIP3    H136530   2.303   0.248  13.036  0.3143  1.8707 -0.4078
 5013TIP3    H236531   2.366   0.299  12.909 -0.1840  0.1654 -1.3581
 5014TIP3   OH236532   0.876   2.679  13.840 -0.2068 -0.0088  0.0942
 5014TIP3    H136533   0.827   2.731  13.904 -3.7050 -2.7658 -0.2258
 5014TIP3    H236534   0.923   2.614  13.893  1.6356  1.3720  0.2308
 5015TIP3   OH236535   2.504   1.134  14.591 -0.7254 -0.0570  0.5138
 5015TIP3    H136536   2.540   1.046  14.581 -0.8360  0.1553 -1.9949
 5015TIP3    H236537   2.573   1.182  14.638  0.2979 -0.8873 -0.1063
 5016TIP3   OH236538   1.700   1.072  14.649  0.2224 -0.3738  0.0464
 5016TIP3    H136539   1.783   1.118  14.636 -1.1948  2.3034  0.0735
 5016TIP3    H236540   1.673   1.045  14.561  0.3082  0.2795 -0.1845
 5017TIP3   OH236541   6.357   4.110  13.776 -0.3319  1.0690 -0.4318
 5017TIP3    H136542   6.368   4.081  13.685 -1.5619 -0.0441 -0.2282
 5017TIP3    H236543   6.436   4.162  13.793  0.7376 -0.1123 -1.5961
 5018TIP3   OH236544   6.079   4.193  11.989 -0.2388 -0.2495  0.5848
 5018TIP3    H136545   6.016   4.257  12.024 -0.4667 -0.0936 -0.0975
 5018TIP3    H236546   6.029   4.146  11.922  0.4328  0.0092 -0.0986
 5019TIP3   OH236547   6.741   5.598  11.322  0.7371 -0.0574 -0.2892
 5019TIP3    H136548   6.714   5.507  11.334  0.8602 -0.1488 -0.7209
 5019TIP3    H236549   6.666   5.649  11.354  1.0426 -0.3022  0.8388
 5020TIP3   OH236550   5.895   0.966   1.989 -0.2862 -0.2125 -0.3815
 5020TIP3    H136551   5.805   0.985   2.015  0.0843  0.1816  0.6583
 5020TIP3    H236552   5.893   0.964   1.894 -1.2398  0.5846 -0.3888
 5021TIP3   OH236553   3.894   1.942  11.100  0.0166  0.2936 -0.2356
 5021TIP3    H136554   3.968   1.981  11.055 -0.8639  1.5178 -0.6566
 5021TIP3    H236555   3.884   1.855  11.061  0.1872  0.7667 -1.3359
 5022TIP3   OH236556   4.925   0.141  13.696  0.0238 -0.3559  0.1120
 5022TIP3    H136557   4.830   0.138  13.706 -0.0789  0.7740 -0.4644
 5022TIP3    H236558   4.941   0.217  13.640  1.1054 -1.7760 -1.5830
 5023TIP3   OH236559   4.721   0.214   5.595  0.1225  0.4600  0.0759
 5023TIP3    H136560   4.795   0.269   5.571 -0.7847  1.3255 -0.7904
 5023TIP3    H236561   4.741   0.184   5.684  2.2813 -0.6519 -0.7376
 5024TIP3   OH236562   4.075   0.710   2.743 -0.4560 -0.2996 -0.6417
 5024TIP3    H136563   4.096   0.656   2.819 -0.8890  0.1747 -0.1809
 5024TIP3    H236564   4.053   0.648   2.674  0.6264 -0.7553 -0.5885
 5025TIP3   OH236565   5.731   1.185  12.998  0.7415  0.0524  0.0106
 5025TIP3    H136566   5.712   1.244  12.924  2.7138  0.2457 -0.3667
 5025TIP3    H236567   5.794   1.232  13.051  0.4879 -0.7316  1.0290
 5026TIP3   OH236568   5.695   2.310   2.143  0.0982  0.4382  0.2458
 5026TIP3    H136569   5.780   2.344   2.114 -0.7177  1.4067 -1.0348
 5026TIP3    H236570   5.715   2.260   2.222  1.6125  2.1758  0.9847
 5027TIP3   OH236571   2.386   4.015   4.030  0.0882  0.8474  0.3374
 5027TIP3    H136572   2.457   3.960   3.996  0.6171  1.2731  0.7330
 5027TIP3    H236573   2.387   3.998   4.125 -1.2027 -0.1445  0.1889
 5028TIP3   OH236574   6.324   1.394   5.445 -0.0855  0.2259  0.1696
 5028TIP3    H136575   6.371   1.419   5.365 -1.3652  1.5516 -0.1940
 5028TIP3    H236576   6.376   1.430   5.516  1.0705 -0.9694 -0.0482
 5029TIP3   OH236577   6.086   5.414  15.492 -0.6595  0.2661  0.1337
 5029TIP3    H136578   6.032   5.489  15.517  0.3459  0.8270  0.6672
 5029TIP3    H236579   6.091   5.361  15.572  1.4356  1.3707  0.7840
 5030TIP3   OH236580   6.245   0.764  11.276 -0.5060  1.0019 -0.1829
 5030TIP3    H136581   6.168   0.715  11.248  0.0133 -1.0050  1.7051
 5030TIP3    H236582   6.315   0.737  11.216 -0.7865  1.2375 -0.6136
 5031TIP3   OH236583   5.710   2.982   2.000  0.4510  0.1306  0.6560
 5031TIP3    H136584   5.673   2.907   1.952  0.0034  0.2940  0.7468
 5031TIP3    H236585   5.735   2.946   2.085  1.4800 -0.2199  0.2205
 5032TIP3   OH236586   2.941   5.490  14.730  0.4190 -0.2537  0.1871
 5032TIP3    H136587   3.016   5.525  14.778 -0.3911 -0.2077  1.4538
 5032TIP3    H236588   2.911   5.564  14.676  0.8973 -0.0884  0.1430
 5033TIP3   OH236589   4.054   0.510   3.806  0.3135  0.0093  0.1676
 5033TIP3    H136590   4.041   0.596   3.767 -2.3381 -0.9382 -1.1808
 5033TIP3    H236591   4.045   0.523   3.900  0.0586  1.1971 -0.0243
 5034TIP3   OH236592   1.743   4.810  15.846  0.0153 -0.5223 -0.1498
 5034TIP3    H136593   1.680   4.877  15.819  0.4980 -0.0460 -0.1053
 5034TIP3    H236594   1.790   4.788  15.766  0.8269  0.2279  0.1209
 5035TIP3   OH236595   1.223   4.582   0.153 -0.2448  0.5172  0.4744
 5035TIP3    H136596   1.143   4.633   0.141  0.3323  1.3889  0.3642
 5035TIP3    H236597   1.292   4.634   0.114  0.1671 -0.9267 -0.7797
 5036TIP3   OH236598   2.253   2.600  15.732 -0.3877  0.8157  0.1146
 5036TIP3    H136599   2.275   2.536  15.664 -0.3187 -1.4782  2.2187
 5036TIP3    H236600   2.160   2.618  15.720 -0.6186 -0.3887  0.0667
 5037TIP3   OH236601   2.750   4.028   2.882 -0.6737 -0.0642 -0.5664
 5037TIP3    H136602   2.766   3.960   2.948  0.9201  1.4891  0.6908
 5037TIP3    H236603   2.688   4.088   2.923 -1.2006 -0.1258 -1.2498
 5038TIP3   OH236604   2.750   0.710  12.230 -0.4048 -0.4290 -0.0405
 5038TIP3    H136605   2.761   0.637  12.169  0.9011  0.5260 -0.9882
 5038TIP3    H236606   2.715   0.781  12.176  0.4034  0.3096  0.3977
 5039TIP3   OH236607   0.943   0.335  12.239 -0.1493  0.1221 -0.3626
 5039TIP3    H136608   0.906   0.247  12.236  1.1684 -0.5159  1.2867
 5039TIP3    H236609   1.031   0.323  12.274 -0.0341  2.1189  0.0860
 5040TIP3   OH236610   6.765   0.600   6.080 -0.4962  0.1021  0.3018
 5040TIP3    H136611   6.675   0.570   6.091 -1.0168  1.3942 -0.3450
 5040TIP3    H236612   6.781   0.655   6.156 -0.9715  1.5769 -0.6595
 5041TIP3   OH236613   2.068   6.123  16.630  0.2382 -0.4550  0.3991
 5041TIP3    H136614   2.149   6.173  16.619 -0.7883  1.3222  0.6615
 5041TIP3    H236615   2.028   6.124  16.543  0.3054 -0.9802  0.3638
 5042TIP3   OH236616   6.135   3.023  11.568 -0.7551  0.4090  0.6624
 5042TIP3    H136617   6.120   3.048  11.659  1.3248 -0.3525  1.2284
 5042TIP3    H236618   6.148   3.106  11.522  1.2050  0.6452  1.6205
 5043TIP3   OH236619   5.906   3.748   4.853  0.1936 -0.1097  0.0845
 5043TIP3    H136620   5.911   3.838   4.885 -0.3120  0.3652 -1.1382
 5043TIP3    H236621   5.921   3.694   4.931  1.4668  1.0292  0.6470
 5044TIP3   OH236622   5.799   6.585  15.424  1.0506  0.4358 -0.5288
 5044TIP3    H136623   5.717   6.536  15.426  0.6273  1.1755  1.3020
 5044TIP3    H236624   5.849   6.552  15.499  1.5825  1.3851 -0.4503
 5045TIP3   OH236625   3.148   3.025   4.462  0.6906  1.0983  0.8023
 5045TIP3    H136626   3.068   2.974   4.450  2.5577 -2.0407  1.0590
 5045TIP3    H236627   3.125   3.090   4.528 -1.5219 -0.0395  1.1977
 5046TIP3   OH236628   4.047   4.261  14.188  0.7849  0.2196  0.5434
 5046TIP3    H136629   4.035   4.229  14.277  2.2633  0.4699  0.8468
 5046TIP3    H236630   3.959   4.285  14.159  0.0235 -1.7057  1.2192
 5047TIP3   OH236631   4.889   4.450  17.127 -0.0159  0.0515  0.0795
 5047TIP3    H136632   4.809   4.433  17.178  0.3216 -2.1347 -0.0888
 5047TIP3    H236633   4.944   4.502  17.186  0.2297 -2.1465  1.8669
 5048TIP3   OH236634   5.349   1.850   1.005 -0.1810  0.4086  0.3998
 5048TIP3    H136635   5.401   1.907   1.062 -1.3451  2.7173 -0.7652
 5048TIP3    H236636   5.408   1.827   0.933  0.1853  0.4370  0.6909
 5049TIP3   OH236637   1.974   0.910  15.767  0.5101  0.3304  0.2348
 5049TIP3    H136638   2.035   0.886  15.697  0.2545 -0.3480  0.2397
 5049TIP3    H236639   1.968   0.832  15.822 -0.0227  0.5419  0.4798
 5050TIP3   OH236640   1.939   2.639   2.067 -0.3486 -0.0709  0.5070
 5050TIP3    H136641   1.989   2.606   1.992  0.3868  2.5827 -0.1953
 5050TIP3    H236642   1.857   2.589   2.063  0.6702 -1.7324 -0.5721
 5051TIP3   OH236643   3.062   1.482  15.605 -0.1888 -0.2270 -0.1866
 5051TIP3    H136644   3.124   1.510  15.538 -1.7695  0.7621 -1.2628
 5051TIP3    H236645   3.108   1.493  15.688  1.6230 -1.0198 -1.0758
 5052TIP3   OH236646   1.478   3.169   5.607  0.2056  0.1175  0.1997
 5052TIP3    H136647   1.491   3.080   5.642  0.5387 -0.5040 -1.4690
 5052TIP3    H236648   1.538   3.174   5.533 -1.9869  0.6749 -1.5953
 5053TIP3   OH236649   6.477   1.006  11.167 -0.5249  0.2043 -0.4209
 5053TIP3    H136650   6.471   0.917  11.131  0.0042 -0.9023  2.0976
 5053TIP3    H236651   6.449   0.997  11.258  2.1032  2.0912  0.6630
 5054TIP3   OH236652   2.501   5.539   0.599  0.3469 -0.5095 -0.2310
 5054TIP3    H136653   2.583   5.552   0.647 -2.0549  1.0679  3.6544
 5054TIP3    H236654   2.481   5.446   0.610  0.5179 -0.4430  0.6874
 5055TIP3   OH236655   5.286   2.516   4.528 -0.8507 -0.0421  0.1652
 5055TIP3    H136656   5.274   2.463   4.607 -1.9655  2.1084  1.4800
 5055TIP3    H236657   5.318   2.600   4.560  1.0585  0.0623 -1.9188
 5056TIP3   OH236658   0.501   3.913   2.283  0.8243 -0.2223 -0.0308
 5056TIP3    H136659   0.472   3.823   2.300 -0.3301 -0.2151 -1.8152
 5056TIP3    H236660   0.431   3.968   2.320  0.6014 -0.1118 -0.6090
 5057TIP3   OH236661   0.072   4.522   4.048  0.3075  0.2613  0.1603
 5057TIP3    H136662   0.034   4.586   3.988  0.3699  0.3152  0.1785
 5057TIP3    H236663   0.056   4.437   4.006  0.7376  0.3317 -0.1426
 5058TIP3   OH236664   1.049   6.547  12.749  0.1116 -0.2028 -0.3197
 5058TIP3    H136665   1.084   6.562  12.836  2.0568 -0.0742 -1.0900
 5058TIP3    H236666   1.097   6.609  12.693 -2.6850  1.2759 -1.1471
 5059TIP3   OH236667   3.575   3.526   3.353  0.0105 -0.8606  0.2786
 5059TIP3    H136668   3.559   3.520   3.448  4.1049 -0.8557  1.0679
 5059TIP3    H236669   3.514   3.593   3.323 -0.8457 -0.3023  3.0635
 5060TIP3   OH236670   2.466   1.146   2.248 -0.1164 -0.2735  0.0822
 5060TIP3    H136671   2.520   1.121   2.323  0.4396  0.3762 -0.0870
 5060TIP3    H236672   2.488   1.082   2.180  0.7424  0.2177 -0.1102
 5061TIP3   OH236673   5.311   1.898   4.556  0.3553 -0.0434 -0.1008
 5061TIP3    H136674   5.311   1.925   4.465  0.4793  0.7720  0.1436
 5061TIP3    H236675   5.293   1.978   4.605  2.0768 -0.1293  0.7027
 5062TIP3   OH236676   3.683   6.810  16.826 -0.3380 -0.0631  0.1308
 5062TIP3    H136677   3.768   6.778  16.796  0.9779 -0.9604  4.4677
 5062TIP3    H236678   3.631   6.730  16.839 -1.2775  0.3825 -0.7904
 5063TIP3   OH236679   0.747   0.697   5.466  0.3020 -0.6716  0.8799
 5063TIP3    H136680   0.707   0.692   5.553 -0.8450  0.3145  0.4122
 5063TIP3    H236681   0.840   0.681   5.482 -0.3342 -3.7013  1.8861
 5064TIP3   OH236682   4.369   6.751   6.344  0.0735  0.4142 -0.3914
 5064TIP3    H136683   4.411   6.673   6.307 -1.6036 -0.6843 -0.0620
 5064TIP3    H236684   4.284   6.756   6.299  0.5582  2.6321 -1.1101
 5065TIP3   OH236685   5.621   0.122   0.550 -0.0135 -0.5791  0.1642
 5065TIP3    H136686   5.535   0.162   0.558  0.2725  0.3003 -1.0040
 5065TIP3    H236687   5.683   0.195   0.558  0.6905 -1.4063  2.5411
 5066TIP3   OH236688   1.577   4.411   0.290  0.3184 -0.0194 -0.5494
 5066TIP3    H136689   1.556   4.327   0.250 -1.5348 -0.7182  1.8364
 5066TIP3    H236690   1.532   4.475   0.236  0.8233 -0.6242 -1.7153
 5067TIP3   OH236691   4.631   6.137  15.514 -0.2440 -0.6113  0.0763
 5067TIP3    H136692   4.631   6.232  15.508 -0.9040 -0.5615  0.8697
 5067TIP3    H236693   4.699   6.109  15.451 -1.5307  0.2758 -1.7621
 5068TIP3   OH236694   3.273   2.703   0.603 -0.7677  0.4249  0.0955
 5068TIP3    H136695   3.337   2.735   0.539 -1.3464  0.1406 -0.6359
 5068TIP3    H236696   3.323   2.645   0.660 -0.1216  1.1240  0.2519
 5069TIP3   OH236697   4.555   0.494  11.668 -0.4007  0.9322  0.2335
 5069TIP3    H136698   4.602   0.523  11.746  3.2358 -3.6834 -0.0501
 5069TIP3    H236699   4.599   0.539  11.596  0.2851  0.4894  0.3720
 5070TIP3   OH236700   4.461   6.017  14.405 -0.1940  0.2615  0.5427
 5070TIP3    H136701   4.457   5.944  14.343 -0.5999  1.3768 -0.7729
 5070TIP3    H236702   4.442   6.094  14.352  2.0421  1.5361  1.5362
 5071TIP3   OH236703   0.396   6.239  14.051  0.2767  0.4358  0.5046
 5071TIP3    H136704   0.487   6.266  14.059  0.3129  0.8348 -1.0960
 5071TIP3    H236705   0.370   6.215  14.140  1.6865  1.1197  1.1123
 5072TIP3   OH236706   3.147   1.878   2.741 -0.6141 -0.0427  0.0254
 5072TIP3    H136707   3.141   1.892   2.647 -0.5237 -0.6643 -0.0758
 5072TIP3    H236708   3.173   1.963   2.777  1.3982 -0.3283 -0.7101
 5073TIP3   OH236709   3.708   2.708   2.986  0.3639  0.1735 -0.4237
 5073TIP3    H136710   3.797   2.707   3.021  0.8601  0.8281 -1.6603
 5073TIP3    H236711   3.715   2.754   2.902 -1.1708  0.4146 -0.4373
 5074TIP3   OH236712   1.991   4.133   2.051  0.1556 -0.8965 -0.5490
 5074TIP3    H136713   1.911   4.081   2.049  0.1921 -1.0381  0.9063
 5074TIP3    H236714   2.048   4.086   2.113  1.0072 -0.3048 -0.8775
 5075TIP3   OH236715   5.681   5.793  16.446  0.0756  0.6986  0.2680
 5075TIP3    H136716   5.727   5.757  16.521 -0.6619  1.1241  0.9358
 5075TIP3    H236717   5.608   5.732  16.431  0.5782  0.2789 -0.4892
 5076TIP3   OH236718   4.370   1.097  15.869  0.6360 -0.3403  0.1093
 5076TIP3    H136719   4.355   1.061  15.782  1.2960 -0.1599 -0.0852
 5076TIP3    H236720   4.361   1.022  15.928 -3.2975  0.1786  0.2641
 5077TIP3   OH236721   3.091   3.747  14.297  0.0082 -0.3447 -0.9662
 5077TIP3    H136722   3.009   3.705  14.323  1.3664 -1.5730  1.5092
 5077TIP3    H236723   3.101   3.723  14.205 -1.3970 -1.9080 -0.7522
 5078TIP3   OH236724   3.762   0.313  13.727  0.0072 -0.1986 -0.2675
 5078TIP3    H136725   3.735   0.290  13.816 -0.6679  0.2131 -0.3701
 5078TIP3    H236726   3.682   0.311  13.676  0.3825 -0.3430 -0.8538
 5079TIP3   OH236727   0.668   5.874   2.237 -0.7136 -0.0212  0.8693
 5079TIP3    H136728   0.703   5.789   2.211  0.3893  0.1851  1.6485
 5079TIP3    H236729   0.690   5.882   2.330  0.4262  1.7162  0.4835
 5080TIP3   OH236730   3.157   1.985   4.430 -0.1600 -0.6919  0.5652
 5080TIP3    H136731   3.169   2.073   4.466  0.4369 -1.1117  1.4108
 5080TIP3    H236732   3.153   1.928   4.507 -0.6197 -1.3974  0.0252
 5081TIP3   OH236733   5.146   3.764  12.105  0.1619  0.2584 -0.5451
 5081TIP3    H136734   5.215   3.806  12.054  0.7170 -1.4850 -1.2654
 5081TIP3    H236735   5.164   3.670  12.097 -0.9533 -0.1220  1.1603
 5082TIP3   OH236736   5.367   0.760   4.094 -0.4611 -0.0505 -0.3495
 5082TIP3    H136737   5.398   0.679   4.052  1.6781  1.1395 -1.1236
 5082TIP3    H236738   5.317   0.804   4.026 -0.7851 -0.2263 -0.2307
 5083TIP3   OH236739   4.182   5.832  12.888  0.1005  0.2642  0.3424
 5083TIP3    H136740   4.228   5.912  12.863  2.2910 -1.1660 -0.3650
 5083TIP3    H236741   4.245   5.762  12.871 -2.6460 -1.8862 -1.4510
 5084TIP3   OH236742   2.104   4.531   3.999 -0.4475  0.6781 -0.6308
 5084TIP3    H136743   2.197   4.553   4.003 -0.5551  1.4328 -2.0293
 5084TIP3    H236744   2.090   4.505   3.908 -1.1172 -1.6365  0.1055
 5085TIP3   OH236745   3.933   4.108  13.905  0.6570  0.2827  0.2035
 5085TIP3    H136746   3.866   4.103  13.974 -1.5786 -1.2419 -1.9868
 5085TIP3    H236747   3.973   4.021  13.905  0.8062  0.3539 -0.2860
 5086TIP3   OH236748   0.159   0.479   0.904  0.4916  0.5573  0.3310
 5086TIP3    H136749   0.161   0.518   0.817  0.7815 -2.0291 -0.8661
 5086TIP3    H236750   0.066   0.460   0.920  0.4017  1.3177  0.7257
 5087TIP3   OH236751   0.111   6.401   2.689 -0.1081 -0.2949 -0.1135
 5087TIP3    H136752   0.128   6.481   2.639  0.7622 -0.5000 -0.1632
 5087TIP3    H236753   0.104   6.332   2.623  0.9239 -0.5469  0.0227
 5088TIP3   OH236754   4.351   2.190  13.944  0.6099 -0.5829  0.2686
 5088TIP3    H136755   4.357   2.275  13.986 -0.4755 -0.0860 -0.5594
 5088TIP3    H236756   4.384   2.128  14.010 -0.6166  0.2264  1.6918
 5089TIP3   OH236757   0.204   4.175   6.097 -0.1287 -0.2798 -0.8545
 5089TIP3    H136758   0.159   4.113   6.040  1.8896  0.9181 -3.8961
 5089TIP3    H236759   0.215   4.253   6.043 -0.6713  1.9886  2.1548
 5090TIP3   OH236760   3.131   0.037  14.957  0.9648 -0.0355 -0.2810
 5090TIP3    H136761   3.122   0.114  15.012  2.6018  0.3899 -0.5691
 5090TIP3    H236762   3.070   0.051  14.884 -0.1634  0.0607  0.6793
 5091TIP3   OH236763   2.703   2.863   5.255 -0.4003 -0.4450 -0.6196
 5091TIP3    H136764   2.632   2.800   5.243 -1.4828  0.9694 -1.7589
 5091TIP3    H236765   2.662   2.939   5.296  0.1394  0.9359 -2.5538
 5092TIP3   OH236766   4.015   5.708   5.838  0.2202  0.0141 -0.2976
 5092TIP3    H136767   4.008   5.791   5.885 -0.7340  0.1782 -0.7151
 5092TIP3    H236768   3.972   5.644   5.895 -0.6396  0.1505 -0.7828
 5093TIP3   OH236769   3.999   5.661  17.189 -0.3980 -0.3971  0.3008
 5093TIP3    H136770   4.072   5.605  17.214  0.1010  1.1411  2.4040
 5093TIP3    H236771   4.021   5.748  17.224 -1.9336  0.7338 -1.4329
 5094TIP3   OH236772   6.752   6.578  15.891  0.0824  0.0406  0.4503
 5094TIP3    H136773   6.714   6.499  15.929 -0.7633  0.3591  0.2737
 5094TIP3    H236774   6.681   6.617  15.840  1.2581 -0.5172 -1.6929
 5095TIP3   OH236775   6.815   0.368  12.799 -0.8566  0.2958  0.0150
 5095TIP3    H136776   6.803   0.371  12.704  1.9146  0.5849 -0.3635
 5095TIP3    H236777   6.888   0.308  12.813 -0.5202  1.0791  1.8770
 5096TIP3   OH236778   3.577   2.193  16.418 -0.1502 -0.2770 -0.0663
 5096TIP3    H136779   3.513   2.170  16.485 -0.4246 -0.7125 -0.4735
 5096TIP3    H236780   3.660   2.198  16.465 -0.5706  0.8861  0.5657
 5097TIP3   OH236781   0.092   2.992  16.437  0.3598  0.0288 -0.4138
 5097TIP3    H136782   0.160   3.060  16.433  1.1750 -0.7787 -0.6135
 5097TIP3    H236783   0.036   3.018  16.509  0.9884  0.6252 -0.1354
 5098TIP3   OH236784   2.057   5.348   2.406  0.8690 -0.3432 -0.6583
 5098TIP3    H136785   2.078   5.266   2.453  0.4450 -0.7276 -1.1362
 5098TIP3    H236786   1.972   5.375   2.441  0.5326 -0.6512 -1.2237
 5099TIP3   OH236787   4.608   3.318   4.292 -0.0453  0.0823  0.4047
 5099TIP3    H136788   4.642   3.330   4.203  0.0013  0.5604  0.4816
 5099TIP3    H236789   4.682   3.287   4.342 -0.2299 -0.7961  0.1408
 5100TIP3   OH236790   4.768   2.483   4.753  0.0669  0.1842  0.2128
 5100TIP3    H136791   4.761   2.451   4.663 -0.0714  0.8767 -0.0254
 5100TIP3    H236792   4.825   2.560   4.746  0.4277 -0.0369  0.7817
 5101TIP3   OH236793   2.429   5.797   0.474 -0.1501  0.4309 -0.7691
 5101TIP3    H136794   2.373   5.860   0.429  1.3471  0.6272 -2.4133
 5101TIP3    H236795   2.431   5.720   0.417  0.8355  0.2421 -0.5035
 5102TIP3   OH236796   2.734   5.153  17.201 -0.0131  0.1863 -0.3724
 5102TIP3    H136797   2.826   5.141  17.224 -0.7732 -2.4086  1.5706
 5102TIP3    H236798   2.735   5.161  17.105  2.2928  1.1577 -0.3142
 5103TIP3   OH236799   1.522   2.058  14.323  0.1089 -0.2475 -0.4109
 5103TIP3    H136800   1.429   2.072  14.309  0.5865  1.5916 -1.9398
 5103TIP3    H236801   1.564   2.089  14.243  2.0846 -0.3828  0.5216
 5104TIP3   OH236802   5.319   1.953   4.280  0.6898  0.2706  0.3913
 5104TIP3    H136803   5.349   2.039   4.251  0.1933  0.4883  0.5144
 5104TIP3    H236804   5.309   1.902   4.200 -0.0652  0.6706  0.2305
 5105TIP3   OH236805   0.130   1.055  11.743 -0.5335  0.0037 -0.3184
 5105TIP3    H136806   0.138   0.968  11.704 -1.4342  0.6608 -1.9807
 5105TIP3    H236807   0.189   1.052  11.819 -1.7223 -2.5661  0.5587
 5106TIP3   OH236808   1.978   1.831   0.688  0.2049 -0.0410 -0.2571
 5106TIP3    H136809   2.064   1.800   0.716  0.6442  1.5400  0.2266
 5106TIP3    H236810   1.996   1.895   0.620 -0.4448  1.7970  1.2379
 5107TIP3   OH236811   4.511   6.308   3.413 -0.0023  0.0790 -0.0364
 5107TIP3    H136812   4.425   6.338   3.443  0.4429  0.8229  0.5399
 5107TIP3    H236813   4.573   6.349   3.473  0.6782 -1.5947  0.4281
 5108TIP3   OH236814   0.401   5.098   5.492 -0.0060  0.4826 -0.1908
 5108TIP3    H136815   0.419   5.187   5.461  0.2378 -0.1962 -2.0917
 5108TIP3    H236816   0.463   5.043   5.443 -0.4795 -0.7844  0.6025
 5109TIP3   OH236817   0.125   1.172  16.391  0.0496  0.1133  0.1993
 5109TIP3    H136818   0.136   1.093  16.340  0.2813  0.4457 -0.2714
 5109TIP3    H236819   0.069   1.228  16.337 -3.4225 -1.2588  2.2115
 5110TIP3   OH236820   0.570   1.931  14.572 -0.4077 -0.5393 -0.0617
 5110TIP3    H136821   0.547   1.868  14.640 -0.1488  0.1354  0.6663
 5110TIP3    H236822   0.493   1.987  14.563 -0.9756 -1.5251 -1.3582
 5111TIP3   OH236823   4.620   5.350  15.230 -0.1442  0.7331  0.6240
 5111TIP3    H136824   4.592   5.258  15.235  1.6461  0.1242 -0.2801
 5111TIP3    H236825   4.538   5.399  15.224 -1.0758 -0.9390 -0.9300
 5112TIP3   OH236826   2.902   4.586   5.356 -0.3414 -0.4225  0.0166
 5112TIP3    H136827   2.992   4.596   5.388 -0.5859  2.2078 -0.0640
 5112TIP3    H236828   2.854   4.551   5.431  0.3643 -0.0803  0.6399
 5113TIP3   OH236829   2.376   3.444  16.972  0.0519 -0.0177  0.2695
 5113TIP3    H136830   2.342   3.501  17.041  1.1346 -1.9831  2.4890
 5113TIP3    H236831   2.436   3.499  16.923 -3.2255  2.3598 -1.2180
 5114TIP3   OH236832   5.380   1.252  12.285  0.2116 -0.1541 -0.0048
 5114TIP3    H136833   5.428   1.316  12.337 -0.0978 -3.1621  4.2281
 5114TIP3    H236834   5.437   1.175  12.282 -1.0738 -1.0926 -1.6184
 5115TIP3   OH236835   5.571   2.341   3.881  0.3785  0.1006  0.0070
 5115TIP3    H136836   5.650   2.289   3.866  0.7444  0.0510  2.0411
 5115TIP3    H236837   5.499   2.283   3.857  0.9170  0.2181 -2.0696
 5116TIP3   OH236838   6.587   1.261  16.855  0.1932 -0.2034 -0.0150
 5116TIP3    H136839   6.540   1.320  16.796  0.5169  0.3663  0.3069
 5116TIP3    H236840   6.676   1.258  16.820  1.0295  2.0181  1.8366
 5117TIP3   OH236841   2.351   5.616  13.948 -0.3776 -0.0169  0.7164
 5117TIP3    H136842   2.266   5.621  13.905 -0.2076  1.0782  0.4976
 5117TIP3    H236843   2.359   5.524  13.975 -1.4327 -0.2185  0.3570
 5118TIP3   OH236844   3.454   6.685  14.936 -0.2537 -0.1451 -0.3362
 5118TIP3    H136845   3.486   6.685  14.846 -0.1487  0.0906 -0.2971
 5118TIP3    H236846   3.409   6.768  14.947  0.5510  0.2358  0.1193
 5119TIP3   OH236847   2.928   2.873   4.602  0.0926 -0.5668 -0.2242
 5119TIP3    H136848   2.851   2.929   4.610  0.4365 -0.3319  1.6426
 5119TIP3    H236849   2.938   2.834   4.689  2.0273 -0.6776 -0.4824
 5120TIP3   OH236850   0.562   0.033   1.290 -0.2781 -0.4634 -0.1733
 5120TIP3    H136851   0.544   0.067   1.378 -0.3767  1.6056 -0.9494
 5120TIP3    H236852   0.544   0.107   1.233 -0.6823 -1.9389 -1.9869
 5121TIP3   OH236853   3.626   2.519  15.273  0.1678 -0.1327 -0.4577
 5121TIP3    H136854   3.648   2.589  15.212  0.8916 -1.4773 -1.7773
 5121TIP3    H236855   3.641   2.557  15.359  2.7158  0.6640 -1.1952
 5122TIP3   OH236856   6.466   1.986  14.657  0.1093  0.3055  0.5348
 5122TIP3    H136857   6.560   1.972  14.670 -0.0111 -1.4231 -0.2035
 5122TIP3    H236858   6.425   1.912  14.701 -0.8063  0.0885 -0.6676
 5123TIP3   OH236859   5.926   5.296   2.138 -0.0473 -0.1362 -0.2402
 5123TIP3    H136860   5.916   5.289   2.043 -0.7622  0.6019 -0.2279
 5123TIP3    H236861   5.886   5.381   2.160 -1.3363 -1.0289  0.9138
 5124TIP3   OH236862   3.513   3.504   0.357  0.1819  0.0899  0.3009
 5124TIP3    H136863   3.574   3.481   0.287  0.2154  0.5299  0.1837
 5124TIP3    H236864   3.549   3.584   0.396 -0.7542  0.8200 -0.3158
 5125TIP3   OH236865   3.905   4.493   5.222  0.0978  0.4712  0.2261
 5125TIP3    H136866   3.965   4.495   5.147 -1.1153  0.5995 -0.7524
 5125TIP3    H236867   3.927   4.411   5.268 -0.6936 -0.7645 -1.5574
 5126TIP3   OH236868   2.745   5.747  16.206 -0.3094  0.1162  0.9458
 5126TIP3    H136869   2.697   5.792  16.276 -0.7384 -0.4482  1.0203
 5126TIP3    H236870   2.827   5.719  16.246 -0.0115  0.8835  0.8787
 5127TIP3   OH236871   3.267   2.363  11.466  0.5399  0.5146  0.1896
 5127TIP3    H136872   3.358   2.382  11.442  1.0889  0.3203  1.9996
 5127TIP3    H236873   3.251   2.419  11.542 -1.6647  2.3650 -1.5798
 5128TIP3   OH236874   4.584   2.437  12.946  0.1816  0.0693  0.0063
 5128TIP3    H136875   4.522   2.397  12.884 -0.4558  0.9573  0.0673
 5128TIP3    H236876   4.569   2.391  13.028 -1.5889  1.4180  0.4594
 5129TIP3   OH236877   0.757   1.400   3.633 -0.5652  0.3412  0.9219
 5129TIP3    H136878   0.665   1.379   3.644 -0.8139 -0.2244 -1.9442
 5129TIP3    H236879   0.790   1.333   3.574  1.5258  0.9854  1.3120
 5130TIP3   OH236880   4.088   4.506   4.147 -0.1689 -0.0588  0.0558
 5130TIP3    H136881   4.013   4.566   4.155  0.2831  0.5046  0.1052
 5130TIP3    H236882   4.122   4.497   4.236 -1.0029 -1.4066  0.2607
 5131TIP3   OH236883   6.237   6.472   4.160  0.6716  0.0772 -0.4867
 5131TIP3    H136884   6.226   6.566   4.153 -1.1871 -0.2663 -2.5729
 5131TIP3    H236885   6.267   6.444   4.073  1.3616 -1.2460  0.1443
 5132TIP3   OH236886   6.664   4.913   5.201 -0.3282 -0.4463 -0.5163
 5132TIP3    H136887   6.697   4.840   5.254  0.4747 -1.6841 -2.6354
 5132TIP3    H236888   6.582   4.938   5.242  0.4035 -1.1896  1.4497
 5133TIP3   OH236889   1.459   5.700  15.010  0.0757  0.0020  0.2820
 5133TIP3    H136890   1.451   5.794  15.025  0.0456 -0.0358  0.5036
 5133TIP3    H236891   1.412   5.684  14.927  0.2746  0.2153  0.1296
 5134TIP3   OH236892   0.336   0.927   2.430  0.1453  0.0488 -0.3694
 5134TIP3    H136893   0.288   1.009   2.416 -0.3171 -0.1779 -0.1001
 5134TIP3    H236894   0.316   0.874   2.353 -1.7835 -0.8961  0.7407
 5135TIP3   OH236895   5.614   3.918  11.426 -0.3092 -0.1065 -0.1621
 5135TIP3    H136896   5.636   3.884  11.340 -0.0073  0.9668 -0.5080
 5135TIP3    H236897   5.690   3.897  11.480  0.6279  1.5561 -0.7999
 5136TIP3   OH236898   5.936   2.544  12.853  0.0494 -0.2155  0.0706
 5136TIP3    H136899   6.013   2.598  12.835 -0.6084  0.7092 -0.0290
 5136TIP3    H236900   5.888   2.592  12.921 -0.0111 -1.2056  0.7427
 5137TIP3   OH236901   1.131   2.551   5.502 -0.0159  0.4408  0.8435
 5137TIP3    H136902   1.170   2.477   5.455 -0.6360 -0.5549  1.8750
 5137TIP3    H236903   1.056   2.513   5.547 -1.4271  2.0733 -0.0754
 5138TIP3   OH236904   0.219   4.837  13.844 -0.0180  0.2653 -0.3453
 5138TIP3    H136905   0.185   4.754  13.811  0.5006  0.1051 -0.4776
 5138TIP3    H236906   0.217   4.827  13.940  1.8406 -0.6369 -0.3791
 5139TIP3   OH236907   3.703   2.364   4.037  0.3223  0.3117  0.2247
 5139TIP3    H136908   3.648   2.318   4.100  0.8317 -0.4482  0.1202
 5139TIP3    H236909   3.793   2.349   4.069  0.5188  0.7950 -0.0999
 5140TIP3   OH236910   1.422   2.380  12.362  0.4813 -0.1494  0.0080
 5140TIP3    H136911   1.344   2.336  12.397  0.7648  0.8734  1.9921
 5140TIP3    H236912   1.489   2.365  12.428  1.4745  0.4970 -0.8491
 5141TIP3   OH236913   4.502   0.395  17.051  0.1802 -0.1314 -0.5382
 5141TIP3    H136914   4.446   0.409  17.128 -0.7140 -0.2365 -1.1584
 5141TIP3    H236915   4.443   0.362  16.984  0.9721 -0.1289 -1.2487
 5142TIP3   OH236916   0.149   4.706  13.363 -0.4747 -0.1081 -0.0418
 5142TIP3    H136917   0.075   4.691  13.423 -0.2048 -1.0243  0.0601
 5142TIP3    H236918   0.203   4.771  13.409 -0.8591  0.0451  0.1977
 5143TIP3   OH236919   3.607   1.547  12.381  0.1041 -0.3226 -0.0099
 5143TIP3    H136920   3.609   1.451  12.388 -0.0961 -0.6741 -3.6916
 5143TIP3    H236921   3.698   1.571  12.362 -0.2701 -0.0265 -1.4472
 5144TIP3   OH236922   5.940   4.940   4.201 -0.2082 -0.1578  0.6858
 5144TIP3    H136923   6.028   4.973   4.183 -0.7967  2.1544  1.8425
 5144TIP3    H236924   5.921   4.969   4.291 -0.9101 -3.3990  1.6622
 5145TIP3   OH236925   5.646   3.317  11.082 -0.4224  1.0201  0.1041
 5145TIP3    H136926   5.736   3.330  11.051  0.2086 -3.1630 -0.1283
 5145TIP3    H236927   5.602   3.277  11.007 -1.2084 -1.2148  1.7361
 5146TIP3   OH236928   5.739   1.805  15.645 -0.2677  0.0129 -0.6106
 5146TIP3    H136929   5.670   1.767  15.591 -1.7010  0.0466  1.1449
 5146TIP3    H236930   5.740   1.751  15.724  0.2378  1.3277  0.3007
 5147TIP3   OH236931   6.299   0.653   0.983  0.4080  0.3817 -0.2277
 5147TIP3    H136932   6.328   0.735   0.942 -1.5476  1.4339  0.4129
 5147TIP3    H236933   6.241   0.614   0.917 -2.1636  1.7160  1.1797
 5148TIP3   OH236934   2.778   6.649   1.711 -0.0886 -0.1072 -0.0151
 5148TIP3    H136935   2.823   6.720   1.757  0.7668 -0.7832  0.2017
 5148TIP3    H236936   2.731   6.692   1.640  0.0602  0.7282  0.3927
 5149TIP3   OH236937   3.526   2.703   1.886 -0.6631 -0.6223  0.3737
 5149TIP3    H136938   3.441   2.746   1.887  0.1448  1.0754 -1.5180
 5149TIP3    H236939   3.537   2.674   1.796  1.2137  0.1209  0.3387
 5150TIP3   OH236940   3.909   6.367  10.726 -0.4577  0.0997  0.0895
 5150TIP3    H136941   3.954   6.284  10.707 -1.2706 -0.2123 -0.4890
 5150TIP3    H236942   3.954   6.432  10.673  0.0475 -0.0041  0.3869
 5151TIP3   OH236943   1.167   4.000  15.581  0.1316  0.3484  0.4647
 5151TIP3    H136944   1.098   3.934  15.594 -0.1278  0.5734  0.2198
 5151TIP3    H236945   1.121   4.084  15.581  0.5742  0.5940  1.6586
 5152TIP3   OH236946   0.389   0.800  16.705  0.6198 -0.3321 -0.0110
 5152TIP3    H136947   0.348   0.887  16.703  0.1791 -0.5180  0.8696
 5152TIP3    H236948   0.460   0.808  16.768  0.2365 -0.7523  0.4811
 5153TIP3   OH236949   1.256   6.362   0.901 -0.3041 -0.6345 -0.7224
 5153TIP3    H136950   1.203   6.287   0.931  1.0292 -0.1798  3.0281
 5153TIP3    H236951   1.346   6.328   0.899  0.0528  0.3165 -0.9470
 5154TIP3   OH236952   3.036   0.262   1.544  0.7276 -0.0167  0.0852
 5154TIP3    H136953   2.980   0.284   1.470 -0.2868  0.6379  1.0378
 5154TIP3    H236954   3.103   0.204   1.507 -1.6856 -2.4025 -0.7263
 5155TIP3   OH236955   4.078   5.316  11.492 -0.2217  0.3635 -0.6898
 5155TIP3    H136956   4.113   5.396  11.452 -0.7661  0.0950 -1.7384
 5155TIP3    H236957   4.084   5.251  11.422  0.9321 -0.7153  0.4075
 5156TIP3   OH236958   5.920   6.153   1.052 -0.0332  0.4058 -0.0532
 5156TIP3    H136959   5.854   6.108   1.001  1.1347 -0.0464 -1.1902
 5156TIP3    H236960   5.993   6.091   1.057  0.4319  1.0179  0.9096
 5157TIP3   OH236961   2.014   0.321   6.423  0.2733  0.0560  0.3141
 5157TIP3    H136962   1.989   0.413   6.418 -0.7560 -0.1727  1.0286
 5157TIP3    H236963   1.935   0.277   6.453  1.0987 -0.9036  1.1218
 5158TIP3   OH236964   2.293   5.947  17.189  0.3282  0.1364  0.3839
 5158TIP3    H136965   2.275   5.892  17.265  0.8868 -0.2251  0.2609
 5158TIP3    H236966   2.330   6.028  17.225  1.7566 -0.5284  0.4323
 5159TIP3   OH236967   2.392   5.544  11.002 -0.3464  0.1735 -0.1785
 5159TIP3    H136968   2.347   5.577  10.925 -0.3853 -1.2908 -0.8033
 5159TIP3    H236969   2.330   5.482  11.041 -0.1357  0.5411  0.7539
 5160TIP3   OH236970   3.121   5.609  10.960  0.0103  0.2787  0.1886
 5160TIP3    H136971   3.032   5.632  10.984 -0.8301 -1.8847 -0.7070
 5160TIP3    H236972   3.135   5.650  10.874 -0.4023 -0.0415 -0.0302
 5161TIP3   OH236973   4.262   6.443   6.245 -0.1999  0.2408 -0.4623
 5161TIP3    H136974   4.212   6.364   6.223 -0.5754 -0.1100  1.5647
 5161TIP3    H236975   4.208   6.489   6.309  1.6962  0.2266  1.1989
 5162TIP3   OH236976   0.396   5.070  11.116 -0.5403 -0.1781  0.0191
 5162TIP3    H136977   0.338   5.122  11.060 -0.3992  0.2982  0.3174
 5162TIP3    H236978   0.448   5.134  11.164  0.5613 -0.6121 -0.5856
 5163TIP3   OH236979   6.621   5.011  12.799  0.2330  0.0577  0.0537
 5163TIP3    H136980   6.578   5.072  12.739 -0.1741 -1.1213 -0.8597
 5163TIP3    H236981   6.659   4.944  12.742  1.0844 -0.2926  1.0210
 5164TIP3   OH236982   2.161   0.747  11.938  0.1888 -0.3066 -0.3073
 5164TIP3    H136983   2.093   0.680  11.935  1.0004 -1.2054  1.0571
 5164TIP3    H236984   2.119   0.825  11.901 -0.9921 -1.3381 -1.1945
 5165TIP3   OH236985   1.032   4.712   1.126  0.0322 -0.6104  0.1051
 5165TIP3    H136986   0.939   4.729   1.118  0.3152  0.7094 -0.5546
 5165TIP3    H236987   1.051   4.724   1.219 -0.4229 -0.7341  0.2136
 5166TIP3   OH236988   0.680   0.758  13.315 -0.7198 -0.2798 -0.3626
 5166TIP3    H136989   0.766   0.783  13.349 -0.6080 -0.4878 -0.4877
 5166TIP3    H236990   0.620   0.772  13.388 -0.5129 -0.5385 -0.1412
 5167TIP3   OH236991   5.321   6.397   0.168  0.4923 -0.6134 -0.1314
 5167TIP3    H136992   5.405   6.410   0.214 -0.1206  1.8040  0.3662
 5167TIP3    H236993   5.345   6.387   0.076  1.2486  1.7498 -0.2251
 5168TIP3   OH236994   4.898   2.491  10.949  0.6063 -0.6688 -0.5387
 5168TIP3    H136995   4.976   2.436  10.949  0.2077 -1.2413 -0.5060
 5168TIP3    H236996   4.890   2.520  11.040  2.3161  1.6250 -1.0528
 5169TIP3   OH236997   2.793   0.146   1.155 -0.0475  0.1513 -0.2925
 5169TIP3    H136998   2.763   0.138   1.065 -0.9663  1.3619 -0.1137
 5169TIP3    H236999   2.724   0.106   1.208 -0.1082  0.5561 -0.0566
 5170TIP3   OH237000   2.403   0.199   5.465  0.7935  0.5217  0.0787
 5170TIP3    H137001   2.457   0.145   5.407  0.7236  0.2739  0.2394
 5170TIP3    H237002   2.351   0.135   5.514  2.1868  0.6355  1.7468
 5171TIP3   OH237003   2.042   6.376   4.218 -0.2442 -0.0341 -0.5348
 5171TIP3    H137004   2.002   6.299   4.177 -0.7461 -0.2402  0.3229
 5171TIP3    H237005   2.121   6.392   4.167 -0.6407 -0.5341 -1.3222
 5172TIP3   OH237006   3.939   1.841   1.821 -0.0042  0.4781 -0.2087
 5172TIP3    H137007   3.892   1.850   1.904 -0.1925 -1.6068 -0.0713
 5172TIP3    H237008   4.031   1.857   1.843  0.2376 -2.0554  0.8457
 5173TIP3   OH237009   3.334   6.153   4.921  0.0112  0.1990  0.6202
 5173TIP3    H137010   3.362   6.218   4.987  0.1781  1.0731 -0.3026
 5173TIP3    H237011   3.349   6.196   4.837  0.6605 -1.2626 -0.0260
 5174TIP3   OH237012   5.230   2.873  16.954  0.2214 -0.6469 -0.3275
 5174TIP3    H137013   5.207   2.813  16.883  1.0220 -0.9311 -0.3439
 5174TIP3    H237014   5.301   2.829  17.001  0.8842  0.3314 -0.3991
 5175TIP3   OH237015   1.015   6.667  10.827  0.2904 -0.5045  0.2780
 5175TIP3    H137016   1.054   6.626  10.905  1.4839 -0.0018 -0.0536
 5175TIP3    H237017   0.925   6.633  10.825  0.6794 -1.6057  1.0928
 5176TIP3   OH237018   3.411   0.116  15.125 -0.6791  1.3392 -0.0964
 5176TIP3    H137019   3.444   0.194  15.170 -0.9224  1.5881 -0.3450
 5176TIP3    H237020   3.404   0.143  15.033  2.0162  0.1516 -0.7128
 5177TIP3   OH237021   1.776   1.314  15.014 -0.2055 -0.0316  0.5264
 5177TIP3    H137022   1.736   1.358  14.940 -0.2733 -1.8799 -0.5500
 5177TIP3    H237023   1.851   1.369  15.037 -0.1921  0.5461 -0.9063
 5178TIP3   OH237024   5.197   5.110   4.826 -0.3780  0.0919  0.4589
 5178TIP3    H137025   5.196   5.186   4.885 -1.1871  0.6436 -0.2495
 5178TIP3    H237026   5.105   5.095   4.806 -0.0907  0.1534 -0.9709
 5179TIP3   OH237027   5.057   2.070   5.754 -0.0515 -0.1476 -0.1826
 5179TIP3    H137028   4.966   2.056   5.781 -0.6954 -1.6571 -2.8648
 5179TIP3    H237029   5.075   2.162   5.775 -2.7270  0.6147 -0.9868
 5180TIP3   OH237030   6.279   5.963   5.273  0.3584  0.2745  0.6044
 5180TIP3    H137031   6.361   5.939   5.317  0.3407 -0.2386  0.3621
 5180TIP3    H237032   6.245   6.036   5.324  0.1316 -0.5794  1.6851
 5181TIP3   OH237033   1.461   1.899  17.122 -0.1724 -0.2258  0.4829
 5181TIP3    H137034   1.551   1.926  17.102 -0.6434  1.1844  0.1478
 5181TIP3    H237035   1.433   1.851  17.044 -0.3410  1.0062 -0.2373
 5182TIP3   OH237036   4.203   3.869  13.703  0.2168  0.1141 -0.0966
 5182TIP3    H137037   4.126   3.822  13.671  1.0470 -1.3240 -0.0031
 5182TIP3    H237038   4.206   3.948  13.648 -0.6198 -0.4148 -0.9341
 5183TIP3   OH237039   4.430   2.542   1.580 -0.1082 -0.0974  0.4436
 5183TIP3    H137040   4.394   2.623   1.543  0.8786 -0.3582 -1.1271
 5183TIP3    H237041   4.430   2.480   1.507 -0.3338 -1.3577  1.4880
 5184TIP3   OH237042   1.069   0.278   1.867  0.1033  0.5475  0.0935
 5184TIP3    H137043   1.016   0.267   1.788  1.4175  2.9284 -1.1488
 5184TIP3    H237044   1.156   0.245   1.843  0.8740  2.5369  0.1016
 5185TIP3   OH237045   4.824   0.345   0.388 -0.3676 -0.1036  0.1627
 5185TIP3    H137046   4.899   0.288   0.372  0.1257  0.6022 -0.0452
 5185TIP3    H237047   4.819   0.351   0.484 -1.6360 -2.0884  0.2510
 5186TIP3   OH237048   4.118   4.468   4.439  0.0621  0.0963 -0.1982
 5186TIP3    H137049   4.179   4.403   4.474  0.1140  0.8273  1.0839
 5186TIP3    H237050   4.033   4.445   4.477 -0.0997  0.2533 -0.4595
 5187TIP3   OH237051   4.644   3.839   0.118 -0.0626 -0.3022 -0.0462
 5187TIP3    H137052   4.552   3.818   0.135 -0.4983  1.3165 -0.2455
 5187TIP3    H237053   4.668   3.900   0.188  0.4979  0.1836 -0.6502
 5188TIP3   OH237054   1.038   1.189  11.203 -0.5608  0.1307  0.0671
 5188TIP3    H137055   0.958   1.153  11.164  0.0779  1.3861 -2.4918
 5188TIP3    H237056   1.079   1.240  11.133  1.7547  0.7107  1.7603
 5189TIP3   OH237057   5.405   0.055  12.977 -0.3934  0.3194  0.0832
 5189TIP3    H137058   5.311   0.047  12.962 -0.3032  0.5319 -0.5882
 5189TIP3    H237059   5.445   0.029  12.894  0.0592  3.1944 -0.6463
 5190TIP3   OH237060   5.600   6.197  16.600 -0.1927  0.3026  1.0508
 5190TIP3    H137061   5.555   6.184  16.684  0.9773  1.4724  1.8847
 5190TIP3    H237062   5.600   6.292  16.588 -3.3895  0.0108 -2.0007
 5191TIP3   OH237063   1.645   4.393  14.434 -0.3392  0.4334 -0.0016
 5191TIP3    H137064   1.692   4.338  14.372  1.8658  0.2469  1.7362
 5191TIP3    H237065   1.709   4.461  14.459 -1.1687  0.5237  1.9742
 5192TIP3   OH237066   3.199   5.072   1.170 -0.0372  0.1178  0.4200
 5192TIP3    H137067   3.156   5.058   1.086  1.1643 -1.0305 -0.0379
 5192TIP3    H237068   3.165   5.155   1.202 -1.2427  0.0781 -0.7458
 5193TIP3   OH237069   1.552   4.955  16.672  0.2095  0.0003 -0.0068
 5193TIP3    H137070   1.555   5.016  16.598  0.1089 -0.2756 -0.2398
 5193TIP3    H237071   1.494   4.997  16.735 -0.4245 -0.1862 -0.4618
 5194TIP3   OH237072   1.672   0.771  11.488 -0.1014 -0.1034 -0.2417
 5194TIP3    H137073   1.646   0.816  11.569  0.2465  0.5112 -0.4716
 5194TIP3    H237074   1.670   0.838  11.421 -0.6810 -0.6812 -0.8131
 5195TIP3   OH237075   1.420   2.058   2.505 -0.0463 -0.2978  0.3014
 5195TIP3    H137076   1.367   2.127   2.465 -0.4319 -0.4947  0.4709
 5195TIP3    H237077   1.376   1.977   2.479  1.6085 -0.6107 -1.7107
 5196TIP3   OH237078   4.277   3.564   2.141 -0.1539  0.2554  0.8746
 5196TIP3    H137079   4.318   3.490   2.186  1.7339  0.7591  0.0231
 5196TIP3    H237080   4.351   3.616   2.108 -1.4639  0.2744 -2.2016
 5197TIP3   OH237081   2.881   5.292  14.131  0.1037  0.0283  0.5160
 5197TIP3    H137082   2.854   5.281  14.040 -0.6002  0.7751  0.6316
 5197TIP3    H237083   2.799   5.299  14.180  0.4678 -1.0656  1.3074
 5198TIP3   OH237084   4.048   5.808  15.176 -0.0146 -0.1505 -0.9615
 5198TIP3    H137085   4.141   5.807  15.200  0.0384 -0.4809 -1.1785
 5198TIP3    H237086   4.002   5.784  15.256  0.0188  1.1432 -0.5510
 5199TIP3   OH237087   2.988   2.264   4.083  0.5812 -0.5134  1.2319
 5199TIP3    H137088   3.018   2.302   4.000 -0.9844 -0.3744  0.7097
 5199TIP3    H237089   2.934   2.331   4.122 -0.4607 -1.3935  1.3248
 5200TIP3   OH237090   3.082   0.701   3.753  0.2085 -0.6146  0.1158
 5200TIP3    H137091   3.175   0.679   3.751  0.4811  0.5452 -1.0768
 5200TIP3    H237092   3.043   0.648   3.684 -0.0505 -1.1693  0.6763
 5201TIP3   OH237093   4.042   3.797   4.783 -0.3779  0.5233 -0.0679
 5201TIP3    H137094   3.950   3.773   4.792 -0.4894  0.8625 -0.2579
 5201TIP3    H237095   4.073   3.809   4.873 -0.6628  0.9229 -0.0198
 5202TIP3   OH237096   1.843   3.015   0.133  0.2484  0.2746 -0.0290
 5202TIP3    H137097   1.931   3.025   0.170  0.7871 -0.5097 -1.0428
 5202TIP3    H237098   1.835   3.087   0.071  0.9731 -0.8144 -1.4102
 5203TIP3   OH237099   3.732   6.765  15.814 -0.1884 -0.6201 -0.0780
 5203TIP3    H137100   3.742   6.750  15.908  0.3423  0.4159  0.0328
 5203TIP3    H237101   3.683   6.689  15.783 -1.0583 -0.5783  1.1593
 5204TIP3   OH237102   3.280   0.998   2.359  0.0929 -0.2986  0.1479
 5204TIP3    H137103   3.207   1.055   2.385  2.5006  2.1811  1.7383
 5204TIP3    H237104   3.320   1.044   2.285  1.4487 -0.4203  0.7911
 5205TIP3   OH237105   0.299   4.501  13.618  0.5705  0.1839  0.5122
 5205TIP3    H137106   0.383   4.462  13.642  0.6209 -0.4025 -0.5983
 5205TIP3    H237107   0.269   4.449  13.544 -0.9506  0.1543  1.1430
 5206TIP3   OH237108   1.716   6.787   1.295  0.3920  0.1151  0.3301
 5206TIP3    H137109   1.806   6.819   1.307 -0.5933  2.4459  2.0226
 5206TIP3    H237110   1.697   6.804   1.203  0.8307  2.0135  0.5697
 5207TIP3   OH237111   2.823   1.026  11.403  0.0935  0.1635 -0.1161
 5207TIP3    H137112   2.788   0.992  11.485  0.9479  0.0999  0.2298
 5207TIP3    H237113   2.759   0.999  11.337 -0.1650 -0.5337  0.4068
 5208TIP3   OH237114   3.988   5.555  12.378  0.2476 -0.2110  0.0994
 5208TIP3    H137115   4.082   5.556  12.394  0.6085  0.9259 -1.9146
 5208TIP3    H237116   3.965   5.646  12.363 -1.2178 -0.4642  0.6684
 5209TIP3   OH237117   3.456   0.204  12.918  0.0069 -0.3036  0.3576
 5209TIP3    H137118   3.545   0.191  12.951  0.4491  3.5954  0.9452
 5209TIP3    H237119   3.401   0.201  12.997 -0.3141 -2.0081  0.0787
 5210TIP3   OH237120   3.528   4.803  13.252  0.1653  0.2933  0.0687
 5210TIP3    H137121   3.433   4.792  13.261  0.2390 -0.3478  0.0503
 5210TIP3    H237122   3.538   4.893  13.220 -0.4498  0.2517 -0.2571
 5211TIP3   OH237123   6.130   4.836   4.561  0.4393 -0.5501 -0.3704
 5211TIP3    H137124   6.105   4.873   4.646 -3.0333 -1.2376 -1.0352
 5211TIP3    H237125   6.140   4.912   4.504  0.2308 -0.2434 -0.0008
 5212TIP3   OH237126   4.022   0.926   2.541  1.0593  0.0600 -0.3143
 5212TIP3    H137127   4.097   0.944   2.597  0.6701 -0.1275  0.2696
 5212TIP3    H237128   3.989   0.842   2.571  0.3902  0.3165 -0.3147
 5213TIP3   OH237129   1.997   0.090  14.831  0.2185 -0.3448 -0.1395
 5213TIP3    H137130   1.911   0.131  14.824  0.9482  1.2641  0.1539
 5213TIP3    H237131   2.026   0.082  14.740 -0.0380 -0.4401 -0.2142
 5214TIP3   OH237132   0.732   5.772  14.826  0.4068  0.0817 -0.4379
 5214TIP3    H137133   0.776   5.702  14.778  1.3326  0.9458 -0.8492
 5214TIP3    H237134   0.649   5.733  14.854  1.3951 -1.5368  0.2922
 5215TIP3   OH237135   3.365   5.090  12.002  0.4643 -0.1907  0.2540
 5215TIP3    H137136   3.339   5.122  11.916 -1.3776  1.5269  1.4243
 5215TIP3    H237137   3.380   5.169  12.054  5.8485 -1.0824  0.3727
 5216TIP3   OH237138   3.002   2.046  13.703 -0.0833  0.4965  0.3307
 5216TIP3    H137139   2.942   2.118  13.683  1.5984  1.5862 -0.9993
 5216TIP3    H237140   3.025   2.060  13.795 -1.5275  0.3117  0.7270
 5217TIP3   OH237141   2.664   1.706  16.152  0.5447  0.2490  0.0115
 5217TIP3    H137142   2.745   1.758  16.158  1.5573 -1.4562  1.5773
 5217TIP3    H237143   2.670   1.664  16.066  1.2317  0.2947  0.0267
 5218TIP3   OH237144   5.346   2.302   5.907  0.2148  0.2433  0.3583
 5218TIP3    H137145   5.415   2.366   5.890 -1.4270  2.1099  0.5722
 5218TIP3    H237146   5.293   2.302   5.827  1.5418 -2.6509 -0.6000
 5219TIP3   OH237147   3.778   1.914  13.181 -0.1103 -0.1005 -0.1872
 5219TIP3    H137148   3.710   1.961  13.230 -0.5940 -1.7243  0.7141
 5219TIP3    H237149   3.751   1.923  13.089 -0.7649  0.4857  0.0522
 5220TIP3   OH237150   2.343   5.170   2.743 -0.3480 -0.5112 -0.0814
 5220TIP3    H137151   2.395   5.250   2.739  1.3088 -1.5027  1.0154
 5220TIP3    H237152   2.407   5.099   2.743 -1.8134 -1.8612 -1.4321
 5221TIP3   OH237153   4.750   3.576  15.251  0.3006 -0.1385  0.1349
 5221TIP3    H137154   4.657   3.569  15.229  0.2142 -0.2444  0.5419
 5221TIP3    H237155   4.760   3.666  15.284  0.3403 -0.1354  0.1152
 5222TIP3   OH237156   1.649   3.038  12.703 -0.4718  0.8262 -0.9179
 5222TIP3    H137157   1.709   3.093  12.652  1.9553 -1.4747 -0.6901
 5222TIP3    H237158   1.615   3.096  12.771  1.7390  2.1615 -0.8975
 5223TIP3   OH237159   6.228   6.762  15.069 -0.3179 -0.4484  0.3656
 5223TIP3    H137160   6.306   6.763  15.014  1.5112  1.4843  2.8858
 5223TIP3    H237161   6.244   6.691  15.132 -0.3480  0.2475  1.1731
 5224TIP3   OH237162   2.658   2.569   4.147 -0.3169 -0.3096 -0.3520
 5224TIP3    H137163   2.580   2.517   4.128 -0.1955 -0.0564 -1.5923
 5224TIP3    H237164   2.702   2.523   4.218 -1.6816 -0.3658  0.4685
 5225TIP3   OH237165   2.624   4.168  15.901 -0.1014 -0.2560 -0.2461
 5225TIP3    H137166   2.703   4.223  15.901 -0.4511  0.2515 -0.7726
 5225TIP3    H237167   2.575   4.197  15.977  0.1873 -0.5239  0.0433
 5226TIP3   OH237168   5.108   3.491  16.936 -0.2722  0.1796  0.1958
 5226TIP3    H137169   5.110   3.546  16.857 -1.4873  0.3449  0.2636
 5226TIP3    H237170   5.197   3.493  16.969  0.4390 -0.5499 -1.6200
 5227TIP3   OH237171   2.112   5.229   1.439  0.6120 -0.3072  0.5379
 5227TIP3    H137172   2.033   5.196   1.396  1.6189 -0.0297 -1.5772
 5227TIP3    H237173   2.100   5.324   1.440 -0.4013 -0.4127  2.9159
 5228TIP3   OH237174   5.967   3.033  15.083 -0.1539 -0.0569  0.8339
 5228TIP3    H137175   5.892   2.980  15.054  0.3301 -0.1167 -0.3405
 5228TIP3    H237176   5.944   3.122  15.057  0.0728 -0.0386  0.7007
 5229TIP3   OH237177   3.531   4.489   5.635 -0.2627  0.5906  0.4229
 5229TIP3    H137178   3.616   4.453   5.661 -0.1384 -1.8336 -3.0246
 5229TIP3    H237179   3.467   4.430   5.675 -0.1739 -0.3139 -0.7299
 5230TIP3   OH237180   4.875   3.227   2.925 -0.0135 -0.0029 -0.0127
 5230TIP3    H137181   4.794   3.278   2.934 -0.7226 -1.2155  0.6531
 5230TIP3    H237182   4.921   3.267   2.851 -2.5030 -1.0398 -2.1693
 5231TIP3   OH237183   4.745   6.526   4.087 -0.3749  0.0385  0.4101
 5231TIP3    H137184   4.799   6.463   4.135  0.6311 -0.1542 -0.9752
 5231TIP3    H237185   4.658   6.484   4.083 -0.1528 -0.4878  0.9827
 5232TIP3   OH237186   0.060   4.265  15.386  0.6095  0.1082 -0.2716
 5232TIP3    H137187   0.042   4.205  15.459 -0.6421 -0.2393 -0.8366
 5232TIP3    H237188  -0.003   4.238  15.318  1.9094  0.2696 -1.5609
 5233TIP3   OH237189   1.172   0.478   2.384 -0.4799 -0.0346  0.0418
 5233TIP3    H137190   1.183   0.499   2.291 -2.4404  0.7452 -0.0359
 5233TIP3    H237191   1.081   0.449   2.391 -0.2002 -0.5626  1.6440
 5234TIP3   OH237192   6.518   1.881  17.161  0.1238 -0.1237 -0.2158
 5234TIP3    H137193   6.547   1.811  17.219 -0.2079  0.8017  1.1109
 5234TIP3    H237194   6.434   1.909  17.197  0.8815  1.8580  0.1156
 5235TIP3   OH237195   5.644   6.120  14.902 -0.2102  0.5022  0.0526
 5235TIP3    H137196   5.575   6.185  14.912 -2.4320 -1.5403 -1.2976
 5235TIP3    H237197   5.709   6.160  14.844 -0.3289  2.3925  1.2168
 5236TIP3   OH237198   3.226   0.628   5.311  0.4932 -0.1270 -0.4757
 5236TIP3    H137199   3.154   0.621   5.373  0.4825 -0.8197 -0.5540
 5236TIP3    H237200   3.305   0.626   5.365  0.4523  0.8982 -0.3706
 5237TIP3   OH237201   4.457   3.650   1.548  0.4175  0.5512  0.1700
 5237TIP3    H137202   4.529   3.644   1.611 -0.3440 -0.9717  0.9191
 5237TIP3    H237203   4.397   3.714   1.587 -0.9972 -1.7797  2.0443
 5238TIP3   OH237204   4.113   3.494   4.980  0.0011  0.2872 -0.1947
 5238TIP3    H137205   4.102   3.428   4.911  0.0420 -0.5637  0.5984
 5238TIP3    H237206   4.193   3.541   4.955 -0.3236  0.3940 -1.0513
 5239TIP3   OH237207   0.433   6.250   1.939 -0.2615 -0.1033 -1.0446
 5239TIP3    H137208   0.477   6.335   1.937  2.3326 -1.3828 -0.5030
 5239TIP3    H237209   0.485   6.198   1.999 -2.3184 -1.8337 -0.7207
 5240TIP3   OH237210   6.419   4.674  13.304  0.0517 -0.2078  0.6097
 5240TIP3    H137211   6.354   4.716  13.247  0.3243  0.9609  1.1490
 5240TIP3    H237212   6.490   4.650  13.244 -0.8474 -1.4643  0.0244
 5241TIP3   OH237213   2.695   3.361  13.903  0.3595 -0.3468  0.6220
 5241TIP3    H137214   2.775   3.350  13.853  0.5819  1.6520  0.5078
 5241TIP3    H237215   2.708   3.308  13.982  0.5696 -2.3808 -0.7251
 5242TIP3   OH237216   1.745   4.045   0.398  0.3869 -0.9053  0.5411
 5242TIP3    H137217   1.691   4.042   0.319  0.6815 -2.4630  0.3923
 5242TIP3    H237218   1.834   4.054   0.366  0.4108 -0.4487  0.7298
 5243TIP3   OH237219   2.881   4.750  16.778 -0.7607 -0.2662  0.0307
 5243TIP3    H137220   2.801   4.697  16.786 -0.6513 -1.0124 -3.1695
 5243TIP3    H237221   2.857   4.821  16.719  0.4037  0.6422  0.6306
 5244TIP3   OH237222   5.949   3.049  15.627 -0.0355  0.2526  0.9166
 5244TIP3    H137223   5.893   2.984  15.585  1.2455 -0.4077  0.1899
 5244TIP3    H237224   5.889   3.107  15.673 -1.1998 -1.4572  1.5886
 5245TIP3   OH237225   5.170   6.122  14.219  0.2592 -0.1225  0.0877
 5245TIP3    H137226   5.201   6.171  14.295  0.5895 -2.1208  1.2957
 5245TIP3    H237227   5.199   6.172  14.144  0.6453  1.4706  1.2821
 5246TIP3   OH237228   1.199   6.725  13.643 -0.7298 -0.3100  0.0779
 5246TIP3    H137229   1.294   6.724  13.652 -0.6102 -0.6319 -1.1547
 5246TIP3    H237230   1.170   6.646  13.690 -0.4045 -0.1116  0.6144
 5247TIP3   OH237231   6.056   5.288   4.581  0.4504  0.0315  0.3554
 5247TIP3    H137232   6.067   5.283   4.676  0.6467  1.3223  0.4071
 5247TIP3    H237233   6.012   5.206   4.558 -0.9370  0.3502  1.7545
 5248TIP3   OH237234   0.623   0.529  11.947  0.1783 -0.0965  0.4289
 5248TIP3    H137235   0.697   0.481  11.911  0.4907  1.8914 -1.7272
 5248TIP3    H237236   0.636   0.619  11.917 -3.1892  0.2821 -0.1854
 5249TIP3   OH237237   1.815   3.673   2.311 -0.2582  0.0373  0.2364
 5249TIP3    H137238   1.810   3.627   2.395 -0.5735 -0.6775 -0.1704
 5249TIP3    H237239   1.783   3.609   2.247 -1.0489  0.9558 -0.2859
 5250TIP3   OH237240   4.444   5.618   3.358 -0.0099  0.0155 -0.2161
 5250TIP3    H137241   4.436   5.560   3.283  1.3654  0.9984 -1.1521
 5250TIP3    H237242   4.503   5.573   3.418 -0.0892 -0.2055 -0.3048
 5251TIP3   OH237243   4.310   5.257  16.489 -0.0036 -0.3674  0.1587
 5251TIP3    H137244   4.307   5.162  16.484 -0.8750 -0.2500 -1.7733
 5251TIP3    H237245   4.354   5.285  16.409 -0.2452  0.8713  0.4436
 5252TIP3   OH237246   1.396   4.216  12.630  0.5069 -0.1401 -0.5394
 5252TIP3    H137247   1.411   4.127  12.598 -1.5967 -0.6082 -0.2978
 5252TIP3    H237248   1.376   4.266  12.551  0.9961 -0.0231 -0.5919
 5253TIP3   OH237249   2.417   2.161   6.358  0.2998  0.1291 -0.4442
 5253TIP3    H137250   2.375   2.081   6.329  1.7352 -0.1179 -1.8832
 5253TIP3    H237251   2.364   2.190   6.433 -0.9478 -1.4750 -0.6822
 5254TIP3   OH237252   3.555   3.772  13.022 -0.2118  0.0553 -0.0175
 5254TIP3    H137253   3.567   3.728  12.938  0.0207 -0.6508  0.3876
 5254TIP3    H237254   3.621   3.841  13.022  0.3625 -0.4918 -0.0460
 5255TIP3   OH237255   5.168   1.569  13.589  0.0438 -0.1625 -0.0456
 5255TIP3    H137256   5.182   1.629  13.515 -0.6249  0.6960  0.5120
 5255TIP3    H237257   5.250   1.521  13.596  0.6346  0.7584 -0.4475
 5256TIP3   OH237258   6.312   3.200  12.007 -0.4118 -0.2687  0.0022
 5256TIP3    H137259   6.306   3.260  12.081  1.0494 -1.6253  1.2571
 5256TIP3    H237260   6.321   3.257  11.930 -1.2460  1.1349  0.9354
 5257TIP3   OH237261   0.770   1.649  12.440  0.2654 -0.3133  0.4066
 5257TIP3    H137262   0.739   1.625  12.527 -0.2077  1.1134  0.6441
 5257TIP3    H237263   0.695   1.630  12.383 -0.2252  0.9121  0.6411
 5258TIP3   OH237264   0.164   5.623   5.301  0.9468  0.6042 -0.3104
 5258TIP3    H137265   0.107   5.608   5.377  2.5790  1.0713  1.0226
 5258TIP3    H237266   0.135   5.708   5.266  1.0651  1.0115  0.5713
 5259TIP3   OH237267   0.344   2.780   4.810  0.0495 -0.4286 -0.6265
 5259TIP3    H137268   0.297   2.809   4.732 -0.5049  0.1893 -0.0685
 5259TIP3    H237269   0.338   2.854   4.871  2.6067  0.0681 -0.9058
 5260TIP3   OH237270   0.698   4.053  16.747  0.5698  0.4057 -0.1476
 5260TIP3    H137271   0.714   4.004  16.666 -0.1856  1.0416 -0.6988
 5260TIP3    H237272   0.616   4.100  16.730 -0.5413 -0.8243  1.6522
 5261TIP3   OH237273   0.853   6.265   0.635  0.3479 -0.8187  0.4764
 5261TIP3    H137274   0.773   6.296   0.593  0.3231  0.9175  1.7384
 5261TIP3    H237275   0.919   6.269   0.566 -0.1272  0.1449  0.0614
 5262TIP3   OH237276   6.045   2.171   3.991  0.0423 -0.4747 -0.2664
 5262TIP3    H137277   6.084   2.193   3.906 -0.7268  2.9480  0.1795
 5262TIP3    H237278   6.119   2.162   4.050  0.5007 -1.1252 -0.9371
 5263TIP3   OH237279   4.641   0.315   3.774  0.5202  0.3317  0.2347
 5263TIP3    H137280   4.589   0.313   3.694 -1.0475  1.5693  1.1863
 5263TIP3    H237281   4.636   0.406   3.803  0.9573 -0.1389  1.8181
 5264TIP3   OH237282   0.211   5.513   0.911  0.1631 -0.3462 -0.3904
 5264TIP3    H137283   0.270   5.561   0.853  0.5493  0.5489  0.7105
 5264TIP3    H237284   0.127   5.514   0.866  0.4595  0.3398 -0.9432
 5265TIP3   OH237285   3.751   5.773   0.656  0.5653 -0.6286 -0.0491
 5265TIP3    H137286   3.771   5.858   0.618  0.5051 -1.2609 -1.5211
 5265TIP3    H237287   3.803   5.770   0.736  0.5602  0.7884  0.0219
 5266TIP3   OH237288   0.511   2.112  12.939 -0.2625  0.1036  0.1086
 5266TIP3    H137289   0.539   2.194  12.898 -0.5697  0.6565  0.9944
 5266TIP3    H237290   0.590   2.078  12.981 -0.5401  0.8783  1.2871
 5267TIP3   OH237291   0.353   0.002  14.559 -0.2786 -0.1979  0.0199
 5267TIP3    H137292   0.405   0.026  14.636 -0.5754  0.7339 -0.0554
 5267TIP3    H237293   0.311   0.084  14.533  0.3441 -0.3557 -1.5272
 5268TIP3   OH237294   3.202   2.623  13.280 -0.0195 -0.1788 -0.0341
 5268TIP3    H137295   3.288   2.584  13.270 -1.7149 -3.9527 -0.8330
 5268TIP3    H237296   3.164   2.580  13.357 -1.6121  0.5437 -0.3875
 5269TIP3   OH237297   2.277   1.927  17.076  0.2119 -0.1434  0.0927
 5269TIP3    H137298   2.262   1.878  17.157 -1.2541  1.4836  0.8539
 5269TIP3    H237299   2.368   1.958  17.084  0.0487  0.0901  1.1890
 5270TIP3   OH237300   3.197   1.560   2.682 -0.1957 -0.3649 -0.0747
 5270TIP3    H137301   3.200   1.636   2.741 -0.8448 -0.8774  0.6293
 5270TIP3    H237302   3.289   1.535   2.670  0.0712  0.9434 -0.8608
 5271TIP3   OH237303   4.873   5.490  12.098  0.1332 -0.0953 -0.8705
 5271TIP3    H137304   4.829   5.478  12.014 -0.3714  0.1075 -0.6351
 5271TIP3    H237305   4.812   5.542  12.150  0.2684 -0.5777 -0.2309
 5272TIP3   OH237306   5.414   4.359   5.022  0.2968 -0.4211 -0.1411
 5272TIP3    H137307   5.499   4.346   4.980  0.0388 -1.0140 -0.4958
 5272TIP3    H237308   5.361   4.285   4.991 -0.6597  0.5023 -0.7417
 5273TIP3   OH237309   5.942   4.875   3.304 -0.5769  0.2370 -0.4436
 5273TIP3    H137310   5.876   4.942   3.321 -0.3703  0.5042 -0.7151
 5273TIP3    H237311   5.894   4.792   3.310 -0.8413  0.4103 -0.1718
 5274TIP3   OH237312   3.390   2.900   5.281 -0.5834  0.0772  0.3220
 5274TIP3    H137313   3.388   2.856   5.196  0.1222  2.9821 -1.2538
 5274TIP3    H237314   3.330   2.849   5.335 -0.3481 -2.3748 -1.6319
 5275TIP3   OH237315   6.242   1.263  11.196  0.0984 -0.0923  0.7487
 5275TIP3    H137316   6.226   1.171  11.217  0.3576 -1.0689 -2.8479
 5275TIP3    H237317   6.335   1.276  11.214  0.4295 -1.0225 -0.2249
 5276TIP3   OH237318   2.718   5.228   5.922  0.4662  0.0819  0.4796
 5276TIP3    H137319   2.726   5.138   5.890 -0.4109  0.9372 -2.2193
 5276TIP3    H237320   2.808   5.255   5.940  0.7485 -1.2612  1.1539
 5277TIP3   OH237321   1.994   0.791  11.538  0.1212  0.3922  0.2091
 5277TIP3    H137322   1.909   0.749  11.548 -0.3457  1.7767  2.4532
 5277TIP3    H237323   2.058   0.721  11.551 -0.6334 -0.7100 -1.7719
 5278TIP3   OH237324   0.170   5.787   2.455 -0.0241  0.1866  0.4251
 5278TIP3    H137325   0.129   5.716   2.406  1.3829 -0.6864  0.4813
 5278TIP3    H237326   0.206   5.745   2.533  0.3747  1.0458  0.7134
 5279TIP3   OH237327   2.117   0.517   4.747 -0.0762 -0.2354 -0.2883
 5279TIP3    H137328   2.179   0.448   4.771 -0.5232 -1.5090 -2.7102
 5279TIP3    H237329   2.063   0.529   4.826  1.1962 -1.3331  0.7725
 5280TIP3   OH237330   5.332   3.907  13.604  0.2108 -0.4713 -0.0426
 5280TIP3    H137331   5.250   3.946  13.571  1.2459  1.3401 -0.5555
 5280TIP3    H237332   5.397   3.977  13.594  1.3026 -1.0320  2.6910
 5281TIP3   OH237333   3.701   4.195  17.190 -0.0824  1.1896  0.2557
 5281TIP3    H137334   3.759   4.271  17.200 -1.0805  1.8740  0.8948
 5281TIP3    H237335   3.669   4.178  17.278 -1.6901  1.4728 -0.2654
 5282TIP3   OH237336   4.878   3.876  15.882  0.1740 -0.0372  0.4044
 5282TIP3    H137337   4.950   3.842  15.934  0.2235 -0.3188  0.1538
 5282TIP3    H237338   4.909   3.871  15.791  0.2171  0.7671  0.3760
 5283TIP3   OH237339   4.994   0.580  12.650  0.5009 -0.0557  0.1804
 5283TIP3    H137340   4.920   0.538  12.606  0.8042  0.7004 -1.0884
 5283TIP3    H237341   5.016   0.654  12.593  0.2403  1.5833  2.1543
 5284TIP3   OH237342   2.711   5.226   5.591  0.2293  0.2300  0.0039
 5284TIP3    H137343   2.727   5.160   5.523  1.1700  0.3010  0.1478
 5284TIP3    H237344   2.617   5.246   5.584 -0.1254 -1.3051  0.1140
 5285TIP3   OH237345   3.023   3.172  11.645 -0.2890  0.2160 -0.3967
 5285TIP3    H137346   2.984   3.095  11.604  0.7334  0.0828 -1.1335
 5285TIP3    H237347   2.979   3.178  11.730 -0.3180 -1.2367 -0.2900
 5286TIP3   OH237348   3.528   0.226   3.621  0.5129 -0.1030 -0.1718
 5286TIP3    H137349   3.585   0.285   3.572 -0.0263 -0.7042 -1.5252
 5286TIP3    H237350   3.447   0.277   3.634  0.8574  0.2592  0.5923
 5287TIP3   OH237351   3.511   2.857  13.494 -0.4702 -0.0872  0.3035
 5287TIP3    H137352   3.467   2.808  13.424  0.5702 -1.3994  0.5488
 5287TIP3    H237353   3.583   2.903  13.450 -0.8650  0.4654  0.2322
 5288TIP3   OH237354   4.656   6.763  13.539 -0.5774  0.0061 -0.3013
 5288TIP3    H137355   4.731   6.703  13.543 -0.9314 -0.4365 -0.2388
 5288TIP3    H237356   4.635   6.769  13.446  0.1161  0.8593 -0.4036
 5289TIP3   OH237357   0.075   3.726  16.664  0.3220 -0.1783 -0.1503
 5289TIP3    H137358   0.009   3.699  16.728  1.5737 -1.4294  0.6419
 5289TIP3    H237359   0.144   3.660  16.672  1.1224  0.4396 -1.8167
 5290TIP3   OH237360   4.686   2.527  13.645 -0.1729 -0.1230  0.1137
 5290TIP3    H137361   4.757   2.561  13.591  0.2952  0.3215  1.0018
 5290TIP3    H237362   4.729   2.471  13.709 -0.7021 -0.4618  0.1741
 5291TIP3   OH237363   0.375   1.617   3.991 -0.6348 -1.2866  0.0374
 5291TIP3    H137364   0.287   1.632   3.957 -0.8082 -0.9712  0.6239
 5291TIP3    H237365   0.375   1.657   4.077  0.6227  0.2372 -0.6402
 5292TIP3   OH237366   4.219   5.394   4.571  0.2945  0.2098  0.2746
 5292TIP3    H137367   4.312   5.413   4.557  0.4901 -0.9150  0.0525
 5292TIP3    H237368   4.202   5.315   4.521 -0.7168  0.2377  0.5584
 5293TIP3   OH237369   3.921   1.630   0.892  0.0746 -0.1440 -0.6433
 5293TIP3    H137370   3.898   1.690   0.963  1.5904  0.8046 -0.9141
 5293TIP3    H237371   3.853   1.564   0.893 -2.0933  2.0039 -0.8284
 5294TIP3   OH237372   0.836   3.251  13.794 -0.2231  0.4395  0.3077
 5294TIP3    H137373   0.849   3.166  13.836 -1.0140 -0.2011 -0.7120
 5294TIP3    H237374   0.743   3.254  13.772  0.3411  0.2936 -2.3033
 5295TIP3   OH237375   4.122   6.657  11.254 -0.1921 -0.9914 -0.0893
 5295TIP3    H137376   4.202   6.616  11.288  0.5437  1.4726  1.2575
 5295TIP3    H237377   4.051   6.609  11.295  0.6299 -1.3477  0.9426
 5296TIP3   OH237378   5.391   5.267  17.292 -0.2659  0.7462 -0.2965
 5296TIP3    H137379   5.368   5.244  17.382 -2.1630 -0.5937 -1.0773
 5296TIP3    H237380   5.415   5.184  17.251  1.1798  1.4295 -0.8715
 5297TIP3   OH237381   0.630   1.260  10.583  0.1282  0.2319 -0.4395
 5297TIP3    H137382   0.589   1.195  10.640 -1.8077  0.8836 -1.0377
 5297TIP3    H237383   0.677   1.318  10.644  3.6177 -2.8283 -0.0546
 5298TIP3   OH237384   1.901   0.368   3.112 -0.4349 -0.0038 -0.1634
 5298TIP3    H137385   1.921   0.458   3.085  0.5949 -0.1709  0.0035
 5298TIP3    H237386   1.962   0.351   3.183 -0.1254 -1.0860 -0.6741
 5299TIP3   OH237387   1.533   2.501   4.796 -0.2304  0.1950 -0.6162
 5299TIP3    H137388   1.530   2.407   4.812 -1.0832  0.3876  0.3636
 5299TIP3    H237389   1.491   2.540   4.872 -1.2193  1.3027 -1.7161
 5300TIP3   OH237390   0.850   2.715  13.168 -0.0275  0.4671  0.1519
 5300TIP3    H137391   0.906   2.724  13.245 -1.7376 -0.3902  1.5286
 5300TIP3    H237392   0.848   2.803  13.129  0.9433  0.8762  1.0170
 5301TIP3   OH237393   1.219   3.740   5.145  0.3115  0.0753  0.2481
 5301TIP3    H137394   1.299   3.757   5.094  1.8107  0.3960  2.6321
 5301TIP3    H237395   1.150   3.733   5.079  2.0448  1.3176 -1.7718
 5302TIP3   OH237396   0.785   1.709  16.577  0.0264  0.5872  0.3844
 5302TIP3    H137397   0.842   1.750  16.641  1.3881  0.4272 -0.7033
 5302TIP3    H237398   0.790   1.615  16.596  0.8494  0.4912 -0.2768
 5303TIP3   OH237399   2.322   0.104  15.964  0.6983  0.7153 -0.1337
 5303TIP3    H137400   2.279   0.116  16.049 -0.0432  1.9440 -0.6775
 5303TIP3    H237401   2.329   0.009  15.955 -1.5933  0.4951  0.1408
 5304TIP3   OH237402   2.401   0.037  14.214 -0.1236  0.2223 -0.0056
 5304TIP3    H137403   2.395  -0.049  14.171 -0.8258  1.2703 -2.0255
 5304TIP3    H237404   2.494   0.061  14.206 -0.3385  0.6137 -1.3210
 5305TIP3   OH237405   4.776   6.747  16.799 -0.1106  0.0970  0.5135
 5305TIP3    H137406   4.732   6.772  16.717 -0.9986 -0.1273  0.9115
 5305TIP3    H237407   4.864   6.722  16.772 -0.3851  0.0613 -0.3718
 5306TIP3   OH237408   6.678   6.165   2.008 -0.4950 -0.2975  0.6497
 5306TIP3    H137409   6.763   6.192   1.973 -0.8518  0.3444  0.2627
 5306TIP3    H237410   6.689   6.073   2.031  0.3539 -0.1730  0.7533
 5307TIP3   OH237411   0.277   2.876  12.110 -0.7220  0.3879 -0.2019
 5307TIP3    H137412   0.194   2.835  12.132 -0.8450  0.1705 -1.0530
 5307TIP3    H237413   0.254   2.966  12.084 -0.8710 -0.1341 -1.9195
 5308TIP3   OH237414   1.236   0.972  16.477  0.1419 -0.1012  0.2261
 5308TIP3    H137415   1.284   1.049  16.446  0.5341 -1.0808 -1.7213
 5308TIP3    H237416   1.272   0.900  16.426 -1.3686 -1.3145  0.8371
 5309TIP3   OH237417   1.015   1.225   4.777 -0.3392 -0.6678 -0.1858
 5309TIP3    H137418   1.048   1.139   4.803  1.4960 -0.1832 -0.8297
 5309TIP3    H237419   0.988   1.267   4.859 -0.6208 -1.5867  0.1974
 5310TIP3   OH237420   3.655   3.482  15.879 -0.9605  0.1028  0.0762
 5310TIP3    H137421   3.587   3.429  15.839 -0.8488 -0.2543  0.3536
 5310TIP3    H237422   3.661   3.560  15.823 -1.1936 -0.1285 -0.2742
 5311TIP3   OH237423   0.615   3.335  14.901  0.1557 -0.1119  0.0404
 5311TIP3    H137424   0.550   3.390  14.943  0.8929  0.7159  0.1093
 5311TIP3    H237425   0.573   3.304  14.821 -0.2872  0.4849  0.0411
 5312TIP3   OH237426   2.087   5.277  13.871  0.2976  0.1348  0.2675
 5312TIP3    H137427   2.177   5.281  13.903  0.7733  1.9426 -1.2162
 5312TIP3    H237428   2.037   5.241  13.944  2.2837 -1.2874  0.9493
 5313TIP3   OH237429   0.442   3.405   5.966  0.6706  0.3601  0.1675
 5313TIP3    H137430   0.421   3.472   5.900 -0.8462 -0.2251  0.0313
 5313TIP3    H237431   0.537   3.409   5.975  0.5492  3.0016  0.6503
 5314TIP3   OH237432   3.750   1.149  11.419 -0.0043  0.0815 -0.5807
 5314TIP3    H137433   3.754   1.138  11.514  1.7080 -0.8649 -0.7344
 5314TIP3    H237434   3.754   1.244  11.406 -2.6767  0.3678  0.3544
 5315TIP3   OH237435   6.570   3.277   1.480 -0.1340  0.0635 -0.1797
 5315TIP3    H137436   6.562   3.191   1.521  1.6627  0.1591  0.3957
 5315TIP3    H237437   6.613   3.259   1.396 -0.4543  0.3228 -0.4025
 5316TIP3   OH237438   0.219   3.434  13.157  0.1587 -0.1128  0.0244
 5316TIP3    H137439   0.195   3.419  13.066 -0.8247 -0.9409  0.4229
 5316TIP3    H237440   0.196   3.526  13.173 -2.0722 -0.6927  0.1945
 5317TIP3   OH237441   4.710   5.321   0.574  0.0162 -0.3930 -0.5446
 5317TIP3    H137442   4.619   5.312   0.547  0.0306  1.8024 -1.4243
 5317TIP3    H237443   4.709   5.304   0.668 -1.2049 -0.9291 -0.6460
 5318TIP3   OH237444   3.488   4.891   0.313  0.4994  0.1494 -0.1227
 5318TIP3    H137445   3.553   4.943   0.266  0.1644  2.9268  2.3779
 5318TIP3    H237446   3.406   4.937   0.299  0.0518 -0.1597  1.4085
 5319TIP3   OH237447   1.806   2.279   1.865 -0.1160 -0.3197 -0.3828
 5319TIP3    H137448   1.901   2.266   1.867 -0.1389 -0.3851  0.2069
 5319TIP3    H237449   1.778   2.237   1.784  0.5912  1.2265 -1.4612
 5320TIP3   OH237450   3.541   4.916  13.655 -0.3090 -0.0327 -0.4098
 5320TIP3    H137451   3.557   5.010  13.666  1.2097 -0.5680  2.3192
 5320TIP3    H237452   3.456   4.911  13.611  0.1118  2.6232 -1.6370
 5321TIP3   OH237453   0.634   2.806  15.625 -0.5921  0.3471  0.3101
 5321TIP3    H137454   0.576   2.881  15.633 -0.1147  0.6325  1.1152
 5321TIP3    H237455   0.639   2.790  15.530  0.1454  1.9965  0.0524
 5322TIP3   OH237456   5.398   0.263  13.389  0.3964  0.4876 -0.3919
 5322TIP3    H137457   5.396   0.175  13.428  2.2663  0.1462 -0.9920
 5322TIP3    H237458   5.450   0.252  13.309  0.6479  2.1351 -0.4645
 5323TIP3   OH237459   5.574   2.019   6.138 -0.2097 -0.1511 -0.2772
 5323TIP3    H137460   5.533   1.937   6.167  0.4614 -0.7370 -0.9418
 5323TIP3    H237461   5.526   2.088   6.184 -1.1603 -0.8855 -0.1506
 5324TIP3   OH237462   0.729   5.803   5.429  0.5746 -0.0020 -0.2976
 5324TIP3    H137463   0.680   5.721   5.435 -0.4943  0.6891  0.9357
 5324TIP3    H237464   0.731   5.836   5.519  1.7341  0.9022 -0.6426
 5325TIP3   OH237465   2.528   1.810   3.835  0.0046 -0.3789 -0.2240
 5325TIP3    H137466   2.597   1.812   3.901  0.0376 -2.0648 -0.1664
 5325TIP3    H237467   2.450   1.843   3.880  0.5737  0.7019 -0.0343
 5326TIP3   OH237468   3.138   0.960   5.381  0.0397  0.2066 -0.0911
 5326TIP3    H137469   3.065   0.975   5.320 -1.7164 -0.2745  1.8369
 5326TIP3    H237470   3.146   1.043   5.428  1.4962  0.6301 -1.0672
 5327TIP3   OH237471   1.887   3.052   4.403 -0.2275  0.5065 -0.2958
 5327TIP3    H137472   1.902   2.958   4.417 -0.1163  0.8136  1.7983
 5327TIP3    H237473   1.825   3.055   4.330  0.3579 -1.1612 -0.8992
 5328TIP3   OH237474   2.914   2.116  15.330 -0.5331  0.3113 -0.0724
 5328TIP3    H137475   2.910   2.194  15.275 -0.5726  0.7173  0.5051
 5328TIP3    H237476   3.005   2.112  15.359 -0.5273  0.1285 -0.1150
 5329TIP3   OH237477   3.895   5.043  15.845  0.4884  0.0094 -0.2757
 5329TIP3    H137478   3.919   5.135  15.853 -0.5917  0.4430 -1.7707
 5329TIP3    H237479   3.805   5.038  15.878  0.2453 -0.3396 -0.9670
 5330TIP3   OH237480   1.588   1.742  14.161  0.3162 -0.4711 -0.1608
 5330TIP3    H137481   1.498   1.773  14.162  0.6865  0.6166  0.3008
 5330TIP3    H237482   1.636   1.809  14.111  0.9000 -0.9268 -0.2146
 5331TIP3   OH237483   1.759   0.672   5.008 -0.1258 -0.5963  0.5236
 5331TIP3    H137484   1.743   0.656   4.915 -0.9225  2.4192  0.0741
 5331TIP3    H237485   1.682   0.636   5.052  0.3227 -2.1695  0.0507
 5332TIP3   OH237486   1.432   3.772  11.491 -0.3623  0.4894 -0.2482
 5332TIP3    H137487   1.522   3.749  11.467 -0.3340  0.4721 -0.1267
 5332TIP3    H237488   1.411   3.848  11.437 -0.0976  0.8038  0.0968
 5333TIP3   OH237489   2.315   0.836  15.859  0.3270  0.5063 -0.2185
 5333TIP3    H137490   2.320   0.927  15.888 -0.8476  0.2195  0.9431
 5333TIP3    H237491   2.226   0.809  15.881  0.7144 -0.9761 -0.4174
 5334TIP3   OH237492   0.868   6.667   3.861 -0.1945  0.1263 -0.2921
 5334TIP3    H137493   0.932   6.738   3.859  0.0556 -0.1235 -1.7558
 5334TIP3    H237494   0.917   6.591   3.892 -0.2075  0.3357  0.2482
 5335TIP3   OH237495   5.508   4.213   4.307  0.1599 -0.1953 -0.7609
 5335TIP3    H137496   5.491   4.119   4.304  0.8608 -0.3078 -1.3905
 5335TIP3    H237497   5.440   4.251   4.251  0.7912 -0.4680 -1.7217
 5336TIP3   OH237498   4.387   4.258   4.851  0.0855  0.1485 -0.1396
 5336TIP3    H137499   4.480   4.257   4.875  0.5389 -0.5753 -1.8927
 5336TIP3    H237500   4.346   4.197   4.911  0.5086  1.4398  1.5115
 5337TIP3   OH237501   6.073   6.352   1.370 -0.0070  0.0738  0.6178
 5337TIP3    H137502   6.146   6.290   1.371  0.1375  0.1553 -1.9048
 5337TIP3    H237503   5.997   6.299   1.394  0.4743 -0.5785  0.7197
 5338TIP3   OH237504   5.379   1.619  13.173  0.1847  0.0225 -0.1023
 5338TIP3    H137505   5.431   1.683  13.125  1.7849 -2.8253 -2.2315
 5338TIP3    H237506   5.442   1.554  13.204 -1.6698 -1.6990  0.1829
 5339TIP3   OH237507   4.860   1.110   4.903 -0.3145 -0.0859  0.4280
 5339TIP3    H137508   4.849   1.082   4.994  1.2737 -1.6086  0.1678
 5339TIP3    H237509   4.931   1.056   4.870  1.9616  3.3396 -0.4979
 5340TIP3   OH237510   0.008   3.659  14.716 -0.2341  0.0629 -0.7153
 5340TIP3    H137511  -0.010   3.729  14.654  0.9463  0.7742 -0.2738
 5340TIP3    H237512   0.013   3.580  14.663  0.9031  0.6900 -1.5505
 5341TIP3   OH237513   4.282   5.784  11.730  0.4732  0.2360  0.0575
 5341TIP3    H137514   4.282   5.783  11.635 -0.1633  0.8456  0.0513
 5341TIP3    H237515   4.206   5.731  11.755  1.1017 -0.5946  0.2377
 5342TIP3   OH237516   3.702   1.065   0.109  0.1973  0.3193  0.4709
 5342TIP3    H137517   3.783   1.046   0.061 -0.3461 -0.2463 -0.2308
 5342TIP3    H237518   3.679   0.983   0.152 -1.4721 -0.3536 -1.5618
 5343TIP3   OH237519   6.322   5.113   5.572 -0.2773  0.1026 -0.1521
 5343TIP3    H137520   6.243   5.084   5.526  0.2491 -1.7513  0.0793
 5343TIP3    H237521   6.291   5.146   5.656 -0.9777  1.1056 -0.7930
 5344TIP3   OH237522   1.749   2.638   1.814  0.1031  0.1752  0.3387
 5344TIP3    H137523   1.716   2.563   1.863  1.2477 -0.6770 -0.1567
 5344TIP3    H237524   1.844   2.623   1.809  0.1165  0.7414 -1.3104
 5345TIP3   OH237525   4.866   6.317  14.188 -0.1464  0.0914 -0.2840
 5345TIP3    H137526   4.856   6.254  14.117 -0.1303  0.4901 -0.6421
 5345TIP3    H237527   4.872   6.402  14.144 -1.8058  0.5165  0.2826
 5346TIP3   OH237528   6.338   5.346   4.565 -0.2087  0.7495 -0.1069
 5346TIP3    H137529   6.244   5.338   4.548 -0.4426  0.6674  1.1745
 5346TIP3    H237530   6.344   5.401   4.642  0.8175  0.9447 -0.3170
 5347TIP3   OH237531   6.665   5.786   4.366 -0.2550 -0.0305 -0.5141
 5347TIP3    H137532   6.705   5.728   4.301 -0.7716  1.7709 -2.5024
 5347TIP3    H237533   6.590   5.825   4.320 -1.6879 -0.0489  1.7477
 5348TIP3   OH237534   2.418   6.580  16.672  0.4981  0.1141 -0.2266
 5348TIP3    H137535   2.453   6.669  16.673 -1.4382  0.9022  0.5390
 5348TIP3    H237536   2.327   6.592  16.644  0.4510 -1.7109 -0.8614
 5349TIP3   OH237537   1.586   4.344  12.804  0.2271 -0.4767  0.1754
 5349TIP3    H137538   1.551   4.289  12.734  1.5109 -0.9563 -0.0983
 5349TIP3    H237539   1.566   4.296  12.884  1.5513 -1.4787 -0.0756
 5350TIP3   OH237540   5.073   0.314  12.591  0.0471 -0.0147 -0.2892
 5350TIP3    H137541   5.077   0.396  12.640 -0.5039 -0.2847  0.2203
 5350TIP3    H237542   5.123   0.252  12.644 -0.3210 -0.2404 -0.2021
 5351TIP3   OH237543   0.131   2.562  11.284 -0.3298 -0.2764  0.2923
 5351TIP3    H137544   0.077   2.544  11.207 -1.7816 -0.4269  1.3155
 5351TIP3    H237545   0.205   2.502  11.276  0.3018  0.7442 -1.7316
 5352TIP3   OH237546   5.286   2.305  10.430 -0.1550  0.2444  0.3782
 5352TIP3    H137547   5.203   2.311  10.382  0.9433 -2.2449 -1.9539
 5352TIP3    H237548   5.261   2.276  10.518 -1.9334  1.7608  0.3960
 5353TIP3   OH237549   2.889   1.936   4.472 -0.4646 -0.1577 -0.1146
 5353TIP3    H137550   2.982   1.954   4.457  0.1335 -0.6377  2.7710
 5353TIP3    H237551   2.854   2.017   4.507 -1.3539  0.2798 -1.9586
 5354TIP3   OH237552   4.687   2.656  11.527  0.0875 -0.6396 -0.1254
 5354TIP3    H137553   4.704   2.598  11.601  0.3779 -0.4504 -0.0413
 5354TIP3    H237554   4.658   2.598  11.457 -0.8289 -0.7545  0.3347
 5355TIP3   OH237555   3.990   3.697   3.054 -0.7652 -0.1864  0.2915
 5355TIP3    H137556   3.948   3.617   3.020 -1.2503 -0.0429  0.5566
 5355TIP3    H237557   4.061   3.665   3.110 -0.6987 -0.4282  0.0726
 5356TIP3   OH237558   2.407   0.560  11.909  0.0725  0.3392  0.0015
 5356TIP3    H137559   2.445   0.593  11.990  0.7904  1.8883 -0.9435
 5356TIP3    H237560   2.325   0.609  11.898  0.0897  0.3045 -0.3076
 5357TIP3   OH237561   1.791   1.475   4.294  0.0821 -0.0378 -0.4688
 5357TIP3    H137562   1.748   1.540   4.239  1.4044  0.2493 -1.1959
 5357TIP3    H237563   1.783   1.393   4.247 -1.1080 -0.3188  0.1909
 5358TIP3   OH237564   4.305   4.085   5.307 -0.5437  0.1662  0.0888
 5358TIP3    H137565   4.313   4.001   5.352 -0.4102 -0.0222 -0.2868
 5358TIP3    H237566   4.238   4.132   5.357 -1.1264 -0.4339 -0.1069
 5359TIP3   OH237567   4.481   3.588   1.117  0.2348  0.1913 -0.5086
 5359TIP3    H137568   4.438   3.673   1.126  0.4421  0.4153 -1.6398
 5359TIP3    H237569   4.462   3.561   1.027 -1.0600 -1.6231  0.2725
 5360TIP3   OH237570   0.437   6.558  11.502  0.0533 -0.0461  0.2525
 5360TIP3    H137571   0.418   6.564  11.596  2.6784 -0.5736  0.8406
 5360TIP3    H237572   0.499   6.629  11.486 -0.6398  0.2591 -1.1835
 5361TIP3   OH237573   2.101   2.663   5.514  0.2006 -0.1407  0.6747
 5361TIP3    H137574   2.173   2.725   5.527  1.4309 -1.5173  0.5931
 5361TIP3    H237575   2.113   2.598   5.583 -2.9067  1.3287  2.7364
 5362TIP3   OH237576   3.720   6.282   3.881  0.1508 -0.3821  0.0097
 5362TIP3    H137577   3.694   6.199   3.839  0.8378 -0.0066 -1.1805
 5362TIP3    H237578   3.660   6.291   3.955 -0.8949 -1.2025 -0.7286
 5363TIP3   OH237579   3.587   1.178   3.257 -0.3822  0.4228 -0.4222
 5363TIP3    H137580   3.631   1.101   3.221 -1.5936 -0.3284 -0.3160
 5363TIP3    H237581   3.517   1.198   3.195 -1.0096  0.5246  0.3017
 5364TIP3   OH237582   0.937   2.012  13.316  0.2518 -0.1886  0.4970
 5364TIP3    H137583   0.871   2.029  13.248  0.8546  0.6183  0.1055
 5364TIP3    H237584   0.936   2.092  13.370 -1.1814 -1.3479  2.2555
 5365TIP3   OH237585   5.662   6.296   5.731  0.3722  0.1830  0.2496
 5365TIP3    H137586   5.644   6.362   5.798  1.9220  0.3133  0.5640
 5365TIP3    H237587   5.595   6.311   5.665 -0.6573  0.6181  1.3653
 5366TIP3   OH237588   3.946   0.979   3.838  0.4777  0.2433  0.1026
 5366TIP3    H137589   3.978   1.067   3.857  0.1152  0.2588  0.6571
 5366TIP3    H237590   3.851   0.989   3.829  0.3275 -0.2379  1.0590
 5367TIP3   OH237591   2.741   4.976  15.565 -0.7133 -0.3047  0.8002
 5367TIP3    H137592   2.777   4.984  15.654 -0.6558  4.6360  0.4550
 5367TIP3    H237593   2.812   4.937  15.514  0.8512  0.8339  2.0524
 5368TIP3   OH237594   4.199   6.203   6.138 -0.3988 -0.1178 -0.1156
 5368TIP3    H137595   4.196   6.231   6.046  1.6856  0.6172  0.0240
 5368TIP3    H237596   4.258   6.128   6.138 -1.4149 -0.9246  0.4322
 5369TIP3   OH237597   6.259   4.563  12.114 -0.1807 -0.1052 -0.5028
 5369TIP3    H137598   6.303   4.647  12.123  0.5815 -0.4740 -0.7524
 5369TIP3    H237599   6.171   4.578  12.149  0.3481  0.4552  0.5940
 5370TIP3   OH237600   4.305   0.856  13.462 -0.3839 -0.1043  0.4294
 5370TIP3    H137601   4.351   0.774  13.482  0.0380  0.3448  1.3340
 5370TIP3    H237602   4.345   0.920  13.521  0.1294  1.0316 -1.1237
 5371TIP3   OH237603   2.138   6.068   4.815  0.0230  0.4185  0.6087
 5371TIP3    H137604   2.081   6.143   4.832 -0.2603 -0.0738  1.9013
 5371TIP3    H237605   2.226   6.102   4.831  0.0431  0.9396 -0.5316
 5372TIP3   OH237606   1.707   3.033  12.379  0.5509 -0.1760  0.6333
 5372TIP3    H137607   1.789   3.009  12.336  1.2084 -1.4168  2.4972
 5372TIP3    H237608   1.718   3.125  12.403  0.4470  0.3286 -1.1716
 5373TIP3   OH237609   6.058   1.086   4.323 -0.5069 -0.1548 -0.3273
 5373TIP3    H137610   6.017   1.172   4.334 -0.0966  0.0128 -0.1364
 5373TIP3    H237611   5.993   1.036   4.273 -1.1256 -0.0151  0.3269
 5374TIP3   OH237612   3.116   2.286  11.059  0.2794 -0.2514 -0.2052
 5374TIP3    H137613   3.140   2.230  10.985 -0.5779 -0.4728 -0.3233
 5374TIP3    H237614   3.199   2.324  11.088  1.0756 -2.4882  0.6054
 5375TIP3   OH237615   5.024   3.113   5.331  0.3282  0.2532 -0.5808
 5375TIP3    H137616   5.067   3.096   5.247  1.3405 -0.0010 -0.0175
 5375TIP3    H237617   5.004   3.207   5.328  1.8480  0.5964 -0.4351
 5376TIP3   OH237618   2.971   1.285  12.336 -0.4642  0.4766 -0.4824
 5376TIP3    H137619   2.957   1.214  12.398 -0.8984 -0.7885 -1.9938
 5376TIP3    H237620   3.065   1.302  12.338 -0.4348  0.2057  0.2673
 5377TIP3   OH237621   1.289   2.552   2.131  0.4113  0.4033  0.4734
 5377TIP3    H137622   1.218   2.488   2.133  3.4248 -3.0705  0.5160
 5377TIP3    H237623   1.299   2.579   2.223  0.6753 -0.8596  0.8198
 5378TIP3   OH237624   4.234   3.666   3.484  0.1807 -0.1473 -0.0052
 5378TIP3    H137625   4.228   3.761   3.499  0.8939 -0.3025  1.3754
 5378TIP3    H237626   4.294   3.635   3.552 -1.8540 -1.9294  1.0530
 5379TIP3   OH237627   6.476   6.296   4.898  0.0338  0.4168  0.0281
 5379TIP3    H137628   6.530   6.316   4.974  1.3436 -0.2874 -0.6955
 5379TIP3    H237629   6.445   6.206   4.913  1.3609 -0.2127 -0.8533
 5380TIP3   OH237630   5.957   1.192  14.508  0.2513 -0.1135 -0.5741
 5380TIP3    H137631   5.968   1.287  14.519 -1.6392 -0.1473  2.1096
 5380TIP3    H237632   5.864   1.177  14.528  1.2519 -2.9227  2.4044
 5381TIP3   OH237633   1.085   3.414   0.188 -0.1788 -0.2305  0.0718
 5381TIP3    H137634   1.015   3.433   0.251 -1.0200  0.0296 -0.9341
 5381TIP3    H237635   1.090   3.319   0.184 -0.4243 -0.2477  0.1983
 5382TIP3   OH237636   0.173   6.221  12.528 -0.0328 -0.5512  0.4638
 5382TIP3    H137637   0.195   6.176  12.609 -0.3694 -0.5807  0.5379
 5382TIP3    H237638   0.135   6.153  12.472  2.0109 -0.9838 -0.4651
 5383TIP3   OH237639   2.112   4.830   5.802  0.1048 -0.1382  0.0601
 5383TIP3    H137640   2.080   4.839   5.713  0.2066  0.1070  0.0460
 5383TIP3    H237641   2.147   4.741   5.806 -2.9594 -1.3611  0.8609
 5384TIP3   OH237642   0.216   5.985  13.371 -0.2025 -0.5670 -0.0155
 5384TIP3    H137643   0.301   5.969  13.411 -0.2232 -1.6485 -0.3831
 5384TIP3    H237644   0.176   6.053  13.425  0.0637 -1.4843  1.3497
 5385TIP3   OH237645   6.401   4.314  16.069  0.9204 -0.2899  0.2903
 5385TIP3    H137646   6.433   4.226  16.090  2.0463  0.1498  0.4942
 5385TIP3    H237647   6.472   4.353  16.017  0.4858  0.5428  0.3165
 5386TIP3   OH237648   4.692   2.627   2.563 -0.1979 -0.0033  0.0192
 5386TIP3    H137649   4.754   2.692   2.529 -0.3011  0.0539 -0.0599
 5386TIP3    H237650   4.621   2.679   2.601 -0.9245 -0.0685 -1.2288
 5387TIP3   OH237651   0.945   2.915   2.331  0.6396  0.2026  0.4626
 5387TIP3    H137652   0.869   2.972   2.340 -0.8837 -0.8747 -4.1513
 5387TIP3    H237653   1.015   2.974   2.301  0.2045  0.3485 -0.2723
 5388TIP3   OH237654   1.285   6.158   6.066  0.0989 -0.0645 -0.3227
 5388TIP3    H137655   1.378   6.138   6.055  0.2429 -0.6347  1.8416
 5388TIP3    H237656   1.244   6.073   6.081 -0.7060  0.2412 -0.8060
 5389TIP3   OH237657   4.345   0.299   0.571  0.1723  0.4465  0.2150
 5389TIP3    H137658   4.438   0.278   0.577  0.1218  0.6201  1.7924
 5389TIP3    H237659   4.313   0.244   0.500  1.6279  0.9479 -0.8526
 5390TIP3   OH237660   1.852   4.556   2.300  0.2952 -0.8355 -0.2904
 5390TIP3    H137661   1.770   4.507   2.302 -0.8514  1.0999  0.8551
 5390TIP3    H237662   1.862   4.583   2.209 -0.7070 -0.4703 -0.2894
 5391TIP3   OH237663   2.607   0.764  17.191 -0.8543  0.3999 -0.2759
 5391TIP3    H137664   2.657   0.740  17.113  0.9757  1.6784  0.4695
 5391TIP3    H237665   2.576   0.681  17.226 -0.6899 -0.2813 -1.6928
 5392TIP3   OH237666   4.302   1.604   0.162  0.1215  0.0404 -0.0524
 5392TIP3    H137667   4.319   1.615   0.256 -0.4642 -1.0850  0.1932
 5392TIP3    H237668   4.230   1.541   0.158 -0.2391  0.5073 -1.2456
 5393TIP3   OH237669   0.405   0.913   0.041 -0.1272 -0.6169  0.4541
 5393TIP3    H137670   0.427   0.966   0.117  0.4126 -1.6846  1.0581
 5393TIP3    H237671   0.454   0.832   0.053 -1.6245 -1.6128  0.0116
 5394TIP3   OH237672   6.318   2.340  15.126  0.0634  0.0220  0.0066
 5394TIP3    H137673   6.388   2.322  15.189  0.4137 -0.7765 -0.6058
 5394TIP3    H237674   6.244   2.369  15.180  0.1584 -1.2522  0.8509
 5395TIP3   OH237675   5.032   1.324   5.415 -0.0737 -0.1343  0.1146
 5395TIP3    H137676   5.071   1.337   5.502  0.5798  1.2139 -0.3611
 5395TIP3    H237677   5.102   1.348   5.354 -1.1799  0.9217 -0.7565
 5396TIP3   OH237678   0.496   4.979   6.107  0.2939  0.1104  0.5916
 5396TIP3    H137679   0.548   4.906   6.141  1.4693  0.0744 -1.1959
 5396TIP3    H237680   0.418   4.981   6.162  0.5717 -2.0571  1.1088
 5397TIP3   OH237681   6.809   5.491   5.464  0.7358  0.6379  0.0299
 5397TIP3    H137682   6.749   5.527   5.399  3.0668  1.7183 -1.5977
 5397TIP3    H237683   6.784   5.399   5.472 -0.7828  0.9530 -0.9840
 5398TIP3   OH237684   5.752   4.892  10.971  0.2295 -0.2796  0.2971
 5398TIP3    H137685   5.819   4.953  10.940  0.6635 -0.8107  0.1854
 5398TIP3    H237686   5.784   4.806  10.946  0.6285 -0.7405  2.2714
 5399TIP3   OH237687   6.749   6.583  12.066  0.0770  0.1029 -0.0501
 5399TIP3    H137688   6.696   6.513  12.028 -1.1404  0.4219  1.0460
 5399TIP3    H237689   6.689   6.631  12.122  1.1994  1.3108  0.1395
 5400TIP3   OH237690   0.521   1.720  10.790 -0.3689  0.2995  0.0134
 5400TIP3    H137691   0.526   1.626  10.774 -0.2956  0.3002  0.0322
 5400TIP3    H237692   0.448   1.750  10.735 -1.4101 -0.0163  1.2014
 5401TIP3   OH237693   5.178   6.346   4.176  0.4928 -0.4523  0.4299
 5401TIP3    H137694   5.147   6.405   4.243  3.5847  2.7871 -0.8342
 5401TIP3    H237695   5.112   6.351   4.106  0.3229  0.8732  0.6807
 5402TIP3   OH237696   0.158   6.427  11.742  0.0549  0.0747 -0.2600
 5402TIP3    H137697   0.233   6.392  11.790  1.6803  1.8821 -1.4221
 5402TIP3    H237698   0.088   6.363  11.757  2.3725 -2.6917 -0.7425
 5403TIP3   OH237699   5.700   0.457   5.016  0.3790 -0.0976 -0.0820
 5403TIP3    H137700   5.779   0.485   5.062  1.6786 -0.7240 -1.8811
 5403TIP3    H237701   5.731   0.398   4.948 -1.1547  2.7440 -3.4356
 5404TIP3   OH237702   0.715   1.568  10.580  1.1390  0.5627  0.6716
 5404TIP3    H137703   0.632   1.533  10.548  1.3391  1.3047 -0.6848
 5404TIP3    H237704   0.736   1.513  10.656 -1.9483  2.0798  2.7442
 5405TIP3   OH237705   5.830   6.152   3.619 -0.2168 -0.4334  0.3586
 5405TIP3    H137706   5.870   6.090   3.680 -0.1323  2.5531  3.4546
 5405TIP3    H237707   5.903   6.187   3.568  0.0055 -1.2657  0.1023
 5406TIP3   OH237708   6.756   0.016  16.987 -0.2282 -0.3628 -0.0485
 5406TIP3    H137709   6.725  -0.006  17.075 -1.3758 -0.6203 -0.4987
 5406TIP3    H237710   6.680   0.057  16.945  0.4378  0.1413 -0.7781
 5407TIP3   OH237711   2.329   3.140   0.704 -0.3117 -0.0064 -0.1760
 5407TIP3    H137712   2.421   3.132   0.729 -0.5568  1.7858  1.4199
 5407TIP3    H237713   2.285   3.069   0.751  0.0315  0.1190  0.3397
 5408TIP3   OH237714   5.441   4.007  15.071  0.1451  0.0754 -0.0975
 5408TIP3    H137715   5.475   3.964  14.992 -0.1525  0.1689 -0.2786
 5408TIP3    H237716   5.345   3.999  15.063  0.0209  2.3554 -1.0194
 5409TIP3   OH237717   0.319   1.545   2.655 -0.4245 -0.5843  0.0851
 5409TIP3    H137718   0.246   1.561   2.716 -0.9114 -0.3424 -0.5517
 5409TIP3    H237719   0.317   1.621   2.596  1.4668  0.3350  1.1555
 5410TIP3   OH237720   3.664   5.373   4.240  0.4376  0.2686 -0.1144
 5410TIP3    H137721   3.611   5.372   4.160  1.8703 -0.2418 -1.0924
 5410TIP3    H237722   3.653   5.461   4.275 -2.3722 -0.3549  0.6236
 5411TIP3   OH237723   2.198   6.397   2.131  0.1507 -0.5438 -0.1647
 5411TIP3    H137724   2.204   6.449   2.211  1.5151 -0.9266 -0.0035
 5411TIP3    H237725   2.146   6.451   2.071 -1.0638 -0.3501  1.0475
 5412TIP3   OH237726   1.759   1.558  12.829  0.0517  0.0722 -0.3517
 5412TIP3    H137727   1.685   1.532  12.774 -0.2030  0.3856 -0.1630
 5412TIP3    H237728   1.802   1.627  12.779 -0.2549  0.4457 -0.1017
 5413TIP3   OH237729   3.998   0.740   3.649 -0.1489  0.1323  0.2757
 5413TIP3    H137730   4.071   0.785   3.607  1.4345 -1.2676  1.4503
 5413TIP3    H237731   3.945   0.811   3.686  1.0399  1.1515  0.0718
 5414TIP3   OH237732   4.189   1.219  13.777  0.1904 -0.7021  0.0099
 5414TIP3    H137733   4.098   1.190  13.768 -0.2666  0.8093 -0.3454
 5414TIP3    H237734   4.192   1.303  13.732  1.3945  0.0093  1.4022
 5415TIP3   OH237735   5.221   4.178   4.933 -0.3436  1.1321 -0.2641
 5415TIP3    H137736   5.165   4.247   4.969  0.4985  0.6446  2.0717
 5415TIP3    H237737   5.175   4.097   4.952  0.9286  0.7529  1.3541
 5416TIP3   OH237738   5.442   3.409   0.117 -0.1304 -0.0881 -0.0890
 5416TIP3    H137739   5.455   3.496   0.079 -0.8571  1.3016  2.7535
 5416TIP3    H237740   5.528   3.383   0.150  0.7536 -1.7658 -3.4720
 5417TIP3   OH237741   2.839   1.914  14.366  0.3522  0.1619 -0.3103
 5417TIP3    H137742   2.875   1.996  14.401  1.6795 -0.3770 -0.4051
 5417TIP3    H237743   2.810   1.866  14.444  0.5965  0.2370 -0.1726
 5418TIP3   OH237744   1.170   4.908   0.310 -0.2935 -0.1468  0.4395
 5418TIP3    H137745   1.112   4.865   0.247  0.1144 -0.7988  0.5057
 5418TIP3    H237746   1.171   4.849   0.386 -1.4893  1.0707  1.4187
 5419TIP3   OH237747   2.755   6.804   5.050  0.0860  0.3680  0.8048
 5419TIP3    H137748   2.684   6.740   5.042  1.1845 -0.8732  0.7260
 5419TIP3    H237749   2.744   6.841   5.137 -0.7879  0.3528  0.7128
 5420TIP3   OH237750   4.555   2.434  12.308  0.1682  0.2888 -0.2387
 5420TIP3    H137751   4.627   2.371  12.301 -0.2064 -0.2635  0.7830
 5420TIP3    H237752   4.540   2.463  12.218  0.4494 -0.9829 -0.7055
 5421TIP3   OH237753   6.609   4.014  16.079  0.0939 -0.2796 -0.4460
 5421TIP3    H137754   6.658   4.012  16.161  1.8169  2.5586 -1.3657
 5421TIP3    H237755   6.671   3.985  16.012  0.4235  2.7588 -1.5248
 5422TIP3   OH237756   6.153   5.228   1.433  0.2979 -1.1829 -0.2074
 5422TIP3    H137757   6.094   5.178   1.377 -0.2627 -1.5346  0.6784
 5422TIP3    H237758   6.229   5.247   1.378 -0.7734 -0.4338 -1.4710
 5423TIP3   OH237759   4.929   2.549   3.210  0.0423 -0.1318 -0.1960
 5423TIP3    H137760   4.835   2.567   3.204 -0.4720 -2.8374 -0.9574
 5423TIP3    H237761   4.970   2.631   3.182 -2.0936  0.8669 -0.5449
 5424TIP3   OH237762   2.931   0.229  13.379 -0.0450 -0.2070  0.3254
 5424TIP3    H137763   2.847   0.275  13.383  0.1570  0.1569  0.4282
 5424TIP3    H237764   2.992   0.287  13.426  0.0892 -0.8420  0.9407
 5425TIP3   OH237765   4.558   4.686  12.568  0.3676  0.4554 -0.3900
 5425TIP3    H137766   4.602   4.748  12.626  0.3450  0.5310 -0.4535
 5425TIP3    H237767   4.465   4.706  12.577  0.3468  0.3078 -0.2694
 5426TIP3   OH237768   3.746   1.387  11.868  0.3331 -0.0507  0.8913
 5426TIP3    H137769   3.696   1.362  11.947 -1.0206 -0.5081 -0.0828
 5426TIP3    H237770   3.797   1.309  11.847 -0.8289 -0.6519  0.1893
 5427TIP3   OH237771   2.856   6.522   4.517 -0.1060  0.0355 -0.5598
 5427TIP3    H137772   2.906   6.449   4.552 -0.3016  0.3375  0.3608
 5427TIP3    H237773   2.888   6.599   4.564 -2.9439 -0.0532  1.6750
 5428TIP3   OH237774   3.445   6.014   2.099  0.0034  0.4852 -1.0439
 5428TIP3    H137775   3.414   5.992   2.187  0.6928 -1.6628 -1.3112
 5428TIP3    H237776   3.434   6.109   2.093 -1.7015  0.4389  0.7138
 5429TIP3   OH237777   0.529   1.351   0.185 -0.1126  0.0320  0.0925
 5429TIP3    H137778   0.571   1.406   0.250 -2.7024  0.2262  1.6831
 5429TIP3    H237779   0.483   1.413   0.128  0.9445 -0.2259 -1.0525
 5430TIP3   OH237780   2.122   2.613  11.450  0.2019  0.3722  0.8095
 5430TIP3    H137781   2.048   2.672  11.437  0.2666  0.6977  1.8100
 5430TIP3    H237782   2.095   2.530  11.411  0.8028  1.5423 -2.2091
 5431TIP3   OH237783   6.398   1.565  12.477 -0.5618 -0.4955 -0.6970
 5431TIP3    H137784   6.490   1.592  12.467 -0.5226 -1.0157 -1.7900
 5431TIP3    H237785   6.358   1.586  12.393 -1.0087 -2.0089 -0.8614
 5432TIP3   OH237786   2.486   5.603   5.058 -0.0285  0.1101  0.4478
 5432TIP3    H137787   2.452   5.527   5.105  0.2859 -0.7695 -0.7238
 5432TIP3    H237788   2.575   5.615   5.091  0.8012 -1.5443 -1.0922
 5433TIP3   OH237789   5.158   2.756  16.708  0.4765  0.0966  0.4922
 5433TIP3    H137790   5.185   2.804  16.630 -1.1962  0.4289  0.0904
 5433TIP3    H237791   5.156   2.664  16.680  0.1623  0.1867  0.1997
 5434TIP3   OH237792   4.474   3.089  14.557 -0.3176 -0.7288 -0.1509
 5434TIP3    H137793   4.511   3.092  14.645 -0.9995  0.1480  0.1171
 5434TIP3    H237794   4.414   3.014  14.559 -0.1471 -0.8593  0.0676
 5435TIP3   OH237795   0.916   1.530  11.191  0.0262 -0.2394 -0.0051
 5435TIP3    H137796   0.999   1.514  11.235 -0.3631 -1.2571  0.3849
 5435TIP3    H237797   0.930   1.498  11.102  0.5363  1.0130 -0.3793
 5436TIP3   OH237798   2.618   0.503  16.740 -0.6400 -0.2114  0.7409
 5436TIP3    H137799   2.584   0.592  16.743 -0.7050 -0.1598 -1.1886
 5436TIP3    H237800   2.563   0.458  16.676  1.3808 -0.7705 -0.6540
 5437TIP3   OH237801   5.806   5.841  12.657 -0.5594  0.3529 -0.1562
 5437TIP3    H137802   5.892   5.837  12.698 -1.0821  1.4284  1.1119
 5437TIP3    H237803   5.822   5.826  12.564  0.8496 -0.5953  0.2277
 5438TIP3   OH237804   4.775   5.031   1.957 -0.2159 -0.0621 -0.0288
 5438TIP3    H137805   4.839   4.971   1.917 -0.4394 -0.2876 -0.0478
 5438TIP3    H237806   4.784   5.016   2.051  0.7550  0.9208  0.0399
 5439TIP3   OH237807   5.726   5.012  15.489 -0.1466 -0.3068 -0.1814
 5439TIP3    H137808   5.667   4.947  15.527 -3.4097  1.6325 -1.8036
 5439TIP3    H237809   5.724   4.994  15.395  0.4396  0.9501 -0.4411
 5440TIP3   OH237810   1.260   6.353   1.637  0.7325  0.8098 -0.3915
 5440TIP3    H137811   1.228   6.413   1.569 -0.0760 -1.7015 -2.2764
 5440TIP3    H237812   1.332   6.306   1.595  2.1666  1.2961  1.4788
 5441TIP3   OH237813   4.434   4.206   0.640 -0.3679 -0.1530 -0.4637
 5441TIP3    H137814   4.505   4.222   0.702 -0.1625  0.4367 -0.8454
 5441TIP3    H237815   4.432   4.111   0.630  0.8957 -0.1194 -1.0553
 5442TIP3   OH237816   1.443   6.525  14.702 -0.5183  0.4104 -0.3415
 5442TIP3    H137817   1.440   6.556  14.792 -0.3314 -1.1890  0.2457
 5442TIP3    H237818   1.479   6.436  14.709  0.3268  0.5964 -2.0786
 5443TIP3   OH237819   3.711   3.141  17.028 -0.1254 -0.2977 -0.3374
 5443TIP3    H137820   3.702   3.055  17.069 -0.5336 -0.3569 -0.5450
 5443TIP3    H237821   3.794   3.175  17.061  0.0490 -0.7810 -0.2737
 5444TIP3   OH237822   3.249   2.726  11.932 -0.9262 -0.5816  0.0162
 5444TIP3    H137823   3.301   2.757  12.006  0.5707 -1.8355 -0.4835
 5444TIP3    H237824   3.195   2.801  11.907 -0.1017  0.4190  1.1975
 5445TIP3   OH237825   1.869   5.282   3.262  0.3393 -0.1451  0.5637
 5445TIP3    H137826   1.836   5.361   3.217  0.4907 -0.7563 -0.6549
 5445TIP3    H237827   1.945   5.256   3.210  0.9947 -0.4307  1.6521
 5446TIP3   OH237828   3.941   1.889  16.035  0.3144  0.5140  0.6568
 5446TIP3    H137829   3.880   1.887  15.961  1.1106  0.1323  0.0072
 5446TIP3    H237830   3.924   1.807  16.083  0.2674  0.4414  0.5150
 5447TIP3   OH237831   0.174   3.696  12.757 -0.3340 -0.0705  0.4189
 5447TIP3    H137832   0.262   3.661  12.744  0.6120  2.3126  0.0098
 5447TIP3    H237833   0.185   3.762  12.826 -1.9115 -0.1819  0.7877
 5448TIP3   OH237834   5.294   4.845   3.877 -0.0012  0.0300 -0.1123
 5448TIP3    H137835   5.298   4.752   3.855 -0.2824  0.2844 -1.2864
 5448TIP3    H237836   5.220   4.852   3.937 -1.3441 -0.2107 -1.6821
 5449TIP3   OH237837   3.203   3.622   2.670  0.3077  0.9052 -0.2470
 5449TIP3    H137838   3.129   3.580   2.627 -0.1126  0.7632  0.6030
 5449TIP3    H237839   3.230   3.560   2.738  1.2166  0.9453 -0.5545
 5450TIP3   OH237840   0.457   4.197  11.169  0.1510  0.2323  0.0395
 5450TIP3    H137841   0.536   4.247  11.190 -1.2329  1.8321  1.5283
 5450TIP3    H237842   0.441   4.144  11.248 -0.5224  0.2447 -0.0882
 5451TIP3   OH237843   6.525   0.533  13.681  0.1928 -0.0979 -0.4044
 5451TIP3    H137844   6.570   0.521  13.598 -0.1981 -0.3135 -0.5896
 5451TIP3    H237845   6.433   0.543  13.657 -0.1385 -1.7488  0.0987
 5452TIP3   OH237846   3.394   1.522  11.206  0.1502  0.7342 -0.6016
 5452TIP3    H137847   3.433   1.570  11.280 -3.6873 -1.2491  2.9474
 5452TIP3    H237848   3.408   1.430  11.227  0.3732  0.1473 -3.1890
 5453TIP3   OH237849   4.748   5.894  15.345  0.1313 -0.2072  0.4138
 5453TIP3    H137850   4.808   5.821  15.360  0.8115  0.2978  0.2111
 5453TIP3    H237851   4.804   5.972  15.351 -0.2553  0.2065 -1.0720
 5454TIP3   OH237852   1.906   2.158   4.335  0.3577  0.4505 -0.0981
 5454TIP3    H137853   1.997   2.131   4.345  0.2946 -0.0315 -0.8412
 5454TIP3    H237854   1.874   2.166   4.425  0.6554 -1.0229  0.1540
 5455TIP3   OH237855   3.322   2.807  11.466  0.3079  0.2716 -0.0315
 5455TIP3    H137856   3.399   2.864  11.464  0.3261  0.2516  0.1312
 5455TIP3    H237857   3.253   2.860  11.426  0.5533  0.0731 -0.7304
 5456TIP3   OH237858   5.565   2.828   0.969  0.8624 -0.4490 -0.2893
 5456TIP3    H137859   5.540   2.915   0.938 -0.0605 -0.7252 -0.3298
 5456TIP3    H237860   5.519   2.819   1.053  0.2542 -1.2378 -0.7037
 5457TIP3   OH237861   0.071   5.222  11.388  0.6350  0.3497  0.1422
 5457TIP3    H137862   0.098   5.138  11.349  0.4532 -0.3350  1.4574
 5457TIP3    H237863   0.111   5.221  11.475 -1.6771  0.3781  1.2283
 5458TIP3   OH237864   0.353   6.740  16.624 -0.3166  0.0207  0.1542
 5458TIP3    H137865   0.281   6.711  16.568  0.3647  2.4512 -2.0896
 5458TIP3    H237866   0.418   6.671  16.618 -0.6977 -0.2300 -1.2238
 5459TIP3   OH237867   1.098   4.201   5.317 -0.4014  0.5580 -0.4600
 5459TIP3    H137868   1.143   4.127   5.358  1.4670  2.0115  0.2006
 5459TIP3    H237869   1.150   4.221   5.239 -0.1852  1.9122  0.0067
 5460TIP3   OH237870   2.869   5.258  11.791  0.2847  0.6699 -0.2106
 5460TIP3    H137871   2.784   5.275  11.832  0.5863 -0.3007  0.8321
 5460TIP3    H237872   2.931   5.256  11.863  0.8510 -0.8442 -0.7125
 5461TIP3   OH237873   0.148   4.808  17.117 -0.0496 -1.1958  0.2132
 5461TIP3    H137874   0.230   4.855  17.097 -0.4122 -0.7967 -0.3365
 5461TIP3    H237875   0.154   4.789  17.210  1.4504 -2.6567 -0.1539
 5462TIP3   OH237876   2.914   5.734   0.989  0.9583  0.3297 -0.0382
 5462TIP3    H137877   2.873   5.697   0.910  1.7105 -1.0986  0.2211
 5462TIP3    H237878   2.941   5.822   0.963  1.5189 -0.2590 -1.4940
 5463TIP3   OH237879   5.617   4.609  16.251 -0.2438 -0.0843  0.6109
 5463TIP3    H137880   5.550   4.659  16.205 -0.3417 -0.4985  0.3014
 5463TIP3    H237881   5.665   4.674  16.302  1.0498  0.6155 -1.4970
 5464TIP3   OH237882   0.544   2.034  13.932 -0.4190  0.9737  0.6826
 5464TIP3    H137883   0.574   2.115  13.892  1.6589  0.1379  0.4567
 5464TIP3    H237884   0.613   2.011  13.995 -1.5017 -0.0399  1.5287
 5465TIP3   OH237885   3.623   3.082  13.151 -0.2160  0.5039  0.5769
 5465TIP3    H137886   3.612   3.033  13.070 -1.0630  1.8782 -0.1626
 5465TIP3    H237887   3.565   3.038  13.213 -0.6240  0.2832  0.0464
 5466TIP3   OH237888   1.559   2.329  12.986 -0.1279  0.4665 -0.0984
 5466TIP3    H137889   1.522   2.314  13.073 -1.8146  0.1172 -0.8701
 5466TIP3    H237890   1.505   2.277  12.927  1.2177  0.4293 -1.3335
 5467TIP3   OH237891   0.860   1.332  14.234 -0.2561 -0.2403  0.1912
 5467TIP3    H137892   0.923   1.326  14.163 -0.7320  0.7298 -0.3194
 5467TIP3    H237893   0.777   1.307  14.195 -0.4976  0.1694  0.4390
 5468TIP3   OH237894   0.475   3.707  11.420  0.9588 -0.5518 -0.5345
 5468TIP3    H137895   0.506   3.669  11.502 -1.3855 -0.5736  0.3507
 5468TIP3    H237896   0.513   3.650  11.352  0.3710 -2.3909  0.6444
 5469TIP3   OH237897   5.841   5.667  12.352  0.0244 -0.0448 -1.0976
 5469TIP3    H137898   5.851   5.573  12.341  0.3961 -0.2175  0.5987
 5469TIP3    H237899   5.747   5.682  12.352 -0.0628 -0.6011  0.0889
 5470TIP3   OH237900   2.598   0.891  12.868 -0.4598  0.1423  0.2612
 5470TIP3    H137901   2.556   0.964  12.913 -0.5922  0.1734  0.0849
 5470TIP3    H237902   2.643   0.931  12.794 -1.6389 -0.1208 -0.6020
 5471TIP3   OH237903   4.486   1.467  14.862 -0.3753  0.9248  0.0038
 5471TIP3    H137904   4.409   1.442  14.810 -0.8962  3.7960 -0.7254
 5471TIP3    H237905   4.529   1.384  14.882 -2.7036 -0.6228 -1.0614
 5472TIP3   OH237906   5.721   4.929   1.936  0.6552  0.6346 -0.1033
 5472TIP3    H137907   5.729   4.868   1.863  0.1676  0.6070 -0.1360
 5472TIP3    H237908   5.774   4.890   2.006  0.1397  0.0461 -0.0391
 5473TIP3   OH237909   3.607   0.513   1.852  0.7279  0.2884 -0.2800
 5473TIP3    H137910   3.623   0.597   1.808  0.4158  0.2206 -0.5257
 5473TIP3    H237911   3.685   0.460   1.832 -1.1366 -1.1866 -4.1968
 5474TIP3   OH237912   5.601   1.008  15.720 -0.3193 -0.1210 -0.3102
 5474TIP3    H137913   5.672   0.950  15.747 -0.3056  0.2402  0.4330
 5474TIP3    H237914   5.644   1.091  15.700 -0.5961  0.3010  0.7794
 5475TIP3   OH237915   0.775   5.987   4.310  0.7301 -0.1782  0.0467
 5475TIP3    H137916   0.817   5.951   4.388 -1.9947 -0.6786  1.3472
 5475TIP3    H237917   0.699   6.035   4.344  0.0576  0.4262 -2.2356
 5476TIP3   OH237918   5.442   2.270  17.248  0.0563  0.4745  0.1883
 5476TIP3    H137919   5.425   2.192  17.301 -1.2095 -1.0719 -2.4075
 5476TIP3    H237920   5.391   2.339  17.291 -4.8957 -1.8419 -1.6144
 5477TIP3   OH237921   3.176   0.455  17.220 -0.1346 -0.1597 -0.0706
 5477TIP3    H137922   3.095   0.504  17.216  0.1722  0.3639  0.0450
 5477TIP3    H237923   3.178   0.403  17.140  0.4901  1.5226 -1.1707
 5478TIP3   OH237924   3.512   5.176   2.354  0.3952  0.1052 -0.5169
 5478TIP3    H137925   3.597   5.141   2.326  0.3529 -0.5850  0.2172
 5478TIP3    H237926   3.449   5.134   2.296  0.1205 -2.7092  1.7157
 5479TIP3   OH237927   1.257   1.976  17.275 -0.6008 -0.0659  0.2166
 5479TIP3    H137928   1.235   1.890  17.311 -1.4643 -0.0735 -0.3109
 5479TIP3    H237929   1.328   1.959  17.213 -1.0034 -0.4531 -0.1423
 5480TIP3   OH237930   4.747   1.450  11.041 -0.0022  0.5927 -0.4814
 5480TIP3    H137931   4.737   1.507  10.965  1.0530  0.1178 -0.9838
 5480TIP3    H237932   4.813   1.385  11.014  0.9847  0.9096  1.1218
 5481TIP3   OH237933   4.572   2.467  16.114 -0.6464  0.1871  0.0741
 5481TIP3    H137934   4.578   2.494  16.206 -1.2599 -0.4533  0.3103
 5481TIP3    H237935   4.652   2.416  16.099  0.1961  1.5662 -0.1906
 5482TIP3   OH237936   6.579   1.144  12.834  0.4732  0.2245 -0.4395
 5482TIP3    H137937   6.656   1.184  12.875 -0.3576  1.4844 -0.0828
 5482TIP3    H237938   6.545   1.084  12.900  0.0680  1.0628  0.1204
 5483TIP3   OH237939   5.098   4.320  15.472 -0.3221 -0.1406 -0.0082
 5483TIP3    H137940   5.035   4.272  15.418 -0.2364  0.0640 -0.2867
 5483TIP3    H237941   5.117   4.260  15.545  0.5019 -0.9300 -0.8430
 5484TIP3   OH237942   0.789   0.945   5.804 -0.2643  0.0752 -0.1282
 5484TIP3    H137943   0.764   0.985   5.721 -0.8011 -1.3949 -0.7068
 5484TIP3    H237944   0.850   0.875   5.779 -0.5997 -0.5140  0.6806
 5485TIP3   OH237945   0.175   5.666   1.625 -0.3501  0.5339 -0.4757
 5485TIP3    H137946   0.128   5.744   1.596 -1.8441  0.1004  0.7717
 5485TIP3    H237947   0.239   5.698   1.688 -1.1228  0.7405  0.2153
 5486TIP3   OH237948   2.304   3.590  17.193 -0.3317 -0.0754 -0.1387
 5486TIP3    H137949   2.377   3.589  17.255 -1.2851  0.0568  1.0201
 5486TIP3    H237950   2.246   3.659  17.226 -0.7446  0.1610 -1.3234
 5487TIP3   OH237951   5.825   6.273   2.937  1.2698  0.0365 -0.6743
 5487TIP3    H137952   5.840   6.268   2.843  3.2317 -0.0684 -0.3665
 5487TIP3    H237953   5.791   6.361   2.950  2.1428  0.4852 -1.3385
 5488TIP3   OH237954   2.398   6.237  14.601  0.6668 -0.4938 -0.3521
 5488TIP3    H137955   2.384   6.312  14.659 -0.6066 -0.6929 -0.3812
 5488TIP3    H237956   2.350   6.165  14.642 -0.3332 -0.6146 -1.6813
 5489TIP3   OH237957   3.260   4.105  16.927  0.3312 -0.3089 -0.6071
 5489TIP3    H137958   3.287   4.125  17.017  0.1118  1.3385 -0.8896
 5489TIP3    H237959   3.341   4.102  16.877  0.3329  0.2400 -0.6345
 5490TIP3   OH237960   0.671   3.881  12.060 -0.1013  0.2594 -0.4657
 5490TIP3    H137961   0.613   3.806  12.074 -0.9360  0.6436 -1.7650
 5490TIP3    H237962   0.642   3.919  11.977  0.3515  1.9821  0.1313
 5491TIP3   OH237963   1.013   1.595   2.330 -0.0882 -0.1434  0.2448
 5491TIP3    H137964   1.018   1.561   2.420 -0.6279  0.9760  0.6951
 5491TIP3    H237965   0.970   1.680   2.338  0.7563  0.4074 -0.9614
 5492TIP3   OH237966   4.458   6.430  15.629 -0.0438 -0.2548 -0.3173
 5492TIP3    H137967   4.447   6.398  15.718 -0.8179 -0.5431 -0.5116
 5492TIP3    H237968   4.451   6.525  15.637 -2.8678 -0.4241 -0.4410
 5493TIP3   OH237969   3.189   3.778  15.522 -0.1975  0.1512 -0.1650
 5493TIP3    H137970   3.169   3.707  15.582 -2.7168  1.7875  1.0047
 5493TIP3    H237971   3.180   3.740  15.435  0.7303 -1.5072  0.4345
 5494TIP3   OH237972   6.461   5.508  14.773  0.0680  0.1406  0.4012
 5494TIP3    H137973   6.430   5.486  14.861 -0.3568  1.1099  0.4996
 5494TIP3    H237974   6.417   5.590  14.752  2.0871  1.2440  0.2901
 5495TIP3   OH237975   3.571   4.001   4.866 -0.2147  0.1047 -0.4221
 5495TIP3    H137976   3.562   4.019   4.960 -0.1756  0.6581 -0.5229
 5495TIP3    H237977   3.660   4.028   4.845 -0.7862  1.6395 -0.9755
 5496TIP3   OH237978   1.812   3.461   4.644  0.3757 -0.0515 -0.5461
 5496TIP3    H137979   1.878   3.465   4.575 -0.6771  1.0124 -1.5255
 5496TIP3    H237980   1.853   3.502   4.719  0.4098  1.7852 -1.5302
 5497TIP3   OH237981   1.933   3.090   2.311 -0.0258 -0.3902  0.0896
 5497TIP3    H137982   1.955   3.036   2.387 -0.7191 -0.2017  0.4326
 5497TIP3    H237983   1.997   3.066   2.244  2.4455  1.4982  1.6647
 5498TIP3   OH237984   4.163   5.793  14.598  0.7366  0.5032 -0.6117
 5498TIP3    H137985   4.197   5.749  14.675  0.7253  1.8562  0.1972
 5498TIP3    H237986   4.208   5.753  14.524  0.9219 -0.6426  0.1214
 5499TIP3   OH237987   6.258   3.779   0.003 -0.2003  0.7657 -0.3471
 5499TIP3    H137988   6.348   3.800  -0.023  0.4203 -1.0679  0.2310
 5499TIP3    H237989   6.216   3.753  -0.078  0.1229  0.5123 -0.4365
 5500TIP3   OH237990   5.489   5.147   5.564  0.1833  0.4786 -0.1830
 5500TIP3    H137991   5.579   5.167   5.589  0.2810 -1.0363  0.7206
 5500TIP3    H237992   5.436   5.184   5.634  0.2389 -0.5461  0.4043
 5501TIP3   OH237993   1.269   5.182  12.703 -0.1212 -0.1941  0.0477
 5501TIP3    H137994   1.213   5.123  12.753 -0.8768  1.0414  0.6873
 5501TIP3    H237995   1.254   5.158  12.612 -0.5362 -0.8838  0.2999
 5502TIP3   OH237996   1.696   6.527  14.462 -0.2068  0.5305 -0.1423
 5502TIP3    H137997   1.745   6.502  14.384 -1.1650  0.3858 -0.7148
 5502TIP3    H237998   1.605   6.528  14.433 -0.4205  2.1997  0.5322
 5503TIP3   OH237999   1.758   4.524   1.687 -0.0974  0.4889 -0.0983
 5503TIP3    H138000   1.685   4.584   1.707 -1.2728 -0.5895 -1.0710
 5503TIP3    H238001   1.798   4.506   1.772 -0.5235  1.6507  0.3635
 5504TIP3   OH238002   0.750   0.761   3.846 -0.1844  0.0640 -0.6201
 5504TIP3    H138003   0.839   0.727   3.855 -0.3636 -0.4972 -0.8646
 5504TIP3    H238004   0.750   0.806   3.761  0.7904  3.0679  0.9344
 5505TIP3   OH238005   1.660   4.811   0.277 -0.0194 -0.3397  0.0645
 5505TIP3    H138006   1.714   4.829   0.200 -1.4901 -0.3717 -1.0154
 5505TIP3    H238007   1.715   4.757   0.333  1.1635 -0.1203 -0.8625
 5506TIP3   OH238008   2.889   0.609  12.439 -0.2324 -0.1296 -0.3253
 5506TIP3    H138009   2.837   0.640  12.364 -2.0269  0.2568  1.0353
 5506TIP3    H238010   2.916   0.689  12.484 -1.7770 -0.4082  1.1480
 5507TIP3   OH238011   5.644   4.523   5.850  0.4863  0.1127 -0.2315
 5507TIP3    H138012   5.696   4.454   5.808 -0.8297 -0.8163 -0.3593
 5507TIP3    H238013   5.649   4.597   5.789  0.6636 -0.3783 -0.8214
 5508TIP3   OH238014   2.576   4.396  16.379  0.3845  0.0836  0.3647
 5508TIP3    H138015   2.617   4.458  16.319  0.7947  2.1407  2.6752
 5508TIP3    H238016   2.649   4.348  16.418  0.2998  0.5044  1.0526
 5509TIP3   OH238017   5.450   6.003  16.460 -0.2301  0.1456 -0.4572
 5509TIP3    H138018   5.529   6.045  16.493 -0.1442  0.2418 -0.7820
 5509TIP3    H238019   5.440   5.924  16.513 -0.0411  0.2487 -0.2693
 5510TIP3   OH238020   5.890   5.461  13.572  0.5614  0.3527  0.0595
 5510TIP3    H138021   5.852   5.488  13.656 -0.9498  0.3250 -0.5855
 5510TIP3    H238022   5.972   5.509  13.566  0.3081  0.9571  1.2024
 5511TIP3   OH238023   2.476   4.770  14.120  0.0027 -1.0029  0.1765
 5511TIP3    H138024   2.488   4.770  14.215  1.5057 -0.1617  0.0071
 5511TIP3    H238025   2.387   4.802  14.106 -0.2207 -1.1206  1.2981
 5512TIP3   OH238026   2.013   1.800   1.714 -0.2489  0.1160  0.8176
 5512TIP3    H138027   2.106   1.804   1.691 -0.7366  1.3571 -1.0972
 5512TIP3    H238028   1.972   1.762   1.636 -1.4209  0.0812  1.4466
 5513TIP3   OH238029   0.557   0.591  15.321 -0.3058 -0.1015 -0.1278
 5513TIP3    H138030   0.518   0.518  15.272 -1.4413  0.3674  0.0509
 5513TIP3    H238031   0.641   0.607  15.278 -0.3725 -1.0436 -0.6216
 5514TIP3   OH238032   4.970   0.562   6.645  0.0146 -0.1374 -0.3906
 5514TIP3    H138033   4.963   0.653   6.674 -0.0516  0.4404 -2.1804
 5514TIP3    H238034   4.939   0.511   6.720 -1.1313  1.3552  0.1824
 5515TIP3   OH238035   5.529   6.736   4.564  0.2326  0.4337  0.4335
 5515TIP3    H138036   5.557   6.779   4.484 -0.2792  0.5284  0.3031
 5515TIP3    H238037   5.546   6.643   4.549 -1.9627  0.1840 -0.6768
 5516TIP3   OH238038   1.361   2.302   3.045  0.6112 -0.5198 -0.5016
 5516TIP3    H138039   1.342   2.345   2.962 -2.7405 -0.6231  0.1439
 5516TIP3    H238040   1.372   2.373   3.108 -1.4063 -0.4930 -0.1495
 5517TIP3   OH238041   2.827   3.814   5.073  0.0200 -0.1898 -0.2880
 5517TIP3    H138042   2.821   3.763   5.154 -0.6386 -0.0908 -0.2760
 5517TIP3    H238043   2.888   3.885   5.094 -0.0923 -0.2048  0.1029
 5518TIP3   OH238044   5.548   3.920  15.320  0.0497  0.4240 -0.1542
 5518TIP3    H138045   5.526   3.929  15.227 -0.6679  1.2455  0.0910
 5518TIP3    H238046   5.527   3.829  15.341 -0.2430  0.3694 -0.6774
 5519TIP3   OH238047   0.759   2.782  11.368 -0.0612  0.6402  0.1563
 5519TIP3    H138048   0.823   2.799  11.299 -0.5923  1.8894 -0.0396
 5519TIP3    H238049   0.779   2.847  11.435 -1.0207  0.9316  0.1589
 5520TIP3   OH238050   5.713   4.282   4.117  0.4094 -0.3258 -0.0440
 5520TIP3    H138051   5.678   4.221   4.183  1.1058 -0.3913  0.2683
 5520TIP3    H238052   5.637   4.305   4.063  0.2258 -1.8374 -0.4530
 5521TIP3   OH238053   6.698   5.251  16.337 -0.2784 -0.0036 -0.6566
 5521TIP3    H138054   6.746   5.218  16.412  0.3898  1.5593 -0.3648
 5521TIP3    H238055   6.740   5.209  16.261 -0.8745 -1.4784 -0.1862
 5522TIP3   OH238056   0.789   6.645  11.312 -0.2603  0.2702 -0.3283
 5522TIP3    H138057   0.756   6.614  11.227 -1.2603  2.2274 -0.6678
 5522TIP3    H238058   0.811   6.564  11.359 -1.9200 -0.9511 -1.5534
 5523TIP3   OH238059   3.878   6.653   5.080  0.5078 -0.0492  0.0092
 5523TIP3    H138060   3.876   6.676   5.173 -1.6322 -0.6296  0.1268
 5523TIP3    H238061   3.971   6.642   5.060  1.0085  0.3723  1.9959
 5524TIP3   OH238062   3.720   6.141  14.295 -0.1548  0.1488 -0.5084
 5524TIP3    H138063   3.628   6.140  14.323 -0.3138 -1.2295 -1.0342
 5524TIP3    H238064   3.728   6.065  14.237  1.3061  0.2805 -0.4914
 5525TIP3   OH238065   5.475   0.013  12.713  0.3085  0.2305  0.6082
 5525TIP3    H138066   5.461  -0.056  12.649 -0.1847  0.1651  0.7877
 5525TIP3    H238067   5.567   0.038  12.702  1.0515 -1.8055  1.8800
 5526TIP3   OH238068   1.835   0.724  16.462  0.4270 -0.1743  0.1926
 5526TIP3    H138069   1.790   0.745  16.544 -1.3060  0.7044 -0.9651
 5526TIP3    H238070   1.861   0.809  16.427 -0.4232 -0.4318 -1.0601
 5527TIP3   OH238071   6.331   1.684   0.049 -0.0780 -0.2928 -0.4275
 5527TIP3    H138072   6.330   1.589   0.047  1.4109 -0.3419  0.4741
 5527TIP3    H238073   6.287   1.710  -0.032 -1.0722 -1.7344 -0.3517
 5528TIP3   OH238074   5.835   3.743  15.980  0.4407  0.1725 -0.5784
 5528TIP3    H138075   5.812   3.665  16.030 -1.7225  1.2048  0.1075
 5528TIP3    H238076   5.821   3.718  15.888 -0.5269 -0.1615 -0.3451
 5529TIP3   OH238077   1.485   5.533  12.878  0.0208 -0.1343  0.3060
 5529TIP3    H138078   1.503   5.574  12.962 -1.6820  1.9204 -0.2865
 5529TIP3    H238079   1.551   5.464  12.870  2.4812  1.9737  1.7030
 5530TIP3   OH238080   5.687   0.450   5.372 -0.2651 -0.0626  0.1697
 5530TIP3    H138081   5.768   0.403   5.352 -0.2806 -0.2634  0.5758
 5530TIP3    H238082   5.618   0.398   5.331 -0.0513  0.8789 -1.4114
 5531TIP3   OH238083   3.516   4.140   2.207  0.1374  0.2107  0.4037
 5531TIP3    H138084   3.587   4.156   2.146 -0.0444  0.9358  0.3867
 5531TIP3    H238085   3.445   4.196   2.177 -0.7055 -1.0762 -0.0319
 5532TIP3   OH238086   4.854   3.107  15.798  0.2673  0.2935 -0.8934
 5532TIP3    H138087   4.850   3.128  15.705 -1.1294  2.2294 -0.4280
 5532TIP3    H238088   4.767   3.075  15.820  0.7282 -0.6137 -0.3493
 5533TIP3   OH238089   1.479   4.179   1.984 -0.1599 -0.6240  0.5562
 5533TIP3    H138090   1.546   4.227   1.935  0.1429 -1.1890  0.4175
 5533TIP3    H238091   1.520   4.157   2.067 -0.5380 -0.0237  0.9087
 5534TIP3   OH238092   4.124   3.359   3.471  0.4249 -0.5829 -0.1301
 5534TIP3    H138093   4.125   3.269   3.504  2.6303 -0.1967  0.9138
 5534TIP3    H238094   4.034   3.389   3.486 -0.6466 -2.9585 -1.5268
 5535TIP3   OH238095   5.998   5.903  16.880  0.6323 -0.0745  0.2094
 5535TIP3    H138096   6.088   5.914  16.849 -0.0229  0.1566 -1.6934
 5535TIP3    H238097   5.960   5.836  16.822 -0.6810  0.4663  0.4129
 5536TIP3   OH238098   0.461   1.391  17.020 -0.0251 -0.1406  0.3140
 5536TIP3    H138099   0.530   1.443  16.978  0.8716 -1.5012  0.0579
 5536TIP3    H238100   0.505   1.309  17.044 -1.3894 -0.7388  0.7909
 5537TIP3   OH238101   0.430   6.705  13.632 -0.1124 -0.1148  0.5202
 5537TIP3    H138102   0.397   6.626  13.675  0.5721  0.1747  1.6027
 5537TIP3    H238103   0.524   6.704  13.651  0.2983 -0.2615 -1.4387
 5538TIP3   OH238104   3.702   1.338   2.448  0.4913 -0.1663  0.2364
 5538TIP3    H138105   3.648   1.401   2.401 -0.0614 -1.0957 -0.4072
 5538TIP3    H238106   3.732   1.384   2.526  2.7027  1.9344 -1.7610
 5539TIP3   OH238107   3.260   4.290   4.724 -0.2315  0.5804 -0.5217
 5539TIP3    H138108   3.250   4.384   4.740 -3.0120  0.1050  0.6712
 5539TIP3    H238109   3.279   4.253   4.810  0.0449 -0.0662 -0.8588
 5540TIP3   OH238110   3.889   0.544   2.435  0.1483 -0.3978  0.8122
 5540TIP3    H138111   3.960   0.518   2.493 -0.6413 -2.5802  0.8654
 5540TIP3    H238112   3.821   0.478   2.450 -1.6150  1.2682  0.2684
 5541TIP3   OH238113   5.946   5.631   6.783  0.6333 -0.6538  0.0534
 5541TIP3    H138114   5.899   5.630   6.866  0.8120 -1.8898  0.1418
 5541TIP3    H238115   6.035   5.603   6.805  1.3627  1.3780 -0.1622
 5542TIP3   OH238116   4.022   1.317   2.721  0.4700 -0.1132  0.3511
 5542TIP3    H138117   4.004   1.378   2.793  0.4260  0.8271 -0.4314
 5542TIP3    H238118   4.117   1.302   2.725  0.6925  1.0211 -0.2096
 5543TIP3   OH238119   3.993   3.155   5.825 -0.0078  0.0733  0.2245
 5543TIP3    H138120   3.939   3.142   5.902  1.1141  0.3706  1.0726
 5543TIP3    H238121   4.032   3.069   5.808  1.4229  0.4938  1.2811
 5544TIP3   OH238122   0.335   3.253   2.171  0.4026  0.6310 -0.1422
 5544TIP3    H138123   0.376   3.339   2.170  2.4171 -0.2945 -2.3814
 5544TIP3    H238124   0.353   3.216   2.084  0.2033 -2.3319  1.0091
 5545TIP3   OH238125   0.136   5.217   6.331  0.5874 -0.1864 -0.4764
 5545TIP3    H138126   0.082   5.168   6.269  0.3815  0.1724 -0.5767
 5545TIP3    H238127   0.188   5.276   6.276  1.1395 -0.5780 -0.3905
 5546TIP3   OH238128   0.626   3.807   3.843 -0.4919 -0.4118 -0.3038
 5546TIP3    H138129   0.576   3.774   3.918  0.9809  0.3765  1.0437
 5546TIP3    H238130   0.630   3.733   3.782 -1.2892 -1.2031  0.5931
 5547TIP3   OH238131   0.635   5.057   5.280  0.1214 -0.5907 -0.1826
 5547TIP3    H138132   0.641   4.964   5.259 -0.7805 -0.3450 -1.6388
 5547TIP3    H238133   0.694   5.069   5.355 -1.8415 -2.8686  1.8482
 5548TIP3   OH238134   6.417   3.610   6.388  0.3021 -0.4590 -0.3554
 5548TIP3    H138135   6.323   3.624   6.377  0.2900 -0.0251  0.2940
 5548TIP3    H238136   6.424   3.523   6.427 -0.0087  0.8678  2.7693
 5549TIP3   OH238137   6.443   0.624  14.896 -0.1171 -0.5257 -0.2753
 5549TIP3    H138138   6.387   0.547  14.896  0.3984 -0.9139 -1.4325
 5549TIP3    H238139   6.474   0.631  14.805  0.6976  0.4095  0.0658
 5550TIP3   OH238140   5.568   3.559  12.172 -0.0378  0.4245 -0.2211
 5550TIP3    H138141   5.500   3.517  12.119  0.8517  1.1639 -1.9609
 5550TIP3    H238142   5.519   3.603  12.242 -1.3314  0.6101 -1.2182
 5551TIP3   OH238143   3.180   5.129   3.309  0.1483 -0.0201 -0.1025
 5551TIP3    H138144   3.251   5.185   3.340  0.1262  0.7533 -1.4389
 5551TIP3    H238145   3.167   5.154   3.218 -0.7877 -1.2503 -0.3236
 5552TIP3   OH238146   4.420   4.707  13.266  0.0679 -0.1291 -0.2400
 5552TIP3    H138147   4.501   4.759  13.269  1.1309 -1.7570 -0.4625
 5552TIP3    H238148   4.447   4.621  13.236 -1.3726 -1.4428  2.0545
 5553TIP3   OH238149   3.719   3.314   2.510 -0.1046 -0.1432  0.1315
 5553TIP3    H138150   3.691   3.225   2.535 -0.2524  0.3063  1.6155
 5553TIP3    H238151   3.648   3.346   2.455 -1.4210  0.0860  1.9127
 5554TIP3   OH238152   5.152   0.087  15.978  0.7076  0.1113  0.0875
 5554TIP3    H138153   5.191   0.000  15.966  0.4527  0.0450 -0.2731
 5554TIP3    H238154   5.132   0.092  16.071  0.1239 -0.4754 -0.0019
 5555TIP3   OH238155   1.511   5.817   3.929 -0.3677 -0.3560 -0.0509
 5555TIP3    H138156   1.458   5.777   3.998  0.8408 -2.2376 -0.1689
 5555TIP3    H238157   1.483   5.909   3.927 -0.7784 -0.3845  2.5986
 5556TIP3   OH238158   2.921   1.638  12.590  0.0462 -0.2924  0.1207
 5556TIP3    H138159   2.913   1.548  12.622  1.3866 -0.5430 -0.2047
 5556TIP3    H238160   3.012   1.662  12.609  0.5647 -0.0579 -2.3965
 5557TIP3   OH238161   1.550   3.355   5.829  0.4847  0.1670 -0.2729
 5557TIP3    H138162   1.553   3.433   5.774 -0.3676 -0.1642 -0.7966
 5557TIP3    H238163   1.499   3.292   5.778  3.0428 -1.4927 -0.8149
 5558TIP3   OH238164   0.733   5.898  14.110 -0.2437  0.0999 -0.5252
 5558TIP3    H138165   0.672   5.890  14.183 -0.5659  1.5481 -0.6251
 5558TIP3    H238166   0.689   5.955  14.047  0.4286 -0.3645 -1.4439
 5559TIP3   OH238167   6.502   6.082  10.936  0.5279 -0.1824  0.1917
 5559TIP3    H138168   6.434   6.127  10.986  2.3230  1.7574  0.9355
 5559TIP3    H238169   6.528   6.145  10.869  2.1165 -0.6080  0.3955
 5560TIP3   OH238170   3.210   3.917   2.810 -0.6498  0.2948 -0.3673
 5560TIP3    H138171   3.187   4.007   2.788 -1.7562  0.3541  0.9443
 5560TIP3    H238172   3.289   3.899   2.760  0.6126  2.5950  0.7573
 5561TIP3   OH238173   1.836   3.384  15.201  0.1679  0.0538 -0.3732
 5561TIP3    H138174   1.864   3.326  15.130  1.8956  0.3227  0.0698
 5561TIP3    H238175   1.762   3.433  15.165 -0.1225 -1.0995 -1.3754
 5562TIP3   OH238176   6.688   1.311   1.665  0.7831  0.0304 -0.9144
 5562TIP3    H138177   6.692   1.325   1.759 -0.3323  4.0504 -1.3724
 5562TIP3    H238178   6.778   1.290   1.640  1.3751  0.4429  0.8117
 5563TIP3   OH238179   2.230   3.851  11.672 -0.1073 -0.0900 -0.1454
 5563TIP3    H138180   2.166   3.895  11.728  1.2879 -1.3279  2.5240
 5563TIP3    H238181   2.304   3.912  11.668  0.5236 -0.7656  0.9008
 5564TIP3   OH238182   5.360   3.847   6.336 -0.0336  0.5105 -0.1151
 5564TIP3    H138183   5.270   3.830   6.363 -0.4345 -1.3747 -2.4765
 5564TIP3    H238184   5.413   3.817   6.410 -1.3152  1.5781  1.2659
 5565TIP3   OH238185   1.682   2.166  11.240  0.2097  0.1346 -0.6746
 5565TIP3    H138186   1.736   2.144  11.316 -1.9701  1.2749  1.2639
 5565TIP3    H238187   1.721   2.245  11.204  0.3430  0.4837  0.2256
 5566TIP3   OH238188   4.776   1.383   3.816  0.0662  0.0281 -0.1668
 5566TIP3    H138189   4.797   1.403   3.725 -0.9641  0.7994 -0.2383
 5566TIP3    H238190   4.736   1.463   3.850 -2.5133 -1.3127  0.0376
 5567TIP3   OH238191   0.235   5.388  12.866  0.4436  0.0475 -0.8455
 5567TIP3    H138192   0.329   5.393  12.850  0.7693  0.3041  1.0832
 5567TIP3    H238193   0.197   5.377  12.779  2.3716 -1.8780 -1.4942
 5568TIP3   OH238194   5.077   6.762   4.741 -0.2692  0.5925  0.7224
 5568TIP3    H138195   5.018   6.838   4.743 -1.2348 -0.1018 -0.5322
 5568TIP3    H238196   5.165   6.800   4.741 -0.7379  1.7124  0.4028
 5569TIP3   OH238197   4.335   3.546  13.797  0.9087 -0.5532  0.3377
 5569TIP3    H138198   4.353   3.634  13.765  0.6218 -1.1992 -1.6515
 5569TIP3    H238199   4.243   3.547  13.823  0.8487 -0.3332  0.1057
 5570TIP3   OH238200   2.769   2.259   2.011 -0.4055 -0.5225  0.4092
 5570TIP3    H138201   2.770   2.171   2.049 -1.2259  0.0953  1.9181
 5570TIP3    H238202   2.684   2.295   2.037  0.3525  1.0922  0.6926
 5571TIP3   OH238203   6.637   3.153  12.554 -0.5676 -0.3446 -0.3633
 5571TIP3    H138204   6.700   3.127  12.621 -1.1718  1.0167  0.7587
 5571TIP3    H238205   6.583   3.075  12.540 -0.6932 -0.5177  1.0337
 5572TIP3   OH238206   2.252   2.857   2.610 -0.1369  0.0372  0.2031
 5572TIP3    H138207   2.293   2.831   2.527  1.0265 -0.2366  0.8666
 5572TIP3    H238208   2.310   2.923   2.647 -1.1101  0.8078  0.3917
 5573TIP3   OH238209   0.699   1.985   2.875 -0.4339  0.5565 -0.3848
 5573TIP3    H138210   0.720   1.991   2.968 -2.5163  1.3036  0.0576
 5573TIP3    H238211   0.757   2.049   2.833 -0.5719  1.3236  0.5770
 5574TIP3   OH238212   6.319   0.751  13.425 -0.2594 -0.3008  0.0414
 5574TIP3    H138213   6.322   0.818  13.357 -1.7172 -1.3575 -1.1117
 5574TIP3    H238214   6.336   0.798  13.506 -1.8131  1.5600 -0.6839
 5575TIP3   OH238215   5.333   0.684   1.825  0.1536 -0.4801  0.1641
 5575TIP3    H138216   5.330   0.680   1.920 -0.4522  0.2894  0.1923
 5575TIP3    H238217   5.358   0.597   1.797 -0.6500 -0.9883  0.9997
 5576TIP3   OH238218   6.096   5.732   3.736 -0.1169  0.0346  0.1970
 5576TIP3    H138219   6.131   5.681   3.664  0.8476 -0.4982  1.0418
 5576TIP3    H238220   6.171   5.751   3.792 -0.6156  1.5892  0.3844
 5577TIP3   OH238221   5.996   5.781   1.291  0.5250 -0.6109  0.2872
 5577TIP3    H138222   6.023   5.695   1.325 -0.7583 -0.6198  1.3360
 5577TIP3    H238223   5.967   5.829   1.369 -0.0632  0.2848 -0.4755
 5578TIP3   OH238224   3.624   5.089  12.818 -0.5729 -0.0678  0.4618
 5578TIP3    H138225   3.709   5.064  12.853 -0.6914 -1.4581 -0.2126
 5578TIP3    H238226   3.590   5.153  12.880  1.9254  2.1982 -0.4177
 5579TIP3   OH238227   2.975   3.687   5.749 -0.2700 -0.0619  0.1232
 5579TIP3    H138228   2.897   3.680   5.693  0.5342  0.3723 -1.0894
 5579TIP3    H238229   3.029   3.612   5.726 -0.2033 -0.2113  0.7581
 5580TIP3   OH238230   5.881   2.402   3.924  0.1888 -0.6675  0.2350
 5580TIP3    H138231   5.929   2.325   3.954  0.8909 -0.2085  0.3019
 5580TIP3    H238232   5.947   2.455   3.879 -0.5179 -0.6160 -0.7552
 5581TIP3   OH238233   5.349   2.388  11.985 -0.3815  0.1283 -0.1867
 5581TIP3    H138234   5.370   2.296  11.998 -1.4483 -0.2786 -1.2705
 5581TIP3    H238235   5.287   2.409  12.055  1.3668  0.5631  1.2601
 5582TIP3   OH238236   6.042   5.944  16.508  0.6996  0.6038  0.2121
 5582TIP3    H138237   6.030   5.887  16.584 -0.3869 -0.0281 -0.4148
 5582TIP3    H238238   5.974   5.916  16.447  2.8896 -0.3282 -1.8514
 5583TIP3   OH238239   6.665   0.230   0.206 -0.0874 -0.0660  0.6470
 5583TIP3    H138240   6.655   0.148   0.254  0.9375 -0.0603  0.8854
 5583TIP3    H238241   6.754   0.226   0.169  0.4200  1.4447  1.6325
 5584TIP3   OH238242   1.396   6.809  15.946  0.0831  0.0214  0.3008
 5584TIP3    H138243   1.429   6.778  16.031  0.5862  0.3142  0.2161
 5584TIP3    H238244   1.447   6.888  15.929  1.0400 -0.8511 -0.9878
 5585TIP3   OH238245   2.702   2.140   3.866  0.0212 -0.5128  0.3938
 5585TIP3    H138246   2.743   2.209   3.918  1.2029 -1.7600  1.1707
 5585TIP3    H238247   2.659   2.083   3.930  0.7731 -1.5956 -0.0296
 5586TIP3   OH238248   1.403   5.554  15.247  0.5582  0.2423 -0.1503
 5586TIP3    H138249   1.318   5.590  15.274 -1.5679 -3.6917 -1.2153
 5586TIP3    H238250   1.432   5.611  15.176 -1.1655  1.6975  0.2785
 5587TIP3   OH238251   1.767   0.264  11.278  0.2985  0.3788 -0.3747
 5587TIP3    H138252   1.781   0.301  11.365  2.3198 -0.7305 -0.2018
 5587TIP3    H238253   1.672   0.248  11.273  0.2068  0.1586  1.7466
 5588TIP3   OH238254   1.307   5.603  10.858 -0.5207 -0.4441  0.0644
 5588TIP3    H138255   1.310   5.534  10.924 -0.7329 -1.0676 -0.5651
 5588TIP3    H238256   1.237   5.661  10.886  0.9838  0.6520  1.6931
 5589TIP3   OH238257   6.211   3.722   1.740 -0.2248 -0.0445 -0.2864
 5589TIP3    H138258   6.186   3.693   1.828  0.3769 -0.5998 -0.2968
 5589TIP3    H238259   6.162   3.664   1.682 -0.2321 -0.0062 -0.3180
 5590TIP3   OH238260   3.095   4.891   3.103 -0.3505  0.2546 -0.0281
 5590TIP3    H138261   3.133   4.804   3.116  1.5495  0.8119 -1.4357
 5590TIP3    H238262   3.055   4.914   3.186  0.2284 -1.4684  0.7287
 5591TIP3   OH238263   5.871   2.920  13.643 -0.1097  0.2848  0.7279
 5591TIP3    H138264   5.827   2.905  13.559 -0.8585  2.3364  0.7200
 5591TIP3    H238265   5.946   2.861  13.641 -1.4423 -1.4556 -0.3462
 5592TIP3   OH238266   1.669   2.766  15.995  0.2762 -0.8546  0.3507
 5592TIP3    H138267   1.640   2.677  15.972  0.0762 -0.5768 -0.4885
 5592TIP3    H238268   1.752   2.777  15.948 -0.9213  0.2975 -1.5794
 5593TIP3   OH238269   5.876   5.801   3.551 -0.2713 -0.0937  0.2798
 5593TIP3    H138270   5.945   5.867   3.553  0.1007 -0.4986  1.3975
 5593TIP3    H238271   5.860   5.786   3.458  1.7768 -0.6524 -0.0053
 5594TIP3   OH238272   5.630   1.625  16.314 -0.1206  0.2629  0.1859
 5594TIP3    H138273   5.715   1.586  16.294  0.5634  1.6276  0.3595
 5594TIP3    H238274   5.566   1.571  16.267  0.8514 -0.6704 -0.0752
 5595TIP3   OH238275   4.584   1.487  13.378 -0.5664 -0.0786  0.1484
 5595TIP3    H138276   4.608   1.411  13.325 -0.4336  0.2068 -0.2020
 5595TIP3    H238277   4.615   1.562  13.328 -1.8201  0.2800 -0.1017
 5596TIP3   OH238278   3.919   2.605  13.133 -0.1624 -0.3733 -0.3749
 5596TIP3    H138279   4.002   2.621  13.178 -1.3281  0.3520  1.5473
 5596TIP3    H238280   3.939   2.620  13.040  1.2500  2.3558  0.3173
 5597TIP3   OH238281   2.353   0.631   1.389 -0.2840  0.3713 -0.3411
 5597TIP3    H138282   2.342   0.603   1.480 -0.5954  0.0546 -0.4773
 5597TIP3    H238283   2.283   0.587   1.342 -0.6656  1.2276 -0.5880
 5598TIP3   OH238284   5.116   0.795  17.216 -0.1600 -0.6823 -0.0032
 5598TIP3    H138285   5.173   0.733  17.171  0.3346  0.1308 -0.5017
 5598TIP3    H238286   5.040   0.803  17.158 -1.3577 -2.6798  1.2323
 5599TIP3   OH238287   6.370   2.695   3.018 -0.0052  0.2505  0.0573
 5599TIP3    H138288   6.454   2.660   2.991 -0.0876  0.0502  0.0562
 5599TIP3    H238289   6.364   2.675   3.111  0.0110  0.3921  0.0891
 5600TIP3   OH238290   4.792   3.123   0.044  0.1644  0.3022 -0.4363
 5600TIP3    H138291   4.702   3.105   0.017 -0.4771 -0.1597  1.8762
 5600TIP3    H238292   4.796   3.219   0.051 -0.0019  0.3510 -1.0351
 5601TIP3   OH238293   3.727   6.488   2.479  1.3461  0.2955  0.0163
 5601TIP3    H138294   3.748   6.521   2.391 -1.0732  0.6577 -0.4658
 5601TIP3    H238295   3.710   6.566   2.530  2.6610  0.0776  0.8012
 5602TIP3   OH238296   2.557   2.599   2.192 -0.1720 -0.3893 -0.4801
 5602TIP3    H138297   2.622   2.612   2.123 -0.1516 -3.7387 -1.1806
 5602TIP3    H238298   2.473   2.619   2.149  0.1001  0.5700 -0.5674
 5603TIP3   OH238299   0.791   6.558  14.601  0.0830 -0.5752  0.5765
 5603TIP3    H138300   0.740   6.636  14.583  0.1731 -0.6435  0.0192
 5603TIP3    H238301   0.730   6.498  14.644 -0.0543 -0.2962  0.7671
 5604TIP3   OH238302   4.493   0.096   3.616  0.0110  0.1158  0.2957
 5604TIP3    H138303   4.486   0.019   3.672 -3.7989 -0.4216 -0.7574
 5604TIP3    H238304   4.564   0.074   3.555 -1.9694 -3.2663 -0.9306
 5605TIP3   OH238305   6.280   4.810   4.029 -0.0432  0.5221 -0.3439
 5605TIP3    H138306   6.274   4.728   3.980  0.2318  0.7926 -0.8367
 5605TIP3    H238307   6.226   4.795   4.107 -2.5940  0.9849 -1.9680
 5606TIP3   OH238308   5.446   1.238  11.564 -0.3934  0.2393  0.7883
 5606TIP3    H138309   5.412   1.149  11.554 -0.6980  0.4323  0.0469
 5606TIP3    H238310   5.374   1.287  11.604 -0.0457  0.0378  1.6685
 5607TIP3   OH238311   6.379   3.772   2.718 -0.9190 -0.4473  0.2141
 5607TIP3    H138312   6.395   3.858   2.756 -1.7736 -0.2836  0.2278
 5607TIP3    H238313   6.374   3.713   2.793  0.1986 -0.6057  0.1722
 5608TIP3   OH238314   1.156   0.570  14.908  0.4943 -0.0877  0.0169
 5608TIP3    H138315   1.227   0.505  14.911 -0.5115 -1.1324  1.8382
 5608TIP3    H238316   1.197   0.648  14.871  2.5319 -0.7704  0.7599
 5609TIP3   OH238317   5.019   1.635  17.043  0.0239  0.2677  0.0497
 5609TIP3    H138318   4.994   1.545  17.062  0.3833 -0.0826 -1.0930
 5609TIP3    H238319   5.113   1.630  17.024  0.2565  1.0440  0.9532
 5610TIP3   OH238320   0.997   0.432   3.498  0.4555 -0.1294 -0.0122
 5610TIP3    H138321   0.996   0.525   3.524 -0.8140  0.5078 -2.2757
 5610TIP3    H238322   1.089   0.415   3.475  0.5229  0.8380 -0.4918
 5611TIP3   OH238323   2.514   6.308  15.982 -0.3192  0.3612 -0.6927
 5611TIP3    H138324   2.436   6.301  15.926 -0.2507  0.6574 -0.8213
 5611TIP3    H238325   2.540   6.217  15.997 -2.3903  0.1161  1.7170
 5612TIP3   OH238326   2.493   5.482  16.534  0.0253  0.1030  1.0119
 5612TIP3    H138327   2.451   5.502  16.451  0.0093 -1.5529  0.6075
 5612TIP3    H238328   2.421   5.475  16.597 -0.1696 -1.0303  0.6666
 5613TIP3   OH238329   1.338   5.291   2.143  0.1790 -0.4008 -0.3985
 5613TIP3    H138330   1.362   5.198   2.139  0.8754 -0.2483  0.0708
 5613TIP3    H238331   1.279   5.297   2.218  0.2333 -0.4461 -0.3517
 5614TIP3   OH238332   3.427   0.274   1.212  0.3958  0.0299 -0.5320
 5614TIP3    H138333   3.341   0.239   1.190  0.0033  1.6799 -1.7160
 5614TIP3    H238334   3.438   0.254   1.305 -1.5893  0.4628 -0.1787
 5615TIP3   OH238335   2.517   2.684  11.042  0.6699  0.3501  0.3764
 5615TIP3    H138336   2.485   2.694  10.953 -1.2733 -0.5425  0.9514
 5615TIP3    H238337   2.569   2.603  11.040  0.7664  0.4201  0.0267
 5616TIP3   OH238338   3.823   0.481   3.199  0.1021 -0.7476 -0.0991
 5616TIP3    H138339   3.807   0.574   3.216 -1.7849 -1.1905  0.6006
 5616TIP3    H238340   3.785   0.465   3.113  1.9181 -0.5004 -0.9600
 5617TIP3   OH238341   0.542   5.060   0.353  0.1943 -0.2019  0.3907
 5617TIP3    H138342   0.619   5.010   0.379  1.1477  0.7579 -0.5002
 5617TIP3    H238343   0.563   5.092   0.265 -1.4260 -0.3230 -0.0559
 5618TIP3   OH238344   1.897   1.298  12.254  0.0785 -0.5005  0.1703
 5618TIP3    H138345   1.921   1.332  12.340  0.1713  1.5927 -0.6480
 5618TIP3    H238346   1.906   1.373  12.195 -4.5995 -0.5408 -0.8539
 5619TIP3   OH238347   6.272   0.804   2.467 -0.5194  0.0949  0.1528
 5619TIP3    H138348   6.275   0.892   2.431 -0.6427  0.1507  0.2798
 5619TIP3    H238349   6.357   0.793   2.510 -0.6073  0.2494  0.3665
 5620TIP3   OH238350   5.035   1.891   1.785 -0.1909  0.6322  0.1145
 5620TIP3    H138351   5.101   1.833   1.747 -0.2423 -0.6102  1.8218
 5620TIP3    H238352   5.013   1.952   1.715  0.7002 -0.7102 -1.3823
 5621TIP3   OH238353   5.407   1.480   1.526  0.0171  0.0540  0.4955
 5621TIP3    H138354   5.400   1.447   1.615  0.3922 -1.5919 -0.0694
 5621TIP3    H238355   5.316   1.496   1.500 -0.0729  0.8649  1.2754
 5622TIP3   OH238356   2.637   5.793  13.046 -0.2419 -0.2256 -0.1730
 5622TIP3    H138357   2.706   5.730  13.069 -0.2068  0.5403  1.9205
 5622TIP3    H238358   2.615   5.836  13.128 -1.2621  1.5207 -1.3167
 5623TIP3   OH238359   0.957   5.634   1.951  0.5304 -0.6483  0.5726
 5623TIP3    H138360   0.904   5.600   2.023  0.1903  2.8601  2.0452
 5623TIP3    H238361   0.893   5.655   1.883  0.2132  1.4662  1.4924
 5624TIP3   OH238362   2.254   0.337  14.619 -0.1904 -0.1193  0.7837
 5624TIP3    H138363   2.326   0.388  14.582  0.1033 -1.2116 -0.1579
 5624TIP3    H238364   2.258   0.253  14.574 -2.3325 -0.0482  0.4173
 5625TIP3   OH238365   0.857   2.661   3.453  0.2555 -0.1353 -0.3764
 5625TIP3    H138366   0.770   2.648   3.415 -0.6438  3.2184  0.3320
 5625TIP3    H238367   0.876   2.754   3.438  4.7423 -1.2724 -2.4701
 5626TIP3   OH238368   1.801   1.886   4.306 -0.3640  0.0939  0.1464
 5626TIP3    H138369   1.718   1.875   4.352 -0.8629  1.2542 -0.4588
 5626TIP3    H238370   1.827   1.976   4.325  1.9853 -0.9926  2.3130
 5627TIP3   OH238371   6.362   4.927  11.696  0.9092 -0.4439 -0.8057
 5627TIP3    H138372   6.398   4.902  11.781  0.1261 -0.3038 -0.4176
 5627TIP3    H238373   6.269   4.905  11.703  0.5427  0.9302 -1.0762
 5628TIP3   OH238374   5.018   5.948  11.281  0.5444  0.2365 -0.0181
 5628TIP3    H138375   5.037   5.856  11.302 -0.4766  0.3372  1.4995
 5628TIP3    H238376   5.103   5.988  11.267  1.2573 -0.1500  2.8816
 5629TIP3   OH238377   4.135   6.430   1.237  0.8148 -0.0837 -0.2843
 5629TIP3    H138378   4.177   6.506   1.277 -1.0940  1.0718 -0.4024
 5629TIP3    H238379   4.101   6.379   1.310  2.2778 -0.9527 -0.1948
 5630TIP3   OH238380   3.588   3.241   6.137  0.3380 -0.1312  0.1245
 5630TIP3    H138381   3.527   3.212   6.205 -0.8031  0.0118 -0.8241
 5630TIP3    H238382   3.582   3.337   6.139  1.2933 -0.0702  0.6984
 5631TIP3   OH238383   4.944   6.773  13.026 -0.2636 -0.2497 -0.0254
 5631TIP3    H138384   4.871   6.818  12.983 -0.2424 -0.0453  0.1471
 5631TIP3    H238385   4.932   6.681  13.004 -2.3389 -0.6555  2.4872
 5632TIP3   OH238386   5.924   1.729  15.029 -0.6454  0.0800  0.4491
 5632TIP3    H138387   5.832   1.742  15.004 -0.7087  0.1011  0.6951
 5632TIP3    H238388   5.973   1.791  14.975 -0.7004 -0.5028 -0.2708
 5633TIP3   OH238389   3.077   5.089   1.556 -0.4031  0.0927 -0.7170
 5633TIP3    H138390   3.039   5.120   1.638 -0.2457 -0.1355 -0.5576
 5633TIP3    H238391   3.046   5.151   1.490 -3.2913 -1.6466 -1.0653
 5634TIP3   OH238392   0.972   4.572   4.524  0.1186  0.6507  0.1733
 5634TIP3    H138393   1.060   4.540   4.543 -0.6543 -0.5516  1.9079
 5634TIP3    H238394   0.919   4.493   4.514 -1.1989  1.3640  1.3505
 5635TIP3   OH238395   3.596   1.597   2.054 -0.0901 -0.7674 -0.1841
 5635TIP3    H138396   3.632   1.680   2.025  1.0305 -1.6228 -1.2864
 5635TIP3    H238397   3.501   1.612   2.057 -0.2197 -0.4271 -3.7245
 5636TIP3   OH238398   5.248   0.905   0.774  0.6683 -0.7017 -0.2209
 5636TIP3    H138399   5.328   0.923   0.823  0.1513 -1.2033  0.8312
 5636TIP3    H238400   5.267   0.825   0.725  0.5128 -1.3558  0.7584
 5637TIP3   OH238401   4.136   4.928  16.675 -0.0357  0.1301  0.0758
 5637TIP3    H138402   4.203   4.948  16.611 -0.3451 -2.2692 -1.0645
 5637TIP3    H238403   4.159   4.840  16.707 -2.4054 -0.5906 -0.0900
 5638TIP3   OH238404   4.421   5.925  11.359 -0.7052  0.0742 -0.1585
 5638TIP3    H138405   4.392   6.005  11.315  0.5273 -0.2164 -1.5372
 5638TIP3    H238406   4.480   5.956  11.428 -0.5802  0.3845 -0.4026
 5639TIP3   OH238407   3.429   3.789   1.344 -0.5765  0.0205  0.1363
 5639TIP3    H138408   3.373   3.829   1.278 -1.6472  0.9702  1.5781
 5639TIP3    H238409   3.474   3.718   1.298 -1.4350  0.5423 -1.5443
 5640TIP3   OH238410   1.317   4.777  12.084 -0.4219 -0.4484  0.6364
 5640TIP3    H138411   1.282   4.688  12.090  0.2620 -0.6549  1.9506
 5640TIP3    H238412   1.411   4.764  12.071 -0.2992  0.0731  0.9781
 5641TIP3   OH238413   4.891   6.023  16.551  0.2024 -0.0531 -0.3129
 5641TIP3    H138414   4.972   6.007  16.502 -0.0264  1.8384 -1.3663
 5641TIP3    H238415   4.843   6.086  16.497 -1.1726  0.1892  1.1707
 5642TIP3   OH238416   0.968   0.770  13.376  0.4644  0.1867  0.3656
 5642TIP3    H138417   0.987   0.855  13.337 -1.3752  0.0709 -0.8208
 5642TIP3    H238418   1.012   0.773  13.461  0.3722  2.3436  0.3699
 5643TIP3   OH238419   3.814   6.770   6.683  0.1638 -0.5751  0.5647
 5643TIP3    H138420   3.761   6.690   6.678 -1.5577  0.6314 -0.9532
 5643TIP3    H238421   3.893   6.750   6.633 -0.8541 -0.8947 -0.9334
 5644TIP3   OH238422   3.710   0.321   3.414  0.2182  0.9043 -0.0080
 5644TIP3    H138423   3.777   0.321   3.346 -0.1147 -0.0536 -0.3323
 5644TIP3    H238424   3.641   0.379   3.381 -0.5527 -0.6128 -1.0822
 5645TIP3   OH238425   1.232   6.430   2.130 -0.2532  0.1158 -0.0879
 5645TIP3    H138426   1.218   6.459   2.220  1.2385  0.2088  0.1227
 5645TIP3    H238427   1.144   6.408   2.098 -1.0298  1.8113  0.7873
 5646TIP3   OH238428   5.542   0.861   3.785 -0.8061  0.6385  0.1932
 5646TIP3    H138429   5.626   0.827   3.818  0.3579  2.7789 -0.4473
 5646TIP3    H238430   5.505   0.789   3.734  0.4624 -0.4718  0.8116
 5647TIP3   OH238431   6.246   3.709   0.917  0.4593 -0.6055  0.1977
 5647TIP3    H138432   6.341   3.702   0.907  0.4795 -0.8091  0.5481
 5647TIP3    H238433   6.212   3.695   0.828  0.7886  0.1081 -0.0465
 5648TIP3   OH238434   6.770   2.489   2.149 -0.0272  0.2282  0.4564
 5648TIP3    H138435   6.822   2.430   2.094 -2.1150  0.1234 -1.4506
 5648TIP3    H238436   6.777   2.452   2.237  0.3551 -1.7002 -0.3655
 5649TIP3   OH238437   4.391   2.704   2.240  0.3320 -0.6688 -0.2387
 5649TIP3    H138438   4.347   2.690   2.325 -1.1760 -0.9506 -1.0399
 5649TIP3    H238439   4.475   2.744   2.263  0.0771 -1.0180  1.4120
 5650TIP3   OH238440   3.905   4.396   0.644  0.4532 -0.1873  0.2620
 5650TIP3    H138441   3.842   4.401   0.573  0.3794 -0.6801  0.2948
 5650TIP3    H238442   3.989   4.383   0.600  0.8346  2.4556  0.0949
 5651TIP3   OH238443   5.144   1.412   2.504 -0.7411 -0.3857 -0.3261
 5651TIP3    H138444   5.160   1.341   2.566 -0.5550  1.2386  1.5771
 5651TIP3    H238445   5.048   1.418   2.498 -0.7818  0.2860  0.8419
 5652TIP3   OH238446   5.860   0.781  10.127 -0.0401  0.2239  1.0278
 5652TIP3    H138447   5.899   0.707  10.081  0.8388  0.4362  1.4357
 5652TIP3    H238448   5.932   0.842  10.141 -1.1229  2.1232 -1.1512
 5653TIP3   OH238449   5.717   1.736   3.879  0.0525 -0.6315  0.4942
 5653TIP3    H138450   5.685   1.781   3.801  0.0136 -0.3527  0.6728
 5653TIP3    H238451   5.658   1.763   3.949 -0.1133 -1.1421  0.5536
 5654TIP3   OH238452   1.169   4.122  12.000 -0.2388 -0.1174  0.3278
 5654TIP3    H138453   1.105   4.062  12.038  0.9771 -1.9904 -0.4828
 5654TIP3    H238454   1.141   4.132  11.909  0.2021 -0.3598  0.1646
 5655TIP3   OH238455   4.893   3.327  12.313 -0.5079  0.1621  0.1560
 5655TIP3    H138456   4.868   3.394  12.377 -0.2022  0.3620  0.0672
 5655TIP3    H238457   4.893   3.245  12.363  0.8403  0.4679  0.6978
 5656TIP3   OH238458   4.915   2.341  16.864 -0.2772 -0.5907  0.8603
 5656TIP3    H138459   5.001   2.306  16.887  0.6842  1.3502  0.2963
 5656TIP3    H238460   4.923   2.436  16.876 -2.5812 -0.4350  1.5986
 5657TIP3   OH238461   2.991   0.428  13.030 -0.1461  0.1040 -0.3317
 5657TIP3    H138462   3.037   0.505  12.996 -1.8934  0.1234 -2.8002
 5657TIP3    H238463   3.012   0.358  12.968  0.5594 -1.1776  1.2960
 5658TIP3   OH238464   3.067   4.427  14.610  0.2742  0.2389  0.3279
 5658TIP3    H138465   3.096   4.357  14.552  0.9669  1.2632 -0.5956
 5658TIP3    H238466   3.135   4.433  14.677  0.5427  0.4379  0.0418
 5659TIP3   OH238467   2.933   2.720  14.258 -0.6254 -0.0408  0.3478
 5659TIP3    H138468   2.854   2.665  14.263  0.3771 -1.5700 -0.2534
 5659TIP3    H238469   2.987   2.690  14.331  0.1068 -0.1431 -0.2358
 5660TIP3   OH238470   4.274   5.123  14.300  0.2011 -0.4940 -0.5689
 5660TIP3    H138471   4.211   5.064  14.342  2.0096 -2.0132  0.0807
 5660TIP3    H238472   4.287   5.193  14.363 -1.5340  0.3667 -1.1122
 5661TIP3   OH238473   2.020   3.673  16.228  0.4803  0.1518 -0.6157
 5661TIP3    H138474   1.992   3.764  16.224 -0.0461  0.0940  1.0042
 5661TIP3    H238475   2.001   3.646  16.318  0.5889 -1.5633 -1.0694
 5662TIP3   OH238476   6.395   5.378  11.438  0.6867 -0.1627  0.3947
 5662TIP3    H138477   6.384   5.302  11.497  0.4617  0.5878  1.3326
 5662TIP3    H238478   6.459   5.348  11.373  1.4428 -0.8074  1.4003
 5663TIP3   OH238479   5.354   2.432  11.629 -0.4348  0.3219  0.2287
 5663TIP3    H138480   5.316   2.350  11.660 -1.4072  0.0902 -1.5478
 5663TIP3    H238481   5.387   2.474  11.708  2.2423 -2.8760  0.9203
 5664TIP3   OH238482   6.047   1.416  11.105  0.7941  0.0173  0.0319
 5664TIP3    H138483   6.113   1.354  11.137  1.4336 -0.3884 -2.0108
 5664TIP3    H238484   6.096   1.496  11.088  0.5006  0.1640 -0.1122
 5665TIP3   OH238485   0.066   2.711  12.167 -0.2639 -0.1196 -0.4297
 5665TIP3    H138486   0.018   2.637  12.204 -0.8129  0.6059  0.3379
 5665TIP3    H238487  -0.002   2.767  12.130 -0.0709  1.1183  1.0288
 5666TIP3   OH238488   3.700   4.085  12.355 -0.6964 -0.3061  0.2612
 5666TIP3    H138489   3.611   4.073  12.387 -0.0395 -2.8908  1.2568
 5666TIP3    H238490   3.701   4.040  12.271 -0.1585 -0.8654  0.5659
 5667TIP3   OH238491   4.015   0.441  16.678 -0.5940  0.2641 -0.0486
 5667TIP3    H138492   3.952   0.393  16.623  1.6802 -1.2151 -1.4328
 5667TIP3    H238493   4.076   0.374  16.709  2.0965  2.0984 -1.2304
 5668TIP3   OH238494   2.889   2.546  13.191  0.1296  0.1988 -0.2975
 5668TIP3    H138495   2.820   2.491  13.227  0.0674 -0.0597 -0.8113
 5668TIP3    H238496   2.914   2.603  13.264  0.7553 -1.0563  0.4973
 5669TIP3   OH238497   0.288   4.028  16.176 -0.6686 -0.2433 -0.2960
 5669TIP3    H138498   0.304   4.115  16.213 -1.4480 -0.5162  0.6904
 5669TIP3    H238499   0.375   3.995  16.154 -0.2460  0.1686  0.7376
 5670TIP3   OH238500   3.322   4.023  13.543  0.0889  0.3281  0.1117
 5670TIP3    H138501   3.295   4.112  13.523  1.2682  0.9065  1.0152
 5670TIP3    H238502   3.411   4.016  13.507  0.5012 -0.0430  1.1611
 5671TIP3   OH238503   1.143   2.580  11.654  0.0462  0.0153  0.2259
 5671TIP3    H138504   1.113   2.579  11.563 -0.0267  0.0631  0.2501
 5671TIP3    H238505   1.222   2.526  11.654 -1.0069 -1.5665  0.5040
 5672TIP3   OH238506   5.943   4.445  15.343  0.0342 -0.0733  0.1876
 5672TIP3    H138507   5.873   4.493  15.388  1.5567  0.1205  2.4010
 5672TIP3    H238508   6.011   4.511  15.327  0.0999 -0.4539 -1.1472
 5673TIP3   OH238509   2.196   6.260  13.070  0.7193 -0.0984  0.6225
 5673TIP3    H138510   2.164   6.222  13.152  0.0465 -0.9353 -0.0245
 5673TIP3    H238511   2.118   6.295  13.027  1.2397  1.4289  0.8962
 5674TIP3   OH238512   2.123   0.300  15.336 -0.1857  0.3176  0.0849
 5674TIP3    H138513   2.060   0.291  15.265  2.3009  1.3560 -2.3751
 5674TIP3    H238514   2.129   0.394  15.351  1.0860  0.2684 -0.0477
 5675TIP3   OH238515   6.441   4.250  12.218  0.2268  0.6435 -0.1629
 5675TIP3    H138516   6.432   4.323  12.280  2.9898 -0.0152  1.1149
 5675TIP3    H238517   6.507   4.280  12.156 -0.0182 -0.0386 -0.7512
 5676TIP3   OH238518   0.529   1.642   3.661 -0.3951 -0.4464  0.1215
 5676TIP3    H138519   0.483   1.567   3.698  1.3331 -1.6336 -0.1079
 5676TIP3    H238520   0.497   1.648   3.571  0.3427 -1.6545 -0.2265
 5677TIP3   OH238521   5.848   5.568  10.841 -0.1891  0.2308  0.4092
 5677TIP3    H138522   5.894   5.639  10.798 -0.7852  0.3812  0.0212
 5677TIP3    H238523   5.917   5.509  10.872  0.3664  1.5373  1.7231
 5678TIP3   OH238524   4.069   1.274  14.206  0.6814 -0.2731 -0.4034
 5678TIP3    H138525   4.060   1.368  14.222  1.5780 -0.1841 -0.4132
 5678TIP3    H238526   3.979   1.243  14.200  0.3151  0.0046  2.9908
 5679TIP3   OH238527   6.277   5.780  16.274  0.3537 -0.1008  0.1243
 5679TIP3    H138528   6.258   5.832  16.196 -0.4337  0.9722  1.0157
 5679TIP3    H238529   6.274   5.843  16.346 -0.4151 -1.3414  1.1980
 5680TIP3   OH238530   5.232   1.716  12.740  0.0322  0.4906 -0.8814
 5680TIP3    H138531   5.205   1.636  12.695 -0.6464  0.0322  0.2905
 5680TIP3    H238532   5.208   1.700  12.832  0.8534  1.6194 -0.4631
 5681TIP3   OH238533   5.971   6.107  12.183  0.6366 -0.3151 -0.3670
 5681TIP3    H138534   6.014   6.026  12.157  0.9754 -0.7489  1.4854
 5681TIP3    H238535   5.931   6.087  12.268  0.5968  1.4061  0.0395
 5682TIP3   OH238536   1.523   1.944  11.208 -0.1860 -0.2336 -0.3343
 5682TIP3    H138537   1.445   1.998  11.217 -0.2163 -0.2856 -0.2876
 5682TIP3    H238538   1.592   2.006  11.184  0.0110 -0.0194  0.7623
 5683TIP3   OH238539   2.985   1.813   1.336  0.7526  0.2946  0.7092
 5683TIP3    H138540   3.012   1.879   1.273 -0.3501 -1.6550 -1.9009
 5683TIP3    H238541   3.002   1.852   1.422  3.1433  2.6457 -0.7943
 5684TIP3   OH238542   2.892   5.042   1.976  0.3385  0.3110 -0.2727
 5684TIP3    H138543   2.869   4.952   1.953  0.9043  0.0920  0.0027
 5684TIP3    H238544   2.927   5.036   2.065  1.7941  0.5620 -0.8107
 5685TIP3   OH238545   3.157   4.545   4.637  0.2293  0.0002  0.2038
 5685TIP3    H138546   3.245   4.571   4.611  0.8276 -1.2927  0.9257
 5685TIP3    H238547   3.117   4.626   4.669  0.6319  0.9091 -1.5089
 5686TIP3   OH238548   6.531   2.271  11.651 -0.0448 -0.4449 -0.7709
 5686TIP3    H138549   6.455   2.321  11.681  1.2872  1.3404 -0.2646
 5686TIP3    H238550   6.546   2.301  11.562  0.4517 -0.3077 -0.6426
 5687TIP3   OH238551   0.610   2.415  11.590  0.0435  0.2037  0.4096
 5687TIP3    H138552   0.582   2.473  11.661 -1.2302 -1.1242  1.0214
 5687TIP3    H238553   0.658   2.472  11.530 -0.7158  1.7733  1.2663
 5688TIP3   OH238554   3.692   4.654   5.302  0.4993  0.0500 -0.5891
 5688TIP3    H138555   3.626   4.586   5.309  1.6763 -0.9508  1.4024
 5688TIP3    H238556   3.769   4.610   5.266  0.7644  0.6888 -0.8186
 5689TIP3   OH238557   3.802   4.980   5.570 -0.0980  0.3028 -0.2701
 5689TIP3    H138558   3.802   4.977   5.666 -0.5684 -0.8518 -0.2978
 5689TIP3    H238559   3.892   4.959   5.546 -0.3767 -1.1566 -0.1095
 5690TIP3   OH238560   1.136   4.501  14.309 -0.5053 -0.3254 -1.0370
 5690TIP3    H138561   1.132   4.453  14.226 -0.7223  0.2996 -1.3975
 5690TIP3    H238562   1.054   4.550  14.311 -1.4035 -1.8659  0.4962
 5691TIP3   OH238563   1.000   0.557   1.857  0.4337  0.0398  0.0335
 5691TIP3    H138564   0.973   0.552   1.766  1.9459  1.5522 -0.5232
 5691TIP3    H238565   1.006   0.465   1.886 -0.3603 -0.4314 -1.2742
 5692TIP3   OH238566   6.415   5.703   3.376  0.3689 -0.2244 -0.1206
 5692TIP3    H138567   6.510   5.698   3.362  0.8969 -0.9440  3.2387
 5692TIP3    H238568   6.395   5.796   3.373  2.2833  0.5213  4.8588
 5693TIP3   OH238569   4.084   3.978  12.339 -0.0861  0.0733  0.1783
 5693TIP3    H138570   4.041   3.893  12.327 -0.1813  0.2400 -0.6819
 5693TIP3    H238571   4.159   3.975  12.279  0.9011 -0.0671  1.3880
 5694TIP3   OH238572   3.345   3.045  12.030 -0.3335  0.3600 -0.1072
 5694TIP3    H138573   3.288   3.031  11.955 -1.0480 -1.4361  0.7566
 5694TIP3    H238574   3.287   3.080  12.098 -0.0717  0.1880  0.2083
 5695TIP3   OH238575   2.946   1.217  14.430  0.4873  0.0613  0.6016
 5695TIP3    H138576   2.973   1.200  14.520 -0.2385 -1.3611  0.5695
 5695TIP3    H238577   2.870   1.161  14.417  0.9130 -0.1590 -1.0666
 5696TIP3   OH238578   4.284   1.062  15.335 -0.2174 -0.2267 -0.2065
 5696TIP3    H138579   4.308   0.976  15.369 -0.2854 -0.0313  0.3419
 5696TIP3    H238580   4.258   1.046  15.245  0.7220 -0.6429 -0.4081
 5697TIP3   OH238581   2.066   2.375  17.172  0.4353  0.4473  0.4966
 5697TIP3    H138582   2.048   2.454  17.122 -3.0908 -0.4307  0.2231
 5697TIP3    H238583   2.116   2.320  17.113  1.3856  1.7572  0.0629
 5698TIP3   OH238584   0.867   3.410  16.114  0.1963 -0.6458  0.1330
 5698TIP3    H138585   0.778   3.439  16.135  0.7675  0.0769  1.6710
 5698TIP3    H238586   0.855   3.330  16.062 -1.3599  0.4524 -1.2130
 5699TIP3   OH238587   5.308   1.779   5.049 -0.0217  0.3122  0.5158
 5699TIP3    H138588   5.285   1.715   4.982 -0.3456  0.0910  0.8320
 5699TIP3    H238589   5.398   1.758   5.072  0.0988  0.4096  0.1245
 5700TIP3   OH238590   3.352   1.702  11.987 -0.5602 -0.1235 -0.4352
 5700TIP3    H138591   3.337   1.797  11.977 -0.3566 -0.0704 -0.2300
 5700TIP3    H238592   3.287   1.675  12.052 -1.7262 -0.4268 -1.6878
 5701TIP3   OH238593   5.822   5.896   5.996  0.5316  0.2837 -0.2310
 5701TIP3    H138594   5.779   5.958   6.056 -0.4848  0.1077 -0.7567
 5701TIP3    H238595   5.915   5.909   6.011  0.3489  2.3873 -0.7578
 5702TIP3   OH238596   0.625   4.495  15.725 -0.0998  0.1264 -0.2544
 5702TIP3    H138597   0.714   4.524  15.706  0.2343 -1.6112 -1.4196
 5702TIP3    H238598   0.613   4.417  15.671 -1.8969 -0.3796  0.8329
 5703TIP3   OH238599   4.075   1.145   5.845  0.2558  0.3023 -0.2514
 5703TIP3    H138600   4.037   1.114   5.763  1.0197 -3.0475  0.5754
 5703TIP3    H238601   4.001   1.181   5.894 -0.9526 -1.4556 -0.7432
 5704TIP3   OH238602   3.201   2.925   3.972  0.8798  0.1183  0.4905
 5704TIP3    H138603   3.277   2.867   3.961  1.5585  0.6207  2.4148
 5704TIP3    H238604   3.138   2.873   4.023  0.0277 -0.1972 -0.8589
 5705TIP3   OH238605   5.085   1.558   4.179 -0.1182  0.5748  0.1187
 5705TIP3    H138606   4.993   1.581   4.171 -1.0020 -2.0884  1.9048
 5705TIP3    H238607   5.093   1.474   4.134  0.8463 -0.4717  2.1825
 5706TIP3   OH238608   3.085   6.357   4.334 -0.3997 -0.0839  0.3608
 5706TIP3    H138609   3.124   6.302   4.265  0.3724 -2.3495  2.5174
 5706TIP3    H238610   3.160   6.397   4.378 -0.9422  2.1934 -0.7668
 5707TIP3   OH238611   5.254   0.105  17.128 -0.2810 -0.3831 -0.2082
 5707TIP3    H138612   5.193   0.123  17.056 -0.0940  0.2554 -0.2083
 5707TIP3    H238613   5.200   0.063  17.195 -0.4886 -0.8373 -0.6514
 5708TIP3   OH238614   4.921   0.773   4.982  0.1764  0.7532  0.3215
 5708TIP3    H138615   4.896   0.685   5.012 -0.7977  0.7255 -0.5408
 5708TIP3    H238616   4.893   0.831   5.052  0.1924  0.4462  0.5838
 5709TIP3   OH238617   6.407   3.579   1.158  0.4228 -0.6292  0.1938
 5709TIP3    H138618   6.317   3.594   1.128  1.1138 -0.0796 -1.6561
 5709TIP3    H238619   6.401   3.500   1.212 -1.4042  0.2175  1.2886
 5710TIP3   OH238620   0.660   3.883  15.466 -0.2692 -0.0015  0.2744
 5710TIP3    H138621   0.572   3.899  15.501  0.5625  0.3573  2.2632
 5710TIP3    H238622   0.662   3.788  15.451 -1.1337  0.0433 -0.1734
 5711TIP3   OH238623   3.024   5.578  12.851  0.0887 -0.1269  0.5469
 5711TIP3    H138624   3.098   5.628  12.817 -0.0134  0.0608  0.6023
 5711TIP3    H238625   3.055   5.542  12.934  0.8322 -1.7584 -0.4027
 5712TIP3   OH238626   3.579   2.968  12.883  0.2346 -0.5396 -0.0367
 5712TIP3    H138627   3.637   2.912  12.832  0.5413 -0.3490  0.0975
 5712TIP3    H238628   3.558   3.041  12.824  0.3718 -0.4581  0.0141
 5713TIP3   OH238629   3.325   2.396  11.877  0.1039  0.0973 -0.2410
 5713TIP3    H138630   3.232   2.379  11.865  0.0232  0.7862 -0.5546
 5713TIP3    H238631   3.348   2.460  11.811  1.1177 -1.1106 -1.0935
 5714TIP3   OH238632   4.612   2.690   4.306  0.8434 -0.4702 -0.4435
 5714TIP3    H138633   4.564   2.755   4.253  0.9384 -1.4813 -1.7976
 5714TIP3    H238634   4.604   2.722   4.395  0.3206  1.0664 -1.0148
 5715TIP3   OH238635   5.353   4.579   0.088 -0.1816 -0.0106 -0.0840
 5715TIP3    H138636   5.333   4.513   0.021  0.0982 -0.1040 -0.0791
 5715TIP3    H238637   5.444   4.560   0.113 -0.5260 -0.4449  0.8630
 5716TIP3   OH238638   4.302   1.933  16.537 -0.4806 -0.1118 -0.4595
 5716TIP3    H138639   4.311   2.004  16.473 -0.5328  0.1803 -0.1410
 5716TIP3    H238640   4.275   1.977  16.618 -1.2303 -0.5690 -0.4519
 5717TIP3   OH238641   6.490   4.137   4.652 -0.4057 -0.4421  0.2263
 5717TIP3    H138642   6.444   4.196   4.711  1.4558  2.2621 -0.9298
 5717TIP3    H238643   6.479   4.176   4.565  2.2392 -0.8551 -0.3457
 5718TIP3   OH238644   6.678   1.208  15.015  0.0465  0.2003 -0.0881
 5718TIP3    H138645   6.588   1.177  15.000  0.0875  0.3713 -0.7267
 5718TIP3    H238646   6.712   1.224  14.927 -0.1430  2.5041  0.2231
 5719TIP3   OH238647   4.024   1.158  16.070 -0.1581  0.4379 -0.5923
 5719TIP3    H138648   4.070   1.078  16.043  0.0922  0.3409  0.1318
 5719TIP3    H238649   4.073   1.189  16.146  0.3082  1.7821 -1.4085
 5720TIP3   OH238650   4.649   5.809   2.330 -0.0467 -0.2387  0.0711
 5720TIP3    H138651   4.656   5.855   2.246 -1.7591  1.0820  0.6024
 5720TIP3    H238652   4.719   5.846   2.384  0.2862 -0.2180 -0.3708
 5721TIP3   OH238653   6.488   4.024  15.732 -0.2252 -0.2429  0.1771
 5721TIP3    H138654   6.433   4.012  15.655  0.2367 -0.3383 -0.1445
 5721TIP3    H238655   6.429   4.016  15.807 -0.3577 -2.0004 -0.1064
 5722TIP3   OH238656   1.816   2.154  12.584  0.2546 -0.7692 -0.1114
 5722TIP3    H138657   1.760   2.183  12.512 -1.2536 -1.9902  0.5478
 5722TIP3    H238658   1.755   2.116  12.647  1.5860  0.0206  1.6882
 5723TIP3   OH238659   2.686   4.424   3.708 -0.1737  0.1916 -0.4523
 5723TIP3    H138660   2.609   4.480   3.716 -0.1867 -0.1362  2.0665
 5723TIP3    H238661   2.651   4.341   3.675 -0.8044  0.2512  0.0553
 5724TIP3   OH238662   6.755   6.258   3.900 -0.5007 -0.2490 -0.2513
 5724TIP3    H138663   6.759   6.286   3.992 -0.9288 -1.2055  0.0723
 5724TIP3    H238664   6.795   6.330   3.851  0.8274 -0.2506  0.7957
 5725TIP3   OH238665   5.195   3.295  16.270  0.2879  0.1319  0.1828
 5725TIP3    H138666   5.147   3.364  16.224 -0.7559  0.3098  1.5103
 5725TIP3    H238667   5.188   3.218  16.212  0.5206  0.8310 -0.7854
 5726TIP3   OH238668   2.953   0.670   0.171 -0.3155  0.1789  0.3245
 5726TIP3    H138669   2.889   0.733   0.205 -0.4457  0.9532 -1.3066
 5726TIP3    H238670   3.025   0.725   0.138  0.7476 -0.6447  1.2106
 5727TIP3   OH238671   4.483   5.588  15.200 -0.2453  0.7406 -0.1037
 5727TIP3    H138672   4.389   5.572  15.208 -0.4694  1.6788 -0.7043
 5727TIP3    H238673   4.511   5.614  15.287 -0.9115  2.2600 -0.3334
 5728TIP3   OH238674   4.861   6.324   5.392  0.0578 -0.2544  0.0387
 5728TIP3    H138675   4.774   6.312   5.430  0.3620  0.9871  1.1513
 5728TIP3    H238676   4.912   6.251   5.428 -0.3796 -0.7020 -0.2277
 5729TIP3   OH238677   5.210   0.900   5.818  0.0846  0.5474  0.3065
 5729TIP3    H138678   5.221   0.994   5.832  0.0712  0.6983 -0.6629
 5729TIP3    H238679   5.177   0.893   5.729 -0.9970 -0.3109  0.7624
 5730TIP3   OH238680   2.872   5.926   1.982 -0.2821 -0.5501 -0.5758
 5730TIP3    H138681   2.958   5.967   1.993  0.4480 -2.3690  0.9198
 5730TIP3    H238682   2.809   5.997   1.992  0.9981  0.5137  0.0861
 5731TIP3   OH238683   0.616   4.467   1.124 -0.2161 -0.1851 -0.3856
 5731TIP3    H138684   0.659   4.400   1.070  2.2787 -0.0339  1.3002
 5731TIP3    H238685   0.568   4.417   1.190  0.5455 -0.3572  0.0534
 5732TIP3   OH238686   6.535   1.427  11.430  0.0445 -0.1648  0.0603
 5732TIP3    H138687   6.452   1.461  11.396 -0.4903  0.4872  1.9488
 5732TIP3    H238688   6.595   1.501  11.425  0.0276 -0.1338  0.2950
 5733TIP3   OH238689   6.505   5.789  15.207 -0.0909  0.6060  0.0214
 5733TIP3    H138690   6.590   5.833  15.215  0.6054 -0.6921 -0.1045
 5733TIP3    H238691   6.512   5.713  15.265 -2.0859  1.8337  1.9910
 5734TIP3   OH238692   3.168   4.788  11.675 -0.0361 -0.5563 -0.1078
 5734TIP3    H138693   3.133   4.707  11.712 -1.3945  0.2342  0.3978
 5734TIP3    H238694   3.106   4.856  11.703  1.5643  0.7966  0.2444
 5735TIP3   OH238695   2.100   4.667  11.440 -0.5160  0.4514  0.4936
 5735TIP3    H138696   2.139   4.753  11.425 -1.6711  0.7468 -0.9102
 5735TIP3    H238697   2.143   4.609  11.378  0.7330 -0.1408  1.8906
 5736TIP3   OH238698   1.611   1.620  17.186  0.4166 -0.1715 -0.0805
 5736TIP3    H138699   1.543   1.638  17.121  2.0354  1.6478 -1.2834
 5736TIP3    H238700   1.565   1.572  17.255 -1.9385  0.4029 -1.2106
 5737TIP3   OH238701   5.424   5.934   6.101  0.2585  0.1002  0.0003
 5737TIP3    H138702   5.425   5.906   6.192 -1.3756  0.1593  0.0500
 5737TIP3    H238703   5.454   6.025   6.103 -1.1274  0.5525  0.6500
 5738TIP3   OH238704   4.753   1.440   4.934  0.4347  0.9101 -0.0096
 5738TIP3    H138705   4.723   1.364   4.983  1.0717 -1.2374 -2.8203
 5738TIP3    H238706   4.690   1.449   4.862  0.7346  2.6638 -0.0798
 5739TIP3   OH238707   0.899   0.421  15.699 -0.1010 -0.3450 -0.0023
 5739TIP3    H138708   0.892   0.508  15.738 -1.2756 -0.4856  0.1145
 5739TIP3    H238709   0.968   0.429  15.634 -2.5644  1.6079 -2.4522
 5740TIP3   OH238710   4.338   6.104   4.621 -0.0515  0.3667 -0.1062
 5740TIP3    H138711   4.279   6.119   4.546 -1.1010  1.9861  1.0201
 5740TIP3    H238712   4.282   6.062   4.687  0.4599  0.4646  0.3900
 5741TIP3   OH238713   2.921   1.410  12.950  0.8258 -0.2591  0.1615
 5741TIP3    H138714   2.840   1.453  12.925  1.2153 -0.1264 -0.9111
 5741TIP3    H238715   2.900   1.362  13.030 -0.8128 -1.7886 -1.1523
 5742TIP3   OH238716   3.199   0.238   4.810  0.1632 -0.1984  0.8823
 5742TIP3    H138717   3.131   0.302   4.833 -0.4214 -0.4596 -0.1106
 5742TIP3    H238718   3.193   0.172   4.879 -0.2082  0.0620  1.1056
 5743TIP3   OH238719   4.528   0.850  11.914 -0.5860  0.5769 -0.2157
 5743TIP3    H138720   4.557   0.936  11.946 -1.2207  0.6822  0.0942
 5743TIP3    H238721   4.553   0.789  11.982  2.6300  0.0467 -1.7858
 5744TIP3   OH238722   1.451   4.950   3.618 -0.3590  0.0765  0.2952
 5744TIP3    H138723   1.536   4.957   3.574 -0.3383  0.2010  0.3549
 5744TIP3    H238724   1.411   5.037   3.607 -1.0988 -0.4116 -0.9970
 5745TIP3   OH238725   0.028   6.328  16.892  0.2865 -0.4084  0.0478
 5745TIP3    H138726  -0.046   6.386  16.877 -0.3955 -1.1198  0.6249
 5745TIP3    H238727  -0.001   6.269  16.963  1.2359 -0.9563 -0.0059
 5746TIP3   OH238728   0.322   0.532  12.612 -0.6410  0.6585 -0.3876
 5746TIP3    H138729   0.312   0.605  12.674  1.4805  0.4507  0.2456
 5746TIP3    H238730   0.322   0.574  12.526  3.4964  1.8580  0.0731
 5747TIP3   OH238731   3.377   5.278   0.403  0.0020  0.0717 -0.0902
 5747TIP3    H138732   3.318   5.236   0.466  0.2557 -1.4274 -0.8288
 5747TIP3    H238733   3.461   5.281   0.449  0.5983 -2.5373 -0.9149
 5748TIP3   OH238734   0.079   6.565  14.303  0.1793 -0.1564 -0.0475
 5748TIP3    H138735   0.075   6.470  14.305 -2.0965 -0.0754  0.7269
 5748TIP3    H238736   0.107   6.591  14.390 -3.4700 -0.0166  1.1723
 5749TIP3   OH238737   3.810   0.876  10.960  0.0157  0.5423  0.3993
 5749TIP3    H138738   3.771   0.892  11.046  2.6035 -1.7747  2.1102
 5749TIP3    H238739   3.899   0.910  10.968  0.5500 -0.4642 -1.0672
 5750TIP3   OH238740   2.754   4.908  15.902 -0.2668 -0.2217  0.5352
 5750TIP3    H138741   2.811   4.924  15.977  0.1330  1.9510 -0.1972
 5750TIP3    H238742   2.802   4.942  15.827 -1.3834 -0.8511 -0.4863
 5751TIP3   OH238743   6.350   5.245   2.897 -0.1505 -0.0041 -0.0743
 5751TIP3    H138744   6.281   5.222   2.959  0.0119 -0.4165 -0.0518
 5751TIP3    H238745   6.304   5.291   2.827 -0.5658 -1.0024 -0.4611
 5752TIP3   OH238746   0.637   2.364  14.185 -0.1834  0.0588  0.0547
 5752TIP3    H138747   0.611   2.324  14.102 -0.0617  0.0003  0.0448
 5752TIP3    H238748   0.621   2.295  14.250  0.7917 -0.2901 -0.0677
 5753TIP3   OH238749   6.100   2.631   1.142 -0.0411  0.2351 -0.3297
 5753TIP3    H138750   6.007   2.614   1.153 -0.1158  0.5355 -0.4826
 5753TIP3    H238751   6.110   2.724   1.161  0.3442  0.0490  0.3900
 5754TIP3   OH238752   5.803   5.349   3.747  0.4358  0.1320 -0.0366
 5754TIP3    H138753   5.839   5.360   3.836  1.2178 -0.0564 -0.3211
 5754TIP3    H238754   5.825   5.431   3.703 -2.2207  1.2740  0.6970
 5755TIP3   OH238755   1.194   0.611  11.822 -0.3305  0.1785  0.0814
 5755TIP3    H138756   1.124   0.627  11.758 -0.4427 -2.2313 -0.4624
 5755TIP3    H238757   1.275   0.616  11.771 -0.4426 -2.1266 -0.3743
 5756TIP3   OH238758   4.369   3.050   0.769  0.1903 -0.1784 -0.2784
 5756TIP3    H138759   4.434   3.111   0.734  3.4229 -4.0063 -1.3125
 5756TIP3    H238760   4.368   3.068   0.863  2.1614  0.4670 -0.3593
 5757TIP3   OH238761   1.341   0.430  14.663 -0.4902  0.1242  0.4920
 5757TIP3    H138762   1.359   0.514  14.705 -2.4334  0.4634  0.6827
 5757TIP3    H238763   1.261   0.444  14.613 -0.9973 -1.6844  0.7574
 5758TIP3   OH238764   3.379   2.922  13.922  0.1398  0.0264  0.1252
 5758TIP3    H138765   3.361   2.919  13.828  1.4686 -0.5543 -0.1198
 5758TIP3    H238766   3.463   2.968  13.929  1.3439 -2.1743  0.8221
 5759TIP3   OH238767   1.550   0.584   3.709  0.0447  0.0627 -0.2344
 5759TIP3    H138768   1.571   0.595   3.616  1.6942  1.5602  0.2970
 5759TIP3    H238769   1.493   0.508   3.711  1.5464 -1.1816 -2.2805
 5760TIP3   OH238770   3.643   0.727  11.316  0.0939  0.2700  0.0448
 5760TIP3    H138771   3.612   0.686  11.235  0.4973 -0.3523  0.2032
 5760TIP3    H238772   3.644   0.821  11.296 -0.7493  0.1958 -0.3443
 5761TIP3   OH238773   2.718   3.437  11.134 -0.0760 -0.3450 -0.0331
 5761TIP3    H138774   2.714   3.351  11.092 -1.5413  0.2220 -1.1309
 5761TIP3    H238775   2.772   3.489  11.074  0.0175 -0.2358  0.1463
 5762TIP3   OH238776   2.407   2.292  16.000 -0.1593  0.4923  0.7763
 5762TIP3    H138777   2.419   2.266  16.091  0.0539 -0.2539  0.5375
 5762TIP3    H238778   2.330   2.244  15.971  0.6796 -0.4766  0.1086
 5763TIP3   OH238779   0.048   5.567   2.200  0.8968 -0.2890  0.0688
 5763TIP3    H138780  -0.022   5.602   2.255  3.0246  0.1383  2.6202
 5763TIP3    H238781   0.004   5.506   2.141 -1.5772 -0.1722  1.7116
 5764TIP3   OH238782   3.412   1.622   2.896 -0.1043 -0.0808 -0.2274
 5764TIP3    H138783   3.423   1.600   2.989  0.6107  0.5002 -0.1654
 5764TIP3    H238784   3.389   1.715   2.896  1.1345  0.2424 -0.6797
 5765TIP3   OH238785   1.066   2.792  12.872  0.5278  0.1683  0.2946
 5765TIP3    H138786   1.144   2.746  12.902  0.7487 -0.6738 -1.5241
 5765TIP3    H238787   0.993   2.738  12.902  0.7348 -0.4939 -0.3792
 5766TIP3   OH238788   1.988   3.115   4.640  0.1125  0.3282 -0.3255
 5766TIP3    H138789   1.915   3.119   4.702  0.5771 -0.7946  0.3216
 5766TIP3    H238790   1.947   3.131   4.555 -0.6253  1.3027  0.1981
 5767TIP3   OH238791   3.608   5.124   5.393 -0.2510  0.3530  0.0859
 5767TIP3    H138792   3.670   5.180   5.346 -0.3992  1.3269  1.0248
 5767TIP3    H238793   3.663   5.066   5.446 -0.1057 -0.1789 -0.6361
 5768TIP3   OH238794   3.882   1.621  11.291 -0.1861  0.3024 -0.5152
 5768TIP3    H138795   3.974   1.633  11.311 -0.3216 -0.7739  0.8746
 5768TIP3    H238796   3.850   1.708  11.268  0.6233  1.1378  1.4313
 5769TIP3   OH238797   4.973   0.655   0.901 -0.6503  0.0216  0.0128
 5769TIP3    H138798   5.028   0.666   0.978  0.6111 -1.5303 -0.6463
 5769TIP3    H238799   4.975   0.741   0.858 -1.0820  0.7889  1.5042
 5770TIP3   OH238800   4.491   1.281   2.699  0.2171 -0.4229  0.2396
 5770TIP3    H138801   4.513   1.228   2.622 -0.4682  0.4263 -0.5648
 5770TIP3    H238802   4.573   1.326   2.721  0.3479 -0.4527 -0.1715
 5771TIP3   OH238803   0.787   2.375   1.191 -0.0838  1.0140  0.1638
 5771TIP3    H138804   0.704   2.366   1.239  0.0800  0.7264  0.3919
 5771TIP3    H238805   0.793   2.469   1.172  1.2348  1.5882  3.2010
 5772TIP3   OH238806   2.658   1.300  11.984 -0.5754  0.2962  0.2560
 5772TIP3    H138807   2.745   1.262  11.994 -1.1410 -0.9695  0.3816
 5772TIP3    H238808   2.660   1.378  12.040  0.5596  0.4253  0.0467
 5773TIP3   OH238809   6.308   3.929   6.272  0.4177  0.2991 -0.0223
 5773TIP3    H138810   6.239   3.865   6.289  0.5577 -0.0959 -0.8960
 5773TIP3    H238811   6.381   3.877   6.238  0.6897  0.8727 -0.3281
 5774TIP3   OH238812   3.469   5.696  16.110 -0.1311 -0.2206 -0.2629
 5774TIP3    H138813   3.532   5.736  16.050  1.9760  0.0809  2.0741
 5774TIP3    H238814   3.395   5.672  16.055  1.6891  0.1598 -2.9478
 5775TIP3   OH238815   4.817   2.959  11.447  0.0448  0.0079 -0.1035
 5775TIP3    H138816   4.756   2.895  11.484  0.2221 -1.2703 -1.9740
 5775TIP3    H238817   4.866   2.911  11.381  4.7024  0.3700  2.7836
 5776TIP3   OH238818   3.932   0.535   2.056  0.8470  0.1774  0.1169
 5776TIP3    H138819   3.938   0.490   1.972  0.9580  2.7064 -1.2647
 5776TIP3    H238820   3.854   0.498   2.098  0.4205 -0.6442 -1.3770
 5777TIP3   OH238821   3.574   4.165   2.911 -0.3817 -0.0455 -0.1814
 5777TIP3    H138822   3.530   4.233   2.859  1.2972  1.1026 -0.1146
 5777TIP3    H238823   3.518   4.154   2.988 -0.0360  2.1602  0.4143
 5778TIP3   OH238824   5.699   0.315  13.967  0.4774  0.0956 -1.0299
 5778TIP3    H138825   5.777   0.259  13.961 -0.9695 -2.0032 -0.7269
 5778TIP3    H238826   5.666   0.319  13.877 -0.9652 -1.8617 -0.6310
 5779TIP3   OH238827   1.913   2.961  16.490  0.1997  0.2620  0.8449
 5779TIP3    H138828   1.901   2.877  16.535  0.8250 -0.4267 -0.2616
 5779TIP3    H238829   1.836   3.012  16.514  0.6326 -0.0061  2.8997
 5780TIP3   OH238830   3.047   3.659  12.063 -0.1576 -0.4810 -0.4516
 5780TIP3    H138831   3.109   3.626  11.998  0.2771  1.5287 -1.0693
 5780TIP3    H238832   3.058   3.600  12.138  0.6700 -1.6800 -1.4872
 5781TIP3   OH238833   0.621   4.321  12.463 -0.0462 -0.3598  0.1352
 5781TIP3    H138834   0.691   4.385  12.455  0.2733 -0.6461  0.6220
 5781TIP3    H238835   0.665   4.236  12.457 -0.2640 -0.5486  1.0405
 5782TIP3   OH238836   0.860   3.155  16.079 -0.0203  0.1255  0.5995
 5782TIP3    H138837   0.809   3.087  16.035  1.7850 -0.3535 -0.8117
 5782TIP3    H238838   0.857   3.131  16.172  0.3367 -1.7244  0.1513
 5783TIP3   OH238839   0.152   1.863   4.042 -0.1043 -0.2360 -0.3456
 5783TIP3    H138840   0.242   1.895   4.041 -0.4985  0.8872 -0.8910
 5783TIP3    H238841   0.146   1.803   3.968  0.0981  0.0072 -0.5609
 5784TIP3   OH238842   0.080   4.613   1.006 -0.1466 -0.2467  0.4826
 5784TIP3    H138843   0.104   4.661   1.085  0.5260 -0.3835  0.3665
 5784TIP3    H238844  -0.002   4.569   1.028 -0.7206  0.8738  0.6183
 5785TIP3   OH238845   2.956   1.874   4.779  0.0642  0.4306 -0.3998
 5785TIP3    H138846   2.888   1.842   4.720 -0.2835  0.3739  0.0245
 5785TIP3    H238847   3.037   1.866   4.729  0.0050 -1.2237 -0.2763
 5786TIP3   OH238848   2.949   4.466  11.610 -0.6098  0.1746 -0.3029
 5786TIP3    H138849   2.872   4.447  11.558 -0.7987  1.1643 -0.3798
 5786TIP3    H238850   2.965   4.385  11.660 -0.6900 -0.6130 -1.5403
 5787TIP3   OH238851   2.165   3.152  16.895  0.0725 -0.0144 -0.6686
 5787TIP3    H138852   2.113   3.187  16.968 -2.2898 -2.2067 -1.2387
 5787TIP3    H238853   2.213   3.078  16.933  0.0805 -0.1685 -0.9847
 5788TIP3   OH238854   6.482   2.257  12.231  0.1597  0.3318  0.3812
 5788TIP3    H138855   6.519   2.189  12.287  0.3935  0.4571  0.3774
 5788TIP3    H238856   6.406   2.289  12.280 -1.1424 -1.3122 -0.5077
 5789TIP3   OH238857   5.758   4.972   0.538 -0.2947  0.1116  0.4135
 5789TIP3    H138858   5.816   4.908   0.497  0.0050  0.5746  0.1132
 5789TIP3    H238859   5.712   4.923   0.606 -2.3631 -1.2158 -1.8540
 5790TIP3   OH238860   0.521   0.355   3.218 -0.4303  0.1947  0.2417
 5790TIP3    H138861   0.604   0.346   3.265 -1.4158 -2.6155  1.5694
 5790TIP3    H238862   0.472   0.419   3.269  0.7981  1.7273 -0.4373
 5791TIP3   OH238863   0.375   1.607   0.417  0.1234 -0.4460 -0.8769
 5791TIP3    H138864   0.397   1.700   0.426  0.2357 -0.7414  2.5145
 5791TIP3    H238865   0.459   1.563   0.408  0.1190 -0.3391 -1.4982
 5792TIP3   OH238866   0.757   0.526  16.893 -0.6339 -0.1851 -0.6702
 5792TIP3    H138867   0.775   0.610  16.850 -2.2521  2.0138  2.7947
 5792TIP3    H238868   0.844   0.490  16.912  0.0861  1.5656 -0.5632
 5793TIP3   OH238869   4.581   4.316  11.029 -0.0454  0.2219  0.2886
 5793TIP3    H138870   4.518   4.250  11.060 -0.7591  1.0885  0.7169
 5793TIP3    H238871   4.605   4.286  10.942 -1.8344  0.3954 -0.2867
 5794TIP3   OH238872   5.547   5.347  12.074  0.1683 -0.3790 -0.3950
 5794TIP3    H138873   5.496   5.348  11.993 -0.1855 -0.0062 -0.1678
 5794TIP3    H238874   5.616   5.282  12.058 -1.5571 -2.3777  0.0225
 5795TIP3   OH238875   0.016   6.017   4.004 -0.0923 -0.0794  0.1131
 5795TIP3    H138876   0.109   5.998   3.988 -0.0319  0.0659  0.2972
 5795TIP3    H238877   0.004   6.106   3.972  0.0837  0.3019  1.1039
 5796TIP3   OH238878   3.904   2.347  13.044 -0.0628 -0.1348 -0.1645
 5796TIP3    H138879   3.815   2.315  13.060  0.1382 -0.8265 -0.4383
 5796TIP3    H238880   3.904   2.436  13.081  0.1749 -1.4159  3.0698
 5797TIP3   OH238881   6.763   1.689  12.023  0.0252  0.3894 -0.3016
 5797TIP3    H138882   6.682   1.649  12.056  0.4291 -0.9634 -0.9166
 5797TIP3    H238883   6.737   1.778  11.998 -0.9729  0.4101  0.7416
 5798TIP3   OH238884   4.545   1.549   6.212  0.4837  0.2832 -0.3108
 5798TIP3    H138885   4.598   1.625   6.235  1.3886 -0.6191  0.6165
 5798TIP3    H238886   4.607   1.477   6.207 -0.4945 -0.5675 -0.3015
 5799TIP3   OH238887   4.607   0.548  13.138 -0.0198 -0.4664 -0.5081
 5799TIP3    H138888   4.647   0.502  13.212  2.8878 -0.8639 -2.2343
 5799TIP3    H238889   4.559   0.481  13.091 -1.5006 -0.3023  0.7260
 5800TIP3   OH238890   1.731   4.203  10.548  0.5253 -0.0879 -0.1094
 5800TIP3    H138891   1.707   4.296  10.540  1.2168 -0.0748 -2.1312
 5800TIP3    H238892   1.648   4.156  10.537  0.2922  0.2589  0.1537
 5801TIP3   OH238893   4.104   4.633   5.380 -0.2923  0.1743 -0.8663
 5801TIP3    H138894   4.164   4.561   5.361 -0.1528 -0.0145  0.2506
 5801TIP3    H238895   4.031   4.621   5.320 -0.9729 -1.7565  0.3200
 5802TIP3   OH238896   4.063   1.382  11.579  0.2711  0.3262 -0.3612
 5802TIP3    H138897   4.109   1.370  11.496 -0.9589 -1.9607 -0.7344
 5802TIP3    H238898   4.081   1.302  11.628 -3.0053 -0.4737 -0.3767
 5803TIP3   OH238899   2.557   4.949  16.769 -0.0504  0.2016  0.0515
 5803TIP3    H138900   2.618   5.007  16.814  0.3887  0.2607 -0.6198
 5803TIP3    H238901   2.498   4.919  16.838 -0.0674  1.1622  0.4702
 5804TIP3   OH238902   2.371   0.040   3.158  0.1478 -0.2973  0.5273
 5804TIP3    H138903   2.338  -0.033   3.211 -2.4660  1.0654  0.9025
 5804TIP3    H238904   2.394   0.107   3.222  0.6976 -0.0841  0.1041
 5805TIP3   OH238905   1.154   5.244   6.228 -0.3010  0.2442 -0.2267
 5805TIP3    H138906   1.071   5.245   6.277 -0.6577  2.0581 -0.8201
 5805TIP3    H238907   1.139   5.305   6.155  0.9729 -0.7366 -1.3300
 5806TIP3   OH238908   2.807   0.875  14.885 -0.4444  0.2467  0.9592
 5806TIP3    H138909   2.792   0.861  14.979 -1.1680 -1.8259  0.5581
 5806TIP3    H238910   2.757   0.806  14.842 -0.6827  1.6018 -1.0097
 5807TIP3   OH238911   3.754   4.358  13.052  0.3595  0.4768 -0.5221
 5807TIP3    H138912   3.774   4.380  13.143 -1.8055  0.3687  0.0201
 5807TIP3    H238913   3.761   4.441  13.005  1.6448  0.5060 -0.2987
 5808TIP3   OH238914   4.568   0.193   1.584 -0.1988  0.3035  0.3020
 5808TIP3    H138915   4.613   0.265   1.540  0.1646  0.3394  0.7333
 5808TIP3    H238916   4.633   0.158   1.645  0.0638 -1.2265 -0.8331
 5809TIP3   OH238917   3.574   3.060  12.225  0.4156 -0.1237  0.1344
 5809TIP3    H138918   3.492   3.056  12.175  1.1089 -0.5993 -0.9921
 5809TIP3    H238919   3.561   2.999  12.297 -0.6328  0.6218  0.5866
 5810TIP3   OH238920   3.245   4.485   3.475 -0.9930  0.7676 -0.1602
 5810TIP3    H138921   3.210   4.571   3.455 -0.8384  0.6723 -0.8809
 5810TIP3    H238922   3.279   4.492   3.564  0.5005  1.9243 -0.7926
 5811TIP3   OH238923   3.155   6.046   4.218 -0.0596  0.0912  0.5834
 5811TIP3    H138924   3.189   6.068   4.304 -0.9110 -0.4054  1.0531
 5811TIP3    H238925   3.062   6.068   4.223 -0.3659 -1.0769  0.1917
 5812TIP3   OH238926   0.211   3.680  14.995  0.3871 -0.7900 -0.2333
 5812TIP3    H138927   0.246   3.746  14.934 -0.5463  2.3066  2.4100
 5812TIP3    H238928   0.116   3.687  14.986  0.1796  0.7432  2.5008
 5813TIP3   OH238929   1.684   6.088  13.703 -0.3481 -0.3010  0.4532
 5813TIP3    H138930   1.758   6.028  13.714 -0.0074  0.1290  0.5109
 5813TIP3    H238931   1.640   6.089  13.788  0.3539  0.4662  0.8142
 5814TIP3   OH238932   1.241   2.020  14.254  0.7615  0.2856 -0.6664
 5814TIP3    H138933   1.175   2.080  14.219  0.1451  2.0927  3.3090
 5814TIP3    H238934   1.215   2.007  14.345  3.8378 -1.9559 -0.0477
 5815TIP3   OH238935   3.365   6.315   2.013  0.1862  0.2035 -0.1753
 5815TIP3    H138936   3.291   6.353   1.966  0.0721  1.4932  1.0229
 5815TIP3    H238937   3.332   6.300   2.102  0.6223 -1.5290 -0.2815
 5816TIP3   OH238938   5.468   1.326  10.822  0.2094 -0.3109 -0.2094
 5816TIP3    H138939   5.543   1.273  10.796 -0.4016 -0.5085 -1.6403
 5816TIP3    H238940   5.487   1.354  10.912  2.4064  0.3594 -0.8525
 5817TIP3   OH238941   6.288   1.920  12.918  0.0708  0.1499 -0.4374
 5817TIP3    H138942   6.210   1.940  12.867  0.0727 -1.2240 -1.0202
 5817TIP3    H238943   6.351   1.889  12.853  0.1509 -1.3838  0.3545
 5818TIP3   OH238944   3.564   6.125  12.570  0.0450 -0.5676 -0.5050
 5818TIP3    H138945   3.615   6.195  12.611 -0.6739 -0.1892 -0.2453
 5818TIP3    H238946   3.580   6.135  12.476  0.3505 -0.3772 -0.4312
 5819TIP3   OH238947   0.545   1.711  15.307  0.3632  0.1850 -0.1560
 5819TIP3    H138948   0.549   1.626  15.351  0.1209  1.2745  2.0410
 5819TIP3    H238949   0.483   1.697  15.234  0.2557 -1.4764  0.2307
 5820TIP3   OH238950   1.437   6.675   3.925  0.0455 -0.0673  0.6845
 5820TIP3    H138951   1.494   6.600   3.939  0.0967 -0.1827 -0.0951
 5820TIP3    H238952   1.364   6.662   3.986 -0.2196 -1.0353  0.1699
 5821TIP3   OH238953   4.410   1.878   1.975 -0.5368 -0.4952 -0.9616
 5821TIP3    H138954   4.326   1.920   1.994 -0.0754 -0.0539  0.1427
 5821TIP3    H238955   4.388   1.785   1.964 -1.1524 -0.3995 -0.5811
 5822TIP3   OH238956   4.555   3.156   0.588 -0.3512  0.1860 -0.2595
 5822TIP3    H138957   4.579   3.100   0.514 -0.4792  1.9182 -1.6494
 5822TIP3    H238958   4.628   3.147   0.650 -1.2436 -2.9339  0.3815
 5823TIP3   OH238959   2.888   4.538   2.724  0.0159  0.0746 -0.3715
 5823TIP3    H138960   2.976   4.533   2.686 -0.3214 -0.2610 -1.1074
 5823TIP3    H238961   2.833   4.487   2.664 -0.7324  0.5217 -0.0644
 5824TIP3   OH238962   6.641   2.860  15.167  0.4896 -0.1242 -0.3965
 5824TIP3    H138963   6.635   2.820  15.253  0.5230 -1.5916 -1.0693
 5824TIP3    H238964   6.552   2.855  15.132  0.7009 -0.5087 -0.8848
 5825TIP3   OH238965   0.130   6.418   5.059 -0.2512  0.1258 -0.2396
 5825TIP3    H138966   0.058   6.480   5.047 -1.9809 -1.0005  3.6485
 5825TIP3    H238967   0.088   6.332   5.052  1.1846 -0.5804 -0.3055
 5826TIP3   OH238968   0.475   2.398   1.895 -0.3330 -0.3681  0.1177
 5826TIP3    H138969   0.457   2.373   1.986 -0.0832 -0.1624  0.2232
 5826TIP3    H238970   0.538   2.469   1.902  3.2236 -3.3155 -0.3226
 5827TIP3   OH238971   5.461   4.650  14.552  0.4511 -0.5719  0.6543
 5827TIP3    H138972   5.475   4.652  14.647  1.4555 -0.3443  0.5010
 5827TIP3    H238973   5.521   4.584  14.520  0.7587 -0.0097  0.0686
 5828TIP3   OH238974   0.738   3.278  13.468 -0.3660 -0.1358  0.7874
 5828TIP3    H138975   0.674   3.268  13.538  0.2137  0.0360  1.3523
 5828TIP3    H238976   0.768   3.369  13.477  1.6963 -0.9051  2.0669
 5829TIP3   OH238977   0.754   0.116   2.798  0.1158  0.3814 -0.3177
 5829TIP3    H138978   0.771   0.144   2.708 -2.6341  1.9771 -0.4131
 5829TIP3    H238979   0.683   0.174   2.827 -0.5271 -1.5734  2.1207
 5830TIP3   OH238980   4.843   1.705   1.555 -0.4406  0.1800 -0.2822
 5830TIP3    H138981   4.845   1.797   1.529  3.0106 -0.0301 -0.9020
 5830TIP3    H238982   4.873   1.657   1.478 -1.0584 -1.3814  0.4285
 5831TIP3   OH238983   1.064   3.106  14.929  0.6509 -0.0642 -0.1598
 5831TIP3    H138984   1.012   3.055  14.866  0.8228  1.0267 -1.1955
 5831TIP3    H238985   1.018   3.189  14.937  0.8306 -0.0659  0.8940
 5832TIP3   OH238986   0.827   1.962   5.733 -0.1829  0.3001  0.4075
 5832TIP3    H138987   0.734   1.939   5.725  0.0613 -0.0127 -1.9582
 5832TIP3    H238988   0.873   1.886   5.697  0.9747  0.6938  1.0592
 5833TIP3   OH238989   0.644   1.365  10.328 -0.2910  0.1757 -0.1520
 5833TIP3    H138990   0.656   1.318  10.410 -0.3556 -0.4690 -0.5074
 5833TIP3    H238991   0.568   1.421  10.342 -0.3592 -0.0044  0.1929
 5834TIP3   OH238992   2.987   5.821   4.257 -0.3961  0.5772  0.2390
 5834TIP3    H138993   2.973   5.891   4.321 -0.0424 -0.3215  1.3273
 5834TIP3    H238994   3.073   5.785   4.281  0.3443  1.0814 -1.5760
 5835TIP3   OH238995   6.450   1.296  12.396 -0.5607  0.7899  0.2073
 5835TIP3    H138996   6.457   1.244  12.476  0.7231  1.1220  0.3302
 5835TIP3    H238997   6.419   1.381  12.426 -0.4703  0.7885  0.3064
 5836TIP3   OH238998   3.927   5.917   4.260 -0.2347  0.5712 -0.2803
 5836TIP3    H138999   3.894   6.006   4.273  0.0765  0.8113 -1.0955
 5836TIP3    H239000   3.867   5.878   4.197  0.5182  0.7132 -1.0906
 5837TIP3   OH239001   5.793   2.508   1.332  0.5841  0.0045 -0.2149
 5837TIP3    H139002   5.787   2.591   1.378  0.1712  1.2884 -2.5285
 5837TIP3    H239003   5.803   2.531   1.240  1.4403 -2.4951 -0.8170
 5838TIP3   OH239004   3.821   0.580  13.252 -0.1481  0.6157  0.5584
 5838TIP3    H139005   3.741   0.538  13.221 -0.6776  1.8358  0.2454
 5838TIP3    H239006   3.878   0.582  13.175 -0.5821  1.5637  0.2656
 5839TIP3   OH239007   2.514   5.541  10.645  0.5652  0.2154  0.1230
 5839TIP3    H139008   2.445   5.585  10.694  0.0484 -1.6741  1.1709
 5839TIP3    H239009   2.489   5.551  10.553 -1.0129 -0.2878  0.4832
 5840TIP3   OH239010   2.159   1.497   1.659  0.0781 -0.4292 -0.2243
 5840TIP3    H139011   2.172   1.545   1.741  0.5651  0.2865 -0.7183
 5840TIP3    H239012   2.114   1.416   1.685 -0.5267  0.1855  0.6371
 5841TIP3   OH239013   6.762   0.850   2.331 -0.0245  0.3704 -0.5205
 5841TIP3    H139014   6.676   0.878   2.363  0.2565  0.1310  0.4553
 5841TIP3    H239015   6.763   0.755   2.344  0.6412  0.4578  0.0840
 5842TIP3   OH239016   4.708   3.276   1.280  0.0131 -0.1614  0.1802
 5842TIP3    H139017   4.729   3.369   1.287  1.5710 -0.4345 -0.5095
 5842TIP3    H239018   4.648   3.271   1.205 -0.7035  0.3716  0.7110
 5843TIP3   OH239019   1.575   0.992   5.323 -0.1501  0.1716  0.0265
 5843TIP3    H139020   1.665   0.972   5.349  0.7724  1.4145 -2.0769
 5843TIP3    H239021   1.577   1.084   5.297 -2.3023  0.5222  1.0219
 5844TIP3   OH239022   0.277   6.263  16.542  0.3490 -0.0505 -1.0048
 5844TIP3    H139023   0.370   6.241  16.547  0.4816  0.9119  1.6565
 5844TIP3    H239024   0.234   6.195  16.594 -0.4495 -0.5604 -2.3299
 5845TIP3   OH239025   5.306   2.556   5.451 -0.3533  0.0419  0.2633
 5845TIP3    H139026   5.271   2.467   5.447 -0.0168 -0.0476 -0.6060
 5845TIP3    H239027   5.277   2.589   5.537 -1.0515 -0.6584  0.2974
 5846TIP3   OH239028   2.984   2.384  10.671  0.3395 -0.1467  0.2651
 5846TIP3    H139029   2.976   2.297  10.708 -0.6262 -0.1334  0.1140
 5846TIP3    H239030   3.066   2.383  10.622  0.2464 -1.0240  0.1252
 5847TIP3   OH239031   3.208   5.268  12.704 -0.0286 -0.0090  0.8048
 5847TIP3    H139032   3.235   5.359  12.690  0.4859 -0.4953 -1.7040
 5847TIP3    H239033   3.125   5.261  12.657  0.1666 -0.9376  0.5879
 5848TIP3   OH239034   1.491   5.937   5.365 -0.2462 -0.1908  0.1320
 5848TIP3    H139035   1.585   5.946   5.348 -0.4749  2.1810 -0.0365
 5848TIP3    H239036   1.470   5.849   5.334  1.4553  0.1021 -2.0395
 5849TIP3   OH239037   3.149   4.669  12.773  0.5949 -0.2040  0.5498
 5849TIP3    H139038   3.173   4.621  12.694  0.6848 -2.1075  1.6974
 5849TIP3    H239039   3.083   4.614  12.816 -0.4728  1.4584  1.1341
 5850TIP3   OH239040   4.878   4.270  16.879  0.2423 -0.0126  0.5962
 5850TIP3    H139041   4.856   4.362  16.898 -1.1003 -0.5669  1.8929
 5850TIP3    H239042   4.973   4.266  16.886  0.2326  1.0573  1.6740
 5851TIP3   OH239043   6.112   0.751  12.361  0.3410  0.1869 -0.2813
 5851TIP3    H139044   6.162   0.782  12.436 -0.4738 -0.0316  0.3574
 5851TIP3    H239045   6.024   0.787  12.374 -0.3757 -1.5816 -0.0201
 5852TIP3   OH239046   2.342   2.075  11.490  0.1515 -0.1072  0.1920
 5852TIP3    H139047   2.395   2.091  11.413  0.7452 -1.0151  0.4062
 5852TIP3    H239048   2.309   2.162  11.515  0.3469  0.2533 -0.7879
 5853TIP3   OH239049   0.367   1.603   5.904  0.0342 -0.1203 -0.0659
 5853TIP3    H139050   0.336   1.693   5.918 -0.9674 -0.4907  0.2072
 5853TIP3    H239051   0.449   1.598   5.953  0.2142  0.7077 -0.2660
 5854TIP3   OH239052   1.444   4.524   2.838  0.3620 -0.1917  0.0907
 5854TIP3    H139053   1.384   4.557   2.771  0.9454 -0.3732 -0.5213
 5854TIP3    H239054   1.457   4.599   2.897  0.8720  0.3730 -0.7298
 5855TIP3   OH239055   2.102   4.758  13.448  0.4149  0.0442  0.3892
 5855TIP3    H139056   2.063   4.694  13.508  1.2577 -1.2956 -0.4524
 5855TIP3    H239057   2.054   4.746  13.366 -0.0489  1.1462  0.5048
 5856TIP3   OH239058   4.877   0.384  15.291 -0.0808 -0.0647 -0.2068
 5856TIP3    H139059   4.957   0.400  15.340 -0.2812 -2.3098  0.9025
 5856TIP3    H239060   4.808   0.378  15.357 -1.3141  2.4691 -1.1851
 5857TIP3   OH239061   3.891   6.820   5.334 -0.8685 -0.2313  0.3956
 5857TIP3    H139062   3.980   6.848   5.310 -1.1702  0.0356 -0.4358
 5857TIP3    H239063   3.904   6.735   5.376 -0.0533  0.6679  1.9930
 5858TIP3   OH239064   0.423   6.690   2.677  0.8904  1.0699  0.0678
 5858TIP3    H139065   0.358   6.710   2.744  0.4916  0.3860 -0.1102
 5858TIP3    H239066   0.403   6.752   2.606 -0.0479  0.3656 -0.2946
 5859TIP3   OH239067   1.599   6.162   0.121 -0.0521  0.0375 -0.5488
 5859TIP3    H139068   1.600   6.086   0.064 -0.4108 -0.0304 -0.4690
 5859TIP3    H239069   1.528   6.216   0.087 -0.8192 -0.3947  0.3345
 5860TIP3   OH239070   5.263   0.266  14.511 -0.4801  0.4083  0.2229
 5860TIP3    H139071   5.240   0.274  14.418 -3.1653  1.4219  0.9204
 5860TIP3    H239072   5.319   0.342  14.528 -0.1989  0.3683 -0.5004
 5861TIP3   OH239073   6.010   0.582  12.965 -0.3283  0.2946 -0.1083
 5861TIP3    H139074   5.997   0.619  12.878 -0.7797  0.6643  0.1058
 5861TIP3    H239075   5.947   0.630  13.020 -0.0019  0.1125  0.4278
 5862TIP3   OH239076   6.236   0.409  13.121 -0.1607  0.4477 -0.1154
 5862TIP3    H139077   6.191   0.399  13.037 -0.3667  1.9074 -0.1890
 5862TIP3    H239078   6.316   0.357  13.112 -0.4202  0.2040 -1.0375
 5863TIP3   OH239079   3.658   6.090  16.090  0.0136 -1.3409  0.4789
 5863TIP3    H139080   3.634   6.098  15.998  1.1841  1.1431  0.3520
 5863TIP3    H239081   3.581   6.051  16.132 -2.1622  1.3186 -0.8685
 5864TIP3   OH239082   1.466   1.288   1.382  0.1266 -0.1744  0.4514
 5864TIP3    H139083   1.400   1.259   1.319  0.3059  0.3240  0.0341
 5864TIP3    H239084   1.510   1.361   1.339 -0.2961  0.6864  1.4808
 5865TIP3   OH239085   6.468   1.457  14.906 -0.2218  0.1491  0.2284
 5865TIP3    H139086   6.466   1.364  14.929 -0.9494  0.2241  0.4661
 5865TIP3    H239087   6.378   1.487  14.918 -0.4529  0.3974 -1.9069
 5866TIP3   OH239088   2.134   3.111  13.855 -0.0152 -0.2431  0.4416
 5866TIP3    H139089   2.110   3.200  13.883 -0.2265 -0.6934  1.7267
 5866TIP3    H239090   2.229   3.106  13.871  0.1666  0.0737 -0.5354
 5867TIP3   OH239091   1.446   5.740  13.945  0.4570  0.3512 -0.1314
 5867TIP3    H139092   1.419   5.773  13.859 -0.2123 -0.8934 -0.4145
 5867TIP3    H239093   1.541   5.749  13.945  0.2990  2.3596 -0.1484
 5868TIP3   OH239094   5.243   3.064  16.117 -0.2500  0.0449  0.0386
 5868TIP3    H139095   5.310   3.003  16.147 -0.8404  0.1868  1.7076
 5868TIP3    H239096   5.248   3.060  16.022  1.7552 -0.3537  0.1351
 5869TIP3   OH239097   6.194   4.007  16.996  0.4994 -0.0295 -0.2704
 5869TIP3    H139098   6.149   4.088  16.971 -0.2172 -0.6305 -0.9678
 5869TIP3    H239099   6.233   4.027  17.081 -0.1356  0.8716 -0.1752
 5870TIP3   OH239100   0.023   6.343   2.309  0.2980  0.0153  0.2509
 5870TIP3    H139101   0.083   6.303   2.246  1.0389 -0.0212  0.9743
 5870TIP3    H239102  -0.003   6.271   2.366  1.1986  0.4494  1.2132
 5871TIP3   OH239103   4.734   5.937   4.007  0.5012 -0.1693  0.3063
 5871TIP3    H139104   4.645   5.971   4.020  0.2552 -1.5189  2.4039
 5871TIP3    H239105   4.742   5.926   3.912 -1.2346  0.8557  0.0199
 5872TIP3   OH239106   0.788   6.169  14.785 -0.1866  0.2160 -0.5049
 5872TIP3    H139107   0.873   6.209  14.767  0.1172 -0.6348 -0.9928
 5872TIP3    H239108   0.737   6.239  14.826 -0.0419  1.4628 -2.3357
 5873TIP3   OH239109   5.141   1.188  15.052 -0.0942 -0.9250  0.7639
 5873TIP3    H139110   5.189   1.205  15.133 -0.3092  0.4882  0.6200
 5873TIP3    H239111   5.061   1.239  15.061  0.0292 -0.4826 -0.4708
 5874TIP3   OH239112   2.037   6.442  14.061 -0.3967  0.1259 -0.5371
 5874TIP3    H139113   1.963   6.433  14.001 -0.0622 -2.0718 -0.6638
 5874TIP3    H239114   2.090   6.364  14.046  0.6216  0.4150  1.3569
 5875TIP3   OH239115   6.007   4.743  11.949  0.3610  0.2739 -0.1099
 5875TIP3    H139116   6.066   4.817  11.960 -0.1986  0.8003 -0.5805
 5875TIP3    H239117   6.016   4.693  12.030  1.0369  0.6432  0.0477
 5876TIP3   OH239118   4.222   1.321  15.759 -0.2736  0.0408 -0.2285
 5876TIP3    H139119   4.274   1.261  15.813  0.8823  0.2650 -1.0685
 5876TIP3    H239120   4.263   1.317  15.672 -1.0479  0.9898 -0.6531
 5877TIP3   OH239121   5.723   5.099   4.309 -0.0975  0.0335 -0.3251
 5877TIP3    H139122   5.635   5.107   4.347 -0.7008  0.5224 -1.7965
 5877TIP3    H239123   5.751   5.189   4.297  0.1004 -0.1161 -0.9945
 5878TIP3   OH239124   4.999   2.522   0.258 -0.1263  0.7901 -0.3827
 5878TIP3    H139125   4.995   2.439   0.305  0.4476 -0.0191 -1.7048
 5878TIP3    H239126   4.943   2.581   0.307 -0.0481 -0.2115  0.9303
 5879TIP3   OH239127   1.988   6.600  11.977 -0.1916 -0.3439 -0.3904
 5879TIP3    H139128   1.997   6.692  12.002  1.3486 -0.2780 -1.1224
 5879TIP3    H239129   2.078   6.567  11.976 -0.6642 -1.6366 -0.9592
 5880TIP3   OH239130   1.131   5.400  13.138  0.5287  0.0635  0.0511
 5880TIP3    H139131   1.158   5.387  13.047 -1.7520  1.1869 -0.8051
 5880TIP3    H239132   1.126   5.495  13.149 -0.3356 -0.0843  1.0225
 5881TIP3   OH239133   1.688   3.682  17.262  0.1029  0.0455  0.4160
 5881TIP3    H139134   1.754   3.612  17.263 -0.8457 -0.8641  0.1984
 5881TIP3    H239135   1.739   3.763  17.261  1.2524 -0.6724 -1.9744
 5882TIP3   OH239136   6.142   2.148  13.170  0.6239  0.7316 -0.4184
 5882TIP3    H139137   6.162   2.054  13.175 -1.7239  0.2436  0.2540
 5882TIP3    H239138   6.166   2.182  13.256 -0.2525  0.3805 -0.0289
 5883TIP3   OH239139   3.494   3.282  11.875  0.2742 -0.0685 -0.5264
 5883TIP3    H139140   3.480   3.212  11.811  2.0004 -0.3563 -0.6142
 5883TIP3    H239141   3.416   3.279  11.931 -0.1692 -1.3520 -1.1891
 5884TIP3   OH239142   4.489   3.335   1.579  0.2938  0.5035  0.0185
 5884TIP3    H139143   4.534   3.417   1.558 -0.2826  0.4617 -1.3957
 5884TIP3    H239144   4.462   3.346   1.670  1.2330  1.4161  0.2018
 5885TIP3   OH239145   2.602   6.603  17.212  0.6622  0.3677  0.2219
 5885TIP3    H139146   2.564   6.567  17.132  2.1215  0.8465 -0.7067
 5885TIP3    H239147   2.616   6.527  17.268 -1.5635  0.1748  0.5544
 5886TIP3   OH239148   1.065   6.129  13.416  0.6465  0.4006 -0.2550
 5886TIP3    H139149   0.984   6.176  13.396  0.0645 -0.2059  0.6658
 5886TIP3    H239150   1.134   6.188  13.385 -0.1539  0.3598 -2.2223
 5887TIP3   OH239151   1.008   1.304   0.601 -0.2008  0.0762 -0.2333
 5887TIP3    H139152   1.064   1.229   0.623  0.1725  0.5226  0.3388
 5887TIP3    H239153   0.931   1.264   0.560 -0.2733 -0.6658  0.6049
 5888TIP3   OH239154   6.380   2.704  11.994 -0.1381  0.3380  0.1385
 5888TIP3    H139155   6.358   2.797  11.981 -0.6872  0.2594  0.4752
 5888TIP3    H239156   6.331   2.659  11.925 -1.7897  0.0730  1.4433
 5889TIP3   OH239157   5.620   1.663  11.947  0.4219 -0.1618 -0.1206
 5889TIP3    H139158   5.691   1.612  11.909  0.1803  0.1864 -1.0467
 5889TIP3    H239159   5.623   1.642  12.041  0.4984 -1.6437 -0.4429
 5890TIP3   OH239160   3.966   5.636   1.817  0.0140 -0.2525  0.1840
 5890TIP3    H139161   3.910   5.594   1.883 -2.0570 -0.1674 -1.4576
 5890TIP3    H239162   4.052   5.595   1.829 -0.9984 -2.1856  1.1669
 5891TIP3   OH239163   4.608   5.380  15.516 -0.0149  0.7523 -0.2208
 5891TIP3    H139164   4.585   5.288  15.528 -1.1060  1.0064 -0.3010
 5891TIP3    H239165   4.638   5.387  15.426 -0.0164  0.4924 -0.2397
 5892TIP3   OH239166   2.371   6.796  11.785  0.1523 -0.2194  0.0295
 5892TIP3    H139167   2.298   6.739  11.759  0.0297  0.3425 -0.8859
 5892TIP3    H239168   2.331   6.861  11.842  0.1971 -0.7496  0.6677
 5893TIP3   OH239169   2.650   6.471  11.730  0.3127 -0.0109 -0.5915
 5893TIP3    H139170   2.715   6.459  11.799 -0.2205 -0.2542 -0.1291
 5893TIP3    H239171   2.695   6.524  11.664  0.6614  0.6507  0.1684
 5894TIP3   OH239172   0.484   5.215   2.949 -0.0876  0.0120  0.7630
 5894TIP3    H139173   0.575   5.198   2.970 -0.4388 -2.1039  0.6433
 5894TIP3    H239174   0.487   5.263   2.866  0.9291  0.7064  1.1890
 5895TIP3   OH239175   2.461   6.084  12.833 -0.0926 -0.3186  0.5273
 5895TIP3    H139176   2.474   6.113  12.923 -0.5028 -0.4967  0.6437
 5895TIP3    H239177   2.487   6.158  12.779 -2.8475  0.9541  0.8517
 5896TIP3   OH239178   3.446   4.320   0.975  0.5938  0.0105 -0.0222
 5896TIP3    H139179   3.427   4.392   0.914  0.2329  0.3601  0.4947
 5896TIP3    H239180   3.535   4.336   1.004 -0.0224  1.1705  1.3129
 5897TIP3   OH239181   4.097   5.820  12.613 -0.1802 -0.2227  0.4277
 5897TIP3    H139182   4.062   5.814  12.524 -1.6448  0.4980  0.9349
 5897TIP3    H239183   4.020   5.823  12.669  0.7053  1.3185  1.5947
 5898TIP3   OH239184   0.998   2.190   1.466  0.1557 -0.2311  0.2640
 5898TIP3    H139185   0.966   2.254   1.404 -0.4565  0.8846  1.7009
 5898TIP3    H239186   1.070   2.234   1.511  0.7840 -1.1256  0.1583
 5899TIP3   OH239187   4.081   2.103  15.798 -0.0494 -0.2513 -0.4055
 5899TIP3    H139188   4.069   2.047  15.875 -0.4890 -1.1063 -1.0839
 5899TIP3    H239189   4.086   2.042  15.725 -0.3149  0.5910 -1.1326
 5900TIP3   OH239190   3.501   6.394  15.454 -0.1381  0.3531  0.2479
 5900TIP3    H139191   3.517   6.466  15.516  0.8605 -0.4520  0.9471
 5900TIP3    H239192   3.463   6.325  15.508 -0.4087  0.0903 -0.2776
 5901TIP3   OH239193   3.157   5.760  11.326  0.7825  0.7625 -0.1967
 5901TIP3    H139194   3.086   5.757  11.261  1.3653  2.1878 -0.9242
 5901TIP3    H239195   3.142   5.841  11.374  2.1693  1.2948 -0.6475
 5902TIP3   OH239196   0.996   3.366   5.978 -0.0050 -0.1215  0.0610
 5902TIP3    H139197   0.908   3.394   5.955  0.3339  0.3964 -0.6602
 5902TIP3    H239198   0.995   3.271   5.971  0.5163  0.0794 -3.8191
 5903TIP3   OH239199   0.418   1.495   1.925  0.5257 -1.1066 -0.4678
 5903TIP3    H139200   0.394   1.569   1.981  1.7410 -1.6283  0.7672
 5903TIP3    H239201   0.356   1.426   1.950 -0.8974 -0.3872 -1.9355
 5904TIP3   OH239202   6.014   1.419   2.817 -0.0806  0.4605 -0.4030
 5904TIP3    H139203   6.080   1.428   2.748  0.2503  1.5128  0.0340
 5904TIP3    H239204   6.046   1.348   2.872  1.6846  2.1802  0.8674
 5905TIP3   OH239205   3.697   3.946  15.774  0.9774  0.3026  0.0594
 5905TIP3    H139206   3.630   4.003  15.736  1.2104  0.7468  0.3149
 5905TIP3    H239207   3.774   3.960  15.719  1.2487  0.7758  0.5591
 5906TIP3   OH239208   6.036   4.684   0.806 -0.3869 -0.0950 -0.5512
 5906TIP3    H139209   5.968   4.748   0.786 -1.7003 -0.4752  2.3636
 5906TIP3    H239210   6.114   4.736   0.825 -1.2662  0.6369  1.1413
 5907TIP3   OH239211   0.289   3.325  17.088  0.0783 -0.0337  0.3520
 5907TIP3    H139212   0.223   3.274  17.041 -0.1372  0.3918  0.1874
 5907TIP3    H239213   0.255   3.414  17.088  0.0314 -0.0456  1.3961
 5908TIP3   OH239214   5.775   4.695  12.806  0.4244 -0.8257 -0.2291
 5908TIP3    H139215   5.760   4.670  12.897  0.1070 -1.4715 -0.4549
 5908TIP3    H239216   5.751   4.617  12.755  3.4758 -1.5066 -0.7013
 5909TIP3   OH239217   6.059   1.976  12.066 -0.3875 -0.3392 -0.4310
 5909TIP3    H139218   6.007   2.009  12.140  0.4931  3.0003 -1.2036
 5909TIP3    H239219   6.003   1.989  11.990 -0.2915 -1.3456 -0.6790
 5910TIP3   OH239220   5.054   5.739   5.402 -0.0441  0.0741  0.0857
 5910TIP3    H139221   5.140   5.776   5.380  0.5404 -1.9205 -1.0773
 5910TIP3    H239222   5.038   5.768   5.492  1.0337  1.9445 -0.3001
 5911TIP3   OH239223   4.032   0.626   6.115 -0.3757 -0.2580  0.1428
 5911TIP3    H139224   4.006   0.717   6.131 -0.8862 -0.5890  1.2766
 5911TIP3    H239225   4.034   0.587   6.202  3.7804 -0.3096  0.1135
 5912TIP3   OH239226   0.293   3.725  16.011  0.7772  0.2910 -0.1682
 5912TIP3    H139227   0.344   3.646  15.994 -1.0419 -0.8698 -0.3540
 5912TIP3    H239228   0.270   3.720  16.104  0.7466  0.6402 -0.1566
 5913TIP3   OH239229   1.340   5.135   1.159  0.1150 -0.3455 -0.1499
 5913TIP3    H139230   1.256   5.097   1.187 -0.2218  0.2207 -0.3787
 5913TIP3    H239231   1.337   5.225   1.190 -0.6895  0.6009 -2.8416
 5914TIP3   OH239232   6.382   1.718  14.750  0.3887 -0.4781  0.3623
 5914TIP3    H139233   6.436   1.667  14.690  0.2041  1.4824 -1.5445
 5914TIP3    H239234   6.294   1.684  14.738  0.2023  0.4942 -1.1874
 5915TIP3   OH239235   4.111   1.442  15.292  0.4064  0.3746  0.1495
 5915TIP3    H139236   4.190   1.413  15.337  0.0254 -0.3458  0.3706
 5915TIP3    H239237   4.124   1.418  15.201 -0.7056 -2.2890  0.6404
 5916TIP3   OH239238   0.007   3.235  13.595 -0.0794 -0.2092 -0.0227
 5916TIP3    H139239  -0.069   3.193  13.636 -0.1078  0.4342  0.5938
 5916TIP3    H239240  -0.027   3.274  13.515 -0.0525 -1.3705 -0.6061
 5917TIP3   OH239241   1.319   2.994   1.228  0.2711  0.5521 -0.0712
 5917TIP3    H139242   1.365   3.072   1.258 -0.0851  1.1887 -1.1731
 5917TIP3    H239243   1.228   3.009   1.251 -0.0066  1.0448 -1.4445
 5918TIP3   OH239244   0.432   5.668  14.881 -0.1526 -0.7435  0.5885
 5918TIP3    H139245   0.437   5.743  14.940 -0.8473 -0.6230  0.5039
 5918TIP3    H239246   0.368   5.695  14.814  2.0349 -0.1110 -1.3067
 5919TIP3   OH239247   4.671   6.759  12.316 -0.0984 -0.0034 -0.4319
 5919TIP3    H139248   4.722   6.709  12.253  0.1817 -1.0019  0.5707
 5919TIP3    H239249   4.730   6.771  12.391 -0.6334  0.6307 -0.1058
 5920TIP3   OH239250   0.626   1.763  14.351  0.5412  0.0798 -0.2339
 5920TIP3    H139251   0.590   1.784  14.265  1.9764 -0.5799 -1.0222
 5920TIP3    H239252   0.603   1.837  14.406 -0.6529  0.3710 -1.1069
 5921TIP3   OH239253   0.753   0.978   4.227 -0.0180  0.3697 -0.2839
 5921TIP3    H139254   0.707   0.975   4.143 -0.7009  0.7007  0.0712
 5921TIP3    H239255   0.769   1.071   4.243 -1.2919  0.4374  0.6913
 5922TIP3   OH239256   1.404   5.045   5.430  0.0645 -0.0161 -0.0746
 5922TIP3    H139257   1.457   5.112   5.472  0.3430 -0.4312  0.2419
 5922TIP3    H239258   1.455   5.020   5.353 -0.6846  1.1044 -0.9483
 5923TIP3   OH239259   2.822   2.750  15.382 -0.1547 -0.5885 -0.0710
 5923TIP3    H139260   2.811   2.803  15.461  1.6909  0.5197 -0.5128
 5923TIP3    H239261   2.781   2.801  15.313 -0.6096 -0.9402 -0.0636
 5924TIP3   OH239262   1.448   2.436  13.676  0.1908  0.1312 -0.6854
 5924TIP3    H139263   1.430   2.429  13.770  1.0963 -0.2027 -0.5273
 5924TIP3    H239264   1.387   2.503  13.645 -0.6556 -0.3262 -0.0134
 5925TIP3   OH239265   1.465   6.636  13.617 -0.3421  0.0066 -0.1278
 5925TIP3    H139266   1.435   6.594  13.536 -0.4730 -1.0840  0.4817
 5925TIP3    H239267   1.560   6.626  13.615 -0.3468 -0.0344 -0.1327
 5926TIP3   OH239268   3.174   5.849  12.884 -0.1469 -0.0929  0.1533
 5926TIP3    H139269   3.209   5.896  12.808 -1.0034  3.4667  1.8653
 5926TIP3    H239270   3.248   5.799  12.917  0.6084 -0.5688 -2.1619
 5927TIP3   OH239271   0.688   4.291   4.773 -0.0232  0.2734 -0.1851
 5927TIP3    H139272   0.628   4.361   4.748 -0.1955  0.1521 -0.1118
 5927TIP3    H239273   0.631   4.222   4.806  0.1381  0.0537 -0.3670
 5928TIP3   OH239274   3.131   3.140  14.703 -0.2145  0.1616  0.3000
 5928TIP3    H139275   3.069   3.205  14.737  0.6314  0.6670  0.8809
 5928TIP3    H239276   3.124   3.066  14.763  1.3687  1.1008  1.6918
 5929TIP3   OH239277   6.341   2.071  11.407 -0.3347  0.2929  0.0293
 5929TIP3    H139278   6.344   2.159  11.445  0.6696 -0.3356  1.4539
 5929TIP3    H239279   6.259   2.034  11.438 -0.6766  0.6675 -0.4295
 5930TIP3   OH239280   4.779   0.673  11.617  0.6970 -0.0094 -0.2595
 5930TIP3    H139281   4.767   0.732  11.542 -1.2058 -0.0537 -0.0023
 5930TIP3    H239282   4.794   0.732  11.691  0.0109  0.1147 -0.2167
 5931TIP3   OH239283   4.419   6.179   0.168  0.3390 -0.7086 -0.4297
 5931TIP3    H139284   4.494   6.138   0.211  1.0672  0.2919 -0.7315
 5931TIP3    H239285   4.436   6.169   0.074 -0.4834 -1.5012 -0.5098
 5932TIP3   OH239286   3.509   1.149  16.359 -0.4893  0.1582 -0.3037
 5932TIP3    H139287   3.518   1.099  16.439 -1.4043 -0.0617 -0.3395
 5932TIP3    H239288   3.427   1.118  16.319 -0.0207  0.2221 -1.3463
 5933TIP3   OH239289   1.030   2.102  13.762  0.0824  0.6531  0.1473
 5933TIP3    H139290   1.079   2.154  13.699 -0.8185  0.1454 -1.0160
 5933TIP3    H239291   1.043   2.011  13.733 -1.0129  0.4727  0.1721
 5934TIP3   OH239292   4.173   0.631  11.559  0.2636 -0.5024 -0.5819
 5934TIP3    H139293   4.192   0.563  11.495 -1.0400 -1.0453 -0.4096
 5934TIP3    H239294   4.159   0.583  11.641  0.5238  0.0712 -0.2040
 5935TIP3   OH239295   1.148   5.732   5.115  0.4855  0.2650 -1.0419
 5935TIP3    H139296   1.121   5.786   5.041  2.4484  2.0192 -0.5534
 5935TIP3    H239297   1.083   5.750   5.183  0.7630  1.5627 -1.1037
 5936TIP3   OH239298   1.013   5.787  17.199 -0.1434 -0.2945 -0.0117
 5936TIP3    H139299   0.954   5.722  17.161 -0.0344  0.4301 -1.4271
 5936TIP3    H239300   0.984   5.871  17.163 -0.5327  0.5215  2.1062
 5937TIP3   OH239301   5.531   1.606  15.158  0.2339  0.0527 -0.3638
 5937TIP3    H139302   5.583   1.525  15.157 -1.0437 -0.7906 -0.2556
 5937TIP3    H239303   5.441   1.577  15.140  0.1353  1.7547 -2.8803
 5938TIP3   OH239304   0.126   6.352  16.105 -0.0846  0.2193  0.3881
 5938TIP3    H139305   0.131   6.260  16.129 -0.6533  0.5897  1.9264
 5938TIP3    H239306   0.205   6.366  16.051  0.7164 -0.8293  1.2564
 5939TIP3   OH239307   5.151   2.548  12.454 -0.5788 -0.0299  0.3586
 5939TIP3    H139308   5.209   2.493  12.507 -0.7640 -0.8571 -0.2866
 5939TIP3    H239309   5.076   2.565  12.510 -0.5018 -0.4027  0.5731
 5940TIP3   OH239310   0.076   1.513   1.780 -0.0059 -0.1364 -0.4014
 5940TIP3    H139311   0.126   1.432   1.772  2.3977  0.9177  2.6746
 5940TIP3    H239312   0.086   1.556   1.696  2.8833 -0.7756 -0.4383
 5941TIP3   OH239313   4.743   3.386   0.197 -0.0367 -0.3818 -0.1055
 5941TIP3    H139314   4.707   3.448   0.134 -0.2360  0.2297  0.5961
 5941TIP3    H239315   4.837   3.391   0.185 -0.1117 -1.0023 -1.0315
 5942TIP3   OH239316   5.360   3.131   2.486  0.4088 -0.7548 -0.0890
 5942TIP3    H139317   5.306   3.104   2.412  0.3895  0.6271 -0.5977
 5942TIP3    H239318   5.436   3.073   2.483  1.5057  0.7472 -2.5734
 5943TIP3   OH239319   1.794   1.943   1.944 -0.0454  0.8958  0.0386
 5943TIP3    H139320   1.738   1.927   2.019  1.2064 -0.0218  0.8098
 5943TIP3    H239321   1.859   2.006   1.975  0.8943 -0.0150 -0.0307
 5944TIP3   OH239322   1.039   0.028   5.069 -0.0248  0.6083  0.4488
 5944TIP3    H139323   0.951   0.050   5.039 -0.2370  0.9380  1.2756
 5944TIP3    H239324   1.070  -0.040   5.009 -0.6071  0.9183 -0.2051
 5945TIP3   OH239325   3.704   4.318  11.377 -0.2465  0.6748  0.1125
 5945TIP3    H139326   3.681   4.338  11.286  0.7651  2.1734  0.1587
 5945TIP3    H239327   3.666   4.390  11.427 -1.9989 -0.8691  1.0628
 5946TIP3   OH239328   0.697   4.527  16.418  0.3800  0.1642  0.3056
 5946TIP3    H139329   0.792   4.524  16.401  0.3093  0.4384 -0.1493
 5946TIP3    H239330   0.663   4.589  16.353 -0.0895  0.1951  0.5810
 5947TIP3   OH239331   1.628   6.287   3.290 -0.0332  0.0563  0.1938
 5947TIP3    H139332   1.679   6.362   3.259 -1.2543  1.6648  2.0273
 5947TIP3    H239333   1.550   6.325   3.330 -1.6979 -2.2903 -0.7201
 5948TIP3   OH239334   2.717   0.163  14.947 -0.6833  0.1701  0.1351
 5948TIP3    H139335   2.757   0.249  14.946 -1.0375  0.3355 -0.7477
 5948TIP3    H239336   2.763   0.115  15.015 -1.1530  1.3670  1.3140
 5949TIP3   OH239337   5.505   3.828  10.655  0.5111  0.5665  0.0168
 5949TIP3    H139338   5.446   3.755  10.637  0.4636  0.9265 -1.3645
 5949TIP3    H239339   5.573   3.790  10.712  0.0294 -0.3429 -0.0018
 5950TIP3   OH239340   0.699   4.969  17.180 -0.3212 -0.0776  0.1445
 5950TIP3    H139341   0.727   5.020  17.104 -0.0934  0.7164  0.7613
 5950TIP3    H239342   0.656   4.892  17.143  0.6923 -0.1999 -0.7948
 5951TIP3   OH239343   0.849   2.675  14.327 -0.0053  0.3227 -0.4474
 5951TIP3    H139344   0.919   2.721  14.280 -0.8405  1.1378 -0.9164
 5951TIP3    H239345   0.857   2.704  14.418  0.4562  0.1856 -0.4456
 5952TIP3   OH239346   1.035   2.506   4.653  0.1633  0.4622 -0.1836
 5952TIP3    H139347   1.084   2.439   4.699 -0.2653  1.2494  1.4512
 5952TIP3    H239348   0.950   2.465   4.634  0.5571 -0.0667 -0.8456
 5953TIP3   OH239349   2.311   4.934  10.744  0.1467  0.1115 -0.0235
 5953TIP3    H139350   2.349   5.004  10.692  0.5084  0.3427  0.5447
 5953TIP3    H239351   2.361   4.856  10.720 -0.3710  0.0065 -0.7852
 5954TIP3   OH239352   5.442   4.737  15.268 -0.3020 -0.6712  0.3472
 5954TIP3    H139353   5.347   4.735  15.264 -0.3857  0.4267  1.4671
 5954TIP3    H239354   5.462   4.729  15.361  0.6055  1.3266  0.3645
 5955TIP3   OH239355   1.366   4.418   3.373 -0.2509  0.1441  0.4131
 5955TIP3    H139356   1.352   4.342   3.317 -0.5395  1.1852 -0.9760
 5955TIP3    H239357   1.328   4.394   3.457 -0.1796 -1.3061  0.0426
 5956TIP3   OH239358   0.412   6.626   6.346 -0.4614 -0.5695  0.1345
 5956TIP3    H139359   0.326   6.593   6.373 -1.0926  1.2326  0.4170
 5956TIP3    H239360   0.475   6.568   6.389 -1.5325 -2.1209 -0.3512
 5957TIP3   OH239361   3.956   0.798  13.871 -0.5842  0.0111 -0.1066
 5957TIP3    H139362   4.011   0.724  13.844  0.2887  1.2764 -1.9100
 5957TIP3    H239363   3.877   0.757  13.906  0.8205 -1.8065  1.0361
 5958TIP3   OH239364   2.650   4.229  14.071 -0.1897  0.3313 -0.5666
 5958TIP3    H139365   2.570   4.278  14.088 -0.5419 -0.0319 -1.1731
 5958TIP3    H239366   2.620   4.146  14.034  0.4055 -0.3362  0.4414
 5959TIP3   OH239367   3.905   2.135   5.819  0.2804  0.3043 -0.1223
 5959TIP3    H139368   3.981   2.185   5.848  0.4323  2.0455 -3.2870
 5959TIP3    H239369   3.832   2.168   5.872  1.1034  1.0522  0.5552
 5960TIP3   OH239370   6.072   6.009   2.108  0.2591 -0.1942  0.1961
 5960TIP3    H139371   6.163   6.036   2.104  0.1519  0.3228  1.1329
 5960TIP3    H239372   6.032   6.042   2.027  0.2479  1.9832  1.0748
 5961TIP3   OH239373   2.790   1.161   6.277 -0.5285  0.3539 -0.1076
 5961TIP3    H139374   2.766   1.100   6.207 -0.7728 -0.1784  0.4342
 5961TIP3    H239375   2.710   1.170   6.328 -1.0254  2.5516 -1.2278
 5962TIP3   OH239376   6.349   4.855  12.244 -0.5063 -0.3061  0.2554
 5962TIP3    H139377   6.340   4.950  12.248  0.5277 -0.1481 -0.7856
 5962TIP3    H239378   6.339   4.826  12.334  0.6338  0.9323  0.8080
 5963TIP3   OH239379   0.579   2.712   2.561  0.2738 -0.0165 -0.0085
 5963TIP3    H139380   0.586   2.617   2.551 -1.7346 -0.1645 -0.2218
 5963TIP3    H239381   0.542   2.724   2.648 -1.2606  0.4876 -0.7221
 5964TIP3   OH239382   0.574   0.712   3.155 -0.4595 -0.2103 -0.5159
 5964TIP3    H139383   0.558   0.799   3.193 -0.2094 -1.0358  1.5406
 5964TIP3    H239384   0.490   0.667   3.162  0.3882 -1.5023  2.1771
 5965TIP3   OH239385   4.116   1.713  11.417 -0.0208  0.0310  0.2188
 5965TIP3    H139386   4.163   1.694  11.499  0.3942 -0.7828 -0.2004
 5965TIP3    H239387   4.179   1.690  11.348 -1.0509 -1.1144 -0.3542
 5966TIP3   OH239388   2.159   3.205  14.408  0.1515 -0.6575 -0.5143
 5966TIP3    H139389   2.107   3.164  14.338  1.4768 -1.7796 -0.8601
 5966TIP3    H239390   2.139   3.153  14.486 -0.9778  0.3152 -0.1442
 5967TIP3   OH239391   3.623   1.644  15.031 -0.6772 -0.0424 -0.1718
 5967TIP3    H139392   3.699   1.604  15.073 -0.8643  1.1388  1.3427
 5967TIP3    H239393   3.566   1.571  15.009 -0.1753 -0.7555  0.8780
 5968TIP3   OH239394   6.742   2.972   2.592 -0.1387  0.0648 -0.4439
 5968TIP3    H139395   6.680   3.045   2.589 -1.2675 -0.9002 -1.1633
 5968TIP3    H239396   6.691   2.896   2.561  1.3690 -0.7634 -0.9163
 5969TIP3   OH239397   3.895   4.324   1.331 -0.6573  0.5235 -0.0008
 5969TIP3    H139398   3.902   4.246   1.277  2.0589  1.8787 -1.7743
 5969TIP3    H239399   3.958   4.309   1.402 -2.0355  0.0154  1.1253
 5970TIP3   OH239400   6.057   3.219   0.598 -0.1924  0.3126 -0.1720
 5970TIP3    H139401   6.023   3.293   0.649 -0.9956  0.4270 -0.8538
 5970TIP3    H239402   5.979   3.171   0.570  0.3268 -0.7843  0.2461
 5971TIP3   OH239403   6.507   6.768   6.682  0.1282  0.5552 -0.2358
 5971TIP3    H139404   6.526   6.679   6.711 -0.9741  0.1448 -0.7654
 5971TIP3    H239405   6.418   6.764   6.646  0.0182  1.8960 -0.1413
 5972TIP3   OH239406   6.805   3.318  15.229 -0.6045 -0.4930  0.0293
 5972TIP3    H139407   6.810   3.367  15.311 -2.1008  0.1112 -0.2224
 5972TIP3    H239408   6.816   3.227  15.255 -0.2431 -0.2355  0.8017
 5973TIP3   OH239409   1.201   5.611  11.217 -0.7380 -0.0114  0.5424
 5973TIP3    H139410   1.225   5.530  11.172  0.4181  0.0057  1.1126
 5973TIP3    H239411   1.172   5.669  11.147  0.8546 -0.0504 -0.1689
 5974TIP3   OH239412   1.860   1.307  12.886  0.0716 -0.4605  0.3991
 5974TIP3    H139413   1.853   1.257  12.805 -1.2555 -1.0525  0.8527
 5974TIP3    H239414   1.844   1.397  12.860 -0.0985 -0.6153 -0.0366
 5975TIP3   OH239415   1.883   6.070   6.200  0.0343 -0.2722  0.1153
 5975TIP3    H139416   1.802   6.121   6.206 -0.8510 -1.6868  0.3592
 5975TIP3    H239417   1.870   5.997   6.260  1.2188 -0.9042 -0.3752
 5976TIP3   OH239418   6.301   6.158   0.998 -0.1484  0.1023 -0.3657
 5976TIP3    H139419   6.298   6.062   0.991  0.0731 -0.0239  1.0274
 5976TIP3    H239420   6.231   6.189   0.941  0.2697 -0.8545 -1.4188
 5977TIP3   OH239421   4.213   5.256   5.198 -0.0887 -0.4269 -0.4161
 5977TIP3    H139422   4.138   5.209   5.233  1.6543 -2.2773  0.9615
 5977TIP3    H239423   4.267   5.188   5.157  1.4974  0.6491 -0.1723
 5978TIP3   OH239424   4.508   6.144  12.123  0.1129  0.1453  0.0132
 5978TIP3    H139425   4.527   6.070  12.065  1.8711  1.6056 -1.3648
 5978TIP3    H239426   4.463   6.207  12.066  0.5756  1.0100  0.6052
 5979TIP3   OH239427   0.279   4.238   1.340 -0.0588 -0.2590 -0.2472
 5979TIP3    H139428   0.211   4.297   1.309 -1.9302 -1.3911  1.6132
 5979TIP3    H239429   0.321   4.284   1.412 -1.0194 -0.8729  0.7136
 5980TIP3   OH239430   0.571   1.423  14.079 -0.1610 -0.4605 -0.1260
 5980TIP3    H139431   0.566   1.412  14.173  0.7901 -1.0683 -0.1430
 5980TIP3    H239432   0.545   1.339  14.043  0.3264 -0.5075 -0.3822
 5981TIP3   OH239433   1.399   0.774   3.856  0.0778  0.2976  0.1569
 5981TIP3    H139434   1.424   0.768   3.949 -0.6214 -1.1858  0.2570
 5981TIP3    H239435   1.476   0.741   3.809  0.1792  0.4306  0.2259
 5982TIP3   OH239436   3.521   3.158  11.629 -0.8398 -0.0118 -0.1330
 5982TIP3    H139437   3.478   3.083  11.587  0.7427 -2.1283  1.9336
 5982TIP3    H239438   3.614   3.146  11.610 -0.6059  1.7143 -0.1817
 5983TIP3   OH239439   5.239   3.242  14.644  0.5065 -1.1672 -0.8271
 5983TIP3    H139440   5.265   3.278  14.729  0.6959 -0.8103 -1.0376
 5983TIP3    H239441   5.317   3.198  14.611  1.1996  0.8817 -1.9819
 5984TIP3   OH239442   2.762   5.463  16.519 -0.2282  0.0062 -0.0808
 5984TIP3    H139443   2.780   5.498  16.607 -1.0628 -1.1316  0.5605
 5984TIP3    H239444   2.667   5.465  16.512 -0.2317 -1.1388 -0.4343
 5985TIP3   OH239445   4.000   0.994  16.367  0.0596  0.1864  0.1573
 5985TIP3    H139446   4.007   1.089  16.357 -1.5005  0.1860 -1.2215
 5985TIP3    H239447   3.966   0.981  16.456 -0.3077  0.9588  0.1299
 5986TIP3   OH239448   1.117   1.010  14.130  0.0037  0.0272  0.5231
 5986TIP3    H139449   1.095   1.102  14.141  1.9806  0.6482 -0.5303
 5986TIP3    H239450   1.202   1.010  14.087 -0.4925 -2.2852 -0.5710
 5987TIP3   OH239451   1.196   0.881  16.961  0.2739  0.6142  0.1581
 5987TIP3    H139452   1.244   0.956  16.995 -0.4304  0.6711  1.0510
 5987TIP3    H239453   1.173   0.830  17.039  0.9230 -0.6429 -0.4583
 5988TIP3   OH239454   5.690   1.730   1.770  0.3320 -0.5672  0.6537
 5988TIP3    H139455   5.754   1.675   1.724 -0.0173 -1.0716  0.7622
 5988TIP3    H239456   5.624   1.751   1.704  1.7790  1.8659 -0.0715
 5989TIP3   OH239457   3.922   4.076  16.786 -0.0387 -0.2485  0.2782
 5989TIP3    H139458   3.882   4.116  16.862  2.2282  0.3090  1.2159
 5989TIP3    H239459   3.969   4.000  16.821  0.5325 -0.3353 -0.6605
 5990TIP3   OH239460   4.713   5.098  14.194  0.0485 -0.5736  0.1374
 5990TIP3    H139461   4.717   5.002  14.191  0.3029 -0.5294 -1.2842
 5990TIP3    H239462   4.663   5.121  14.116  1.9622  0.5803 -0.7477
 5991TIP3   OH239463   0.799   4.264   6.880 -0.1946 -0.2786  0.2917
 5991TIP3    H139464   0.715   4.222   6.863 -0.8994  0.8936  0.8608
 5991TIP3    H239465   0.778   4.356   6.896  1.2261  0.0932  0.1305
 5992TIP3   OH239466   3.988   2.876  13.537  0.1070 -0.3221  0.0923
 5992TIP3    H139467   4.075   2.842  13.556  0.1018 -1.2098 -1.3447
 5992TIP3    H239468   4.002   2.969  13.519  0.6504 -0.3065  0.5971
 5993TIP3   OH239469   3.586   2.770   5.569 -0.3266  0.0441 -0.3367
 5993TIP3    H139470   3.495   2.781   5.541 -0.4605  0.3886  0.2290
 5993TIP3    H239471   3.618   2.860   5.583 -0.2688 -0.1198  0.6202
 5994TIP3   OH239472   5.554   6.510   5.877 -0.4663 -0.4386  0.0912
 5994TIP3    H139473   5.487   6.576   5.860  0.3664  0.2781 -0.4381
 5994TIP3    H239474   5.521   6.462   5.954  0.0757  2.1867  2.0324
 5995TIP3   OH239475   3.172   0.282  15.080  0.3672  0.3041  0.0404
 5995TIP3    H139476   3.221   0.363  15.066  0.6752  0.7122  3.0860
 5995TIP3    H239477   3.180   0.266  15.174  0.4898 -3.3924 -0.5343
 5996TIP3   OH239478   5.911   3.248   0.264  0.5539  0.1242 -0.1070
 5996TIP3    H139479   5.909   3.309   0.191 -1.7710  0.8001  0.4777
 5996TIP3    H239480   5.907   3.161   0.223  1.7551  0.4099 -0.8510
 5997TIP3   OH239481   0.606   3.811   0.373 -0.0865 -0.8239  0.3109
 5997TIP3    H139482   0.557   3.891   0.357  0.4743 -0.3846  0.7563
 5997TIP3    H239483   0.665   3.802   0.298  0.3689 -0.4171  0.6126
 5998TIP3   OH239484   6.664   3.477   5.395  0.5404  0.1491 -0.0511
 5998TIP3    H139485   6.571   3.492   5.415  0.9981  1.5975  1.0710
 5998TIP3    H239486   6.663   3.429   5.312 -1.1993  0.9909 -0.5458
 5999TIP3   OH239487   5.584   1.928   3.710 -0.3330 -0.3849  0.0840
 5999TIP3    H139488   5.503   1.979   3.718 -0.4774 -0.6635  0.4111
 5999TIP3    H239489   5.651   1.982   3.752 -0.4269 -0.3238  0.1570
 6000TIP3   OH239490   5.238   1.248   5.777  0.1771  0.4368  0.2350
 6000TIP3    H139491   5.164   1.299   5.810 -0.9318 -0.5748 -0.6343
 6000TIP3    H239492   5.282   1.215   5.855 -0.1953  1.1632  0.7605
 6001TIP3   OH239493   6.369   0.584   1.244  0.1518 -0.0199  0.3850
 6001TIP3    H139494   6.332   0.658   1.293  2.0229  1.2710 -0.1086
 6001TIP3    H239495   6.340   0.598   1.154 -1.0095 -0.9114  0.6009
 6002TIP3   OH239496   5.325   4.818   3.611 -0.4193  0.1037  0.7393
 6002TIP3    H139497   5.300   4.835   3.701  0.7577 -1.7737  1.4451
 6002TIP3    H239498   5.419   4.837   3.608 -0.0365 -1.7614  0.4193
 6003TIP3   OH239499   3.977   1.831   4.526  0.1356  0.2226 -0.6367
 6003TIP3    H139500   4.006   1.770   4.594  1.6496 -2.6586 -3.7530
 6003TIP3    H239501   4.046   1.897   4.522  0.5362 -0.1531 -0.0656
 6004TIP3   OH239502   2.702   0.066   0.344 -0.1739 -0.3628  0.4268
 6004TIP3    H139503   2.643   0.007   0.391 -1.5150 -0.4006 -1.2249
 6004TIP3    H239504   2.707   0.028   0.256  1.1436  0.4819  0.1318
 6005TIP3   OH239505   1.323   1.064   6.766 -0.3245  0.1334  0.0637
 6005TIP3    H139506   1.289   0.989   6.717  1.0314  0.5833 -1.6089
 6005TIP3    H239507   1.416   1.068   6.743  0.1593  0.8620  2.0431
 6006TIP3   OH239508   1.382   2.941  15.417 -0.0101 -0.5638  0.1453
 6006TIP3    H139509   1.406   2.941  15.510  1.6996 -0.1625 -0.2899
 6006TIP3    H239510   1.400   2.851  15.389 -0.4740 -0.6688  0.1759
 6007TIP3   OH239511   4.290   0.711  12.889  0.4077 -0.3536 -0.0423
 6007TIP3    H139512   4.354   0.643  12.910 -0.0422 -0.2639  1.6747
 6007TIP3    H239513   4.214   0.663  12.855  1.2089 -0.4893 -1.6650
 6008TIP3   OH239514   6.499   6.622  13.185  0.2018 -0.0173 -0.0683
 6008TIP3    H139515   6.410   6.648  13.163  0.0075 -0.6564 -0.0402
 6008TIP3    H239516   6.531   6.691  13.243  0.1552  0.8421 -1.0548
 6009TIP3   OH239517   6.287   4.514   0.680 -0.0296  0.1037 -0.3922
 6009TIP3    H139518   6.303   4.429   0.720  0.8581  0.3590 -0.1999
 6009TIP3    H239519   6.218   4.498   0.616 -0.4577 -0.5900  0.2370
 6010TIP3   OH239520   3.609   2.531   0.591  0.2797 -0.4640 -0.8635
 6010TIP3    H139521   3.603   2.452   0.537  0.9269 -0.4736 -0.9268
 6010TIP3    H239522   3.547   2.516   0.662 -0.4695 -0.5152 -1.5256
 6011TIP3   OH239523   5.617   4.891   3.576  0.0036  0.4896 -0.1550
 6011TIP3    H139524   5.663   4.831   3.516 -0.1621 -0.0060  0.2117
 6011TIP3    H239525   5.642   4.978   3.546  0.9194  0.2266 -0.1665
 6012TIP3   OH239526   3.035   4.259  12.034  0.6589 -0.0993 -0.6917
 6012TIP3    H139527   3.116   4.309  12.028  0.9160 -0.3677  0.4496
 6012TIP3    H239528   3.039   4.217  12.120 -0.7475 -0.0164 -0.5811
 6013TIP3   OH239529   5.620   5.934  12.041 -0.1730 -0.1842 -0.3608
 6013TIP3    H139530   5.546   5.990  12.064  0.5294  1.0895 -1.1427
 6013TIP3    H239531   5.581   5.859  11.996 -1.1190 -0.3834  0.7592
 6014TIP3   OH239532   0.239   4.170  16.525 -0.3681  0.6399 -0.2142
 6014TIP3    H139533   0.169   4.212  16.575  0.9173  2.5548  0.0429
 6014TIP3    H239534   0.211   4.079  16.515 -2.7826  1.3251  0.0589
 6015TIP3   OH239535   0.404   4.623  15.085 -0.0589 -0.6158  0.3567
 6015TIP3    H139536   0.375   4.543  15.129 -0.3562 -0.1481  1.0207
 6015TIP3    H239537   0.492   4.639  15.120 -0.5731  0.1430  1.3133
 6016TIP3   OH239538   0.410   3.500  12.291 -0.2459 -0.1849  0.7510
 6016TIP3    H139539   0.459   3.475  12.369 -0.9178 -1.3448  0.8238
 6016TIP3    H239540   0.340   3.434  12.285 -1.5256  1.1844  0.4139
 6017TIP3   OH239541   1.077   4.181   6.342  0.5471  0.4339  0.7740
 6017TIP3    H139542   1.163   4.163   6.381  0.3237 -0.6695  0.7959
 6017TIP3    H239543   1.037   4.094   6.332  0.1712  0.7804 -0.9475
 6018TIP3   OH239544   4.092   0.785  12.367 -0.0731  0.0816  0.5550
 6018TIP3    H139545   4.085   0.837  12.287 -1.4935  1.0576  1.2736
 6018TIP3    H239546   4.170   0.732  12.355  0.0839  0.6761 -1.2095
 6019TIP3   OH239547   2.864   4.590  10.613 -0.1485 -0.3997  0.0874
 6019TIP3    H139548   2.897   4.595  10.523  0.3878  0.8921  0.3481
 6019TIP3    H239549   2.866   4.680  10.645  0.8825 -1.0153  1.8301
 6020TIP3   OH239550   3.568   4.335  14.932  0.2302 -0.5235 -0.2202
 6020TIP3    H139551   3.568   4.373  15.020  1.7551  0.3884 -0.5922
 6020TIP3    H239552   3.562   4.241  14.946 -0.2566 -0.3429  0.8295
 6021TIP3   OH239553   0.673   6.132   5.105 -0.1585 -0.0921 -0.4788
 6021TIP3    H139554   0.629   6.108   5.023  0.3354 -0.1485 -0.7335
 6021TIP3    H239555   0.734   6.201   5.079 -0.4220  0.3001 -0.0460
 6022TIP3   OH239556   0.998   5.783   1.548 -0.1938  0.1721 -0.3155
 6022TIP3    H139557   0.933   5.719   1.578 -0.1286  0.0221 -0.4856
 6022TIP3    H239558   0.969   5.805   1.459  0.2735 -0.2887 -0.5895
 6023TIP3   OH239559   4.709   6.724  14.934  0.1422  0.0527  0.1917
 6023TIP3    H139560   4.690   6.781  14.860  2.4657  0.7987  0.1197
 6023TIP3    H239561   4.638   6.740  14.996 -0.7975  0.8297 -1.0590
 6024TIP3   OH239562   5.935   4.498   3.586 -0.1790 -1.3305  0.1662
 6024TIP3    H139563   5.845   4.512   3.554 -0.3095  0.6869  1.3821
 6024TIP3    H239564   5.926   4.492   3.681  1.0254 -0.7369  0.3207
 6025TIP3   OH239565   2.738   2.672  15.842 -0.1744 -0.1957 -0.2445
 6025TIP3    H139566   2.709   2.757  15.810 -0.3031  0.0811  0.6251
 6025TIP3    H239567   2.657   2.625  15.863 -0.0363  0.1276  1.0101
 6026TIP3   OH239568   4.408   4.627  14.539  0.1612  0.3571  0.1456
 6026TIP3    H139569   4.407   4.636  14.634 -1.0972  1.1579  0.0715
 6026TIP3    H239570   4.443   4.711  14.507 -2.5187  1.3831 -0.2022
 6027TIP3   OH239571   4.474   4.281  15.239 -0.0002 -0.6299  0.0106
 6027TIP3    H139572   4.486   4.221  15.313 -0.9226 -0.6143  0.1758
 6027TIP3    H239573   4.506   4.365  15.271 -1.3323 -0.3920  0.7364
 6028TIP3   OH239574   5.529   3.494   4.743 -0.0186  0.1833 -0.3677
 6028TIP3    H139575   5.451   3.540   4.774  1.1916  1.4599  0.8603
 6028TIP3    H239576   5.581   3.561   4.699  1.3090 -0.1730  0.5999
 6029TIP3   OH239577   1.376   4.459  14.842  0.5589 -0.0501 -0.5577
 6029TIP3    H139578   1.339   4.521  14.780  1.5754  2.8253  1.6072
 6029TIP3    H239579   1.461   4.435  14.804  0.3309  0.1931 -1.2205
 6030TIP3   OH239580   2.983   2.226  17.270 -0.0162  0.3441  0.8099
 6030TIP3    H139581   3.011   2.224  17.361  1.0725 -1.6807  0.4558
 6030TIP3    H239582   3.025   2.304  17.234  0.1941  0.7104  1.8375
 6031TIP3   OH239583   1.182   4.264  12.795 -0.2598 -0.4668 -0.3295
 6031TIP3    H139584   1.255   4.254  12.733 -0.5909  1.1938 -1.0299
 6031TIP3    H239585   1.217   4.321  12.863 -1.7821  2.9597 -2.2617
 6032TIP3   OH239586   1.564   1.383  15.199 -0.0024  0.2147 -0.4862
 6032TIP3    H139587   1.517   1.305  15.168 -0.9434  1.7225 -3.0451
 6032TIP3    H239588   1.651   1.375  15.160  0.2756 -0.1257  0.2043
 6033TIP3   OH239589   6.580   6.553   0.786 -0.2492  0.3077 -0.0857
 6033TIP3    H139590   6.564   6.466   0.821  0.5720  0.5756  0.9910
 6033TIP3    H239591   6.557   6.612   0.857 -0.4851  0.9525 -0.6934
 6034TIP3   OH239592   5.786   0.334   3.702 -0.1801  0.0713 -0.0712
 6034TIP3    H139593   5.750   0.298   3.621  0.8117 -0.8424 -0.1269
 6034TIP3    H239594   5.772   0.265   3.768 -1.0168  0.8222  0.5386
 6035TIP3   OH239595   6.342   6.168   2.124  0.1172 -0.4874  0.9387
 6035TIP3    H139596   6.372   6.138   2.038 -2.2254 -1.6960  0.5213
 6035TIP3    H239597   6.423   6.187   2.172  1.4713  2.1212 -2.1651
 6036TIP3   OH239598   5.967   0.519   5.122 -0.0620 -0.0619  0.0592
 6036TIP3    H139599   6.025   0.564   5.184 -0.4881 -0.0502  0.4554
 6036TIP3    H239600   6.005   0.535   5.036  1.1986 -1.0495  0.4115
 6037TIP3   OH239601   2.040   2.385   1.571 -0.3296 -0.2155 -0.1877
 6037TIP3    H139602   1.986   2.405   1.494  0.1860 -0.7901 -0.6992
 6037TIP3    H239603   2.006   2.301   1.603 -0.5859  0.0528  0.2548
 6038TIP3   OH239604   4.436   0.070   4.772 -0.9574  0.2557 -0.2949
 6038TIP3    H139605   4.477  -0.014   4.795  2.2221  1.4809 -1.2001
 6038TIP3    H239606   4.420   0.112   4.856  1.0341  0.3340  0.0848
 6039TIP3   OH239607   2.314   1.234   5.585 -0.2636 -0.1665 -1.0357
 6039TIP3    H139608   2.224   1.203   5.600  0.8779 -2.8281  0.7374
 6039TIP3    H239609   2.327   1.302   5.651 -1.3702  1.1629 -2.1481
 6040TIP3   OH239610   2.806   1.789  16.943 -0.5669  0.2756 -0.2069
 6040TIP3    H139611   2.849   1.869  16.973  0.0243 -0.2197  0.2977
 6040TIP3    H239612   2.753   1.816  16.869  0.9867  0.8265 -1.1385
 6041TIP3   OH239613   4.452   4.868  15.661 -0.2483  0.1082 -0.6275
 6041TIP3    H139614   4.406   4.826  15.733  1.1093 -1.3844 -0.6015
 6041TIP3    H239615   4.544   4.848  15.676  0.4857  3.1677 -0.5755
 6042TIP3   OH239616   2.515   4.791  16.227 -0.1009  0.5054 -0.2767
 6042TIP3    H139617   2.478   4.797  16.315 -0.7262  1.1281 -0.5818
 6042TIP3    H239618   2.498   4.876  16.187  1.9232  0.9257 -0.3284
 6043TIP3   OH239619   2.915   4.441  15.109  0.4074  0.0067 -0.3226
 6043TIP3    H139620   2.881   4.530  15.099  1.3264  0.3261 -0.6477
 6043TIP3    H239621   2.871   4.391  15.040  0.0322  0.2419 -0.2581
 6044TIP3   OH239622   3.044   0.353  13.857  0.3818 -0.0684  0.0866
 6044TIP3    H139623   3.074   0.444  13.868  0.5149  0.0197 -0.9388
 6044TIP3    H239624   3.124   0.301  13.862  0.2931 -0.1454  0.7797
 6045TIP3   OH239625   6.228   6.425   5.007  0.4096 -0.3830  0.1116
 6045TIP3    H139626   6.209   6.504   4.958 -0.9436 -1.2090 -0.7256
 6045TIP3    H239627   6.290   6.376   4.952  2.2689  0.6741  1.2226
 6046TIP3   OH239628   2.688   3.767  11.151  0.3286  0.0145  0.8317
 6046TIP3    H139629   2.691   3.674  11.127 -0.0734 -0.5957  3.0924
 6046TIP3    H239630   2.770   3.802  11.117  0.4539 -1.1312 -0.1217
 6047TIP3   OH239631   4.655   4.880   5.844  0.2371 -0.5331  0.3043
 6047TIP3    H139632   4.564   4.878   5.816 -0.0992 -0.3799  1.3582
 6047TIP3    H239633   4.700   4.934   5.779 -0.7088  0.6206  0.5946
 6048TIP3   OH239634   2.003   0.549  13.705  0.1250  0.5332  0.2004
 6048TIP3    H139635   2.091   0.518  13.727  0.8747  1.9293 -0.7330
 6048TIP3    H239636   1.976   0.599  13.782 -0.3325 -0.8382  0.9492
 6049TIP3   OH239637   5.339   6.575  16.821 -0.1771  0.3333  0.5476
 6049TIP3    H139638   5.327   6.480  16.816  0.8670  0.1197  1.7900
 6049TIP3    H239639   5.349   6.593  16.915  0.9853  1.4956  0.2134
 6050TIP3   OH239640   3.347   1.575  14.951 -0.5419 -1.0309 -0.0801
 6050TIP3    H139641   3.353   1.661  14.993  0.5734 -1.0057 -0.2763
 6050TIP3    H239642   3.350   1.512  15.023  1.2238 -0.9834 -0.0879
 6051TIP3   OH239643   5.436   1.485   2.033  0.5392  0.0492  0.1551
 6051TIP3    H139644   5.350   1.483   2.076  0.7938 -1.7904  0.6030
 6051TIP3    H239645   5.442   1.573   1.996 -0.7002  0.8803  1.8505
 6052TIP3   OH239646   6.086   0.660  11.887  0.2241 -0.1759  0.2659
 6052TIP3    H139647   6.035   0.723  11.836 -0.0436 -0.2185  0.4802
 6052TIP3    H239648   6.135   0.610  11.821  1.2926  0.9883  0.1654
 6053TIP3   OH239649   6.611   3.980   3.405 -0.2708 -0.0411 -0.0846
 6053TIP3    H139650   6.682   4.035   3.372 -2.0960  1.7367 -1.1991
 6053TIP3    H239651   6.553   4.041   3.450 -0.7909 -1.5646  1.3609
 6054TIP3   OH239652   3.735   2.852   4.689  0.0900 -0.6758  0.6398
 6054TIP3    H139653   3.719   2.759   4.703 -2.0486 -0.6113 -1.1239
 6054TIP3    H239654   3.666   2.880   4.629  0.8184  2.0107  0.9732
 6055TIP3   OH239655   0.110   4.550  15.036  0.3003 -0.3378 -0.2297
 6055TIP3    H139656   0.085   4.531  15.126  1.4465 -3.0247 -0.4297
 6055TIP3    H239657   0.203   4.572  15.041  0.3032 -0.2246 -0.7097
 6056TIP3   OH239658   4.631   4.119   5.145  0.7830  0.0782 -0.2060
 6056TIP3    H139659   4.619   4.054   5.214 -0.2147  0.6853  0.2078
 6056TIP3    H239660   4.718   4.101   5.109  1.4302 -0.0820  1.3949
 6057TIP3   OH239661   3.408   1.745   1.318 -0.4328  0.0505  0.0685
 6057TIP3    H139662   3.500   1.726   1.338 -0.7730 -0.2233  1.3816
 6057TIP3    H239663   3.359   1.712   1.393 -1.4514  1.8191  0.2234
 6058TIP3   OH239664   0.509   0.609  10.744  0.0658 -0.9769  0.1217
 6058TIP3    H139665   0.518   0.519  10.776  0.3709 -0.5936  1.1540
 6058TIP3    H239666   0.558   0.661  10.807  0.8730 -0.2117 -1.1246
 6059TIP3   OH239667   6.423   6.659  11.481 -0.1014  0.3318 -0.1074
 6059TIP3    H139668   6.512   6.678  11.451  0.0221 -0.4037 -0.2032
 6059TIP3    H239669   6.434   6.590  11.546 -0.7006 -0.4669 -0.8484
 6060TIP3   OH239670   1.237   1.860   5.943 -0.0042  0.2563 -0.1746
 6060TIP3    H139671   1.281   1.780   5.972  0.2793  0.4725 -0.0060
 6060TIP3    H239672   1.306   1.911   5.901 -0.3011  0.1744 -0.7586
 6061TIP3   OH239673   0.642   5.212   1.093  0.4015  0.2478  0.7165
 6061TIP3    H139674   0.605   5.286   1.044  0.1171 -0.4013 -0.0589
 6061TIP3    H239675   0.567   5.173   1.138  0.2888 -0.5118 -0.1209
 6062TIP3   OH239676   3.965   0.292  13.533  0.4921  0.1362  0.5454
 6062TIP3    H139677   3.903   0.291  13.606  1.6614 -0.3773  1.5589
 6062TIP3    H239678   3.979   0.384  13.514  0.2826  0.2784  1.0711
 6063TIP3   OH239679   2.885   1.208  12.094  0.0618  0.1501 -0.3939
 6063TIP3    H139680   2.977   1.184  12.086 -0.6687 -2.7499 -0.8418
 6063TIP3    H239681   2.876   1.242  12.182  1.7655  1.5042 -0.7175
 6064TIP3   OH239682   0.187   6.800   0.615 -0.1127  0.1636 -0.0917
 6064TIP3    H139683   0.164   6.891   0.637 -0.7981 -0.2635  0.9929
 6064TIP3    H239684   0.134   6.747   0.675  2.3822 -0.8972  1.2462
 6065TIP3   OH239685   5.263   5.339  12.261  0.4668 -0.5309 -0.2879
 6065TIP3    H139686   5.169   5.328  12.272  0.3316 -0.1836 -1.0781
 6065TIP3    H239687   5.293   5.258  12.220  0.4207 -0.4060 -0.5677
 6066TIP3   OH239688   2.884   4.988  12.102 -0.0836 -0.2431 -0.2749
 6066TIP3    H139689   2.899   5.005  12.195  1.1144 -1.6811 -0.1853
 6066TIP3    H239690   2.799   5.028  12.084 -1.0666 -1.2979  1.8359
 6067TIP3   OH239691   5.565   6.068   4.274  0.5471 -0.5934  0.4405
 6067TIP3    H139692   5.526   6.074   4.187  1.8396 -1.9259 -0.2550
 6067TIP3    H239693   5.495   6.033   4.329 -0.1380 -0.1845 -0.1558
 6068TIP3   OH239694   3.002   3.787   0.371  0.1087  0.1217 -0.4822
 6068TIP3    H139695   3.036   3.698   0.363  0.8895  0.2487  1.2949
 6068TIP3    H239696   3.053   3.838   0.307 -0.1621 -0.6329 -1.3125
 6069TIP3   OH239697   2.626   4.807   5.545  0.5078  0.2675 -0.0948
 6069TIP3    H139698   2.686   4.814   5.620 -0.6142  0.9794  0.7526
 6069TIP3    H239699   2.551   4.759   5.580 -1.4871  3.4618  0.1867
 6070TIP3   OH239700   4.193   4.776   3.471 -0.5072 -0.2699 -0.2391
 6070TIP3    H139701   4.263   4.798   3.532 -0.4371 -0.0366 -0.4014
 6070TIP3    H239702   4.237   4.731   3.399 -0.5513 -0.3075 -0.2423
 6071TIP3   OH239703   0.120   2.856   1.573 -0.6055 -0.4661  0.0510
 6071TIP3    H139704   0.059   2.885   1.640 -0.6831  0.6600 -0.4965
 6071TIP3    H239705   0.071   2.792   1.521 -2.3080  2.5275 -2.1582
 6072TIP3   OH239706   2.677   5.898  11.961 -0.1483  0.1955  0.1832
 6072TIP3    H139707   2.768   5.874  11.945  0.4815  2.3063  0.4504
 6072TIP3    H239708   2.641   5.916  11.874  0.4525  1.9281  0.2766
 6073TIP3   OH239709   3.744   2.674   0.026  0.1447  0.3329  0.0309
 6073TIP3    H139710   3.686   2.634  -0.039  0.6200 -0.3793  0.0366
 6073TIP3    H239711   3.791   2.742  -0.023 -1.8109  1.9638  0.3980
 6074TIP3   OH239712   0.129   0.289  14.819 -0.4952 -0.5424 -0.1013
 6074TIP3    H139713   0.077   0.366  14.842  1.6977  1.4360 -1.4906
 6074TIP3    H239714   0.144   0.244  14.901 -0.1902  1.5977  1.0555
 6075TIP3   OH239715   4.977   1.366  14.276 -0.4130  0.5273  0.1625
 6075TIP3    H139716   5.068   1.396  14.268 -0.0669  0.3691  2.8951
 6075TIP3    H239717   4.955   1.333  14.189  1.8983  1.2436 -0.7473
 6076TIP3   OH239718   1.182   1.230  13.709 -0.1768  0.1402 -1.1400
 6076TIP3    H139719   1.226   1.190  13.634  1.4784 -0.4492  0.0924
 6076TIP3    H239720   1.254   1.265  13.762 -1.2846  0.2576  0.3174
 6077TIP3   OH239721   6.594   0.529   2.707 -0.3577  0.0247  0.6092
 6077TIP3    H139722   6.651   0.476   2.764 -1.0706 -0.9789  0.4124
 6077TIP3    H239723   6.517   0.474   2.694 -0.4669  0.5073 -0.8367
 6078TIP3   OH239724   3.534   5.301  15.519 -0.5374  0.9645  0.4296
 6078TIP3    H139725   3.462   5.316  15.457  0.4147  1.3031 -0.6177
 6078TIP3    H239726   3.517   5.362  15.590 -2.2765 -0.2226  1.0705
 6079TIP3   OH239727   3.846   2.130  11.904  0.4734  0.4577  0.3521
 6079TIP3    H139728   3.857   2.044  11.865 -2.2405  0.8746 -1.4761
 6079TIP3    H239729   3.784   2.117  11.975  1.9162  0.5098  1.6442
 6080TIP3   OH239730   2.479   2.523  11.652 -0.0226  0.3905 -0.2179
 6080TIP3    H139731   2.514   2.611  11.666  0.1287  0.3106 -0.0939
 6080TIP3    H239732   2.523   2.469  11.718 -1.9123  0.6755  1.2986
 6081TIP3   OH239733   0.936   3.346   5.360  0.2305  0.3854  0.1001
 6081TIP3    H139734   0.972   3.307   5.280  0.4653 -1.1058  0.9153
 6081TIP3    H239735   0.845   3.367   5.337  0.6424  1.1065 -0.9303
 6082TIP3   OH239736   1.199   5.136  16.782  0.2032 -0.0041  0.3268
 6082TIP3    H139737   1.194   5.061  16.723 -0.3775  0.1374  0.1882
 6082TIP3    H239738   1.147   5.110  16.858 -0.0383  0.2643  0.2604
 6083TIP3   OH239739   5.385   6.020   3.069 -0.0066  0.4987  0.3424
 6083TIP3    H139740   5.449   5.955   3.040  0.8425  1.2431  0.5301
 6083TIP3    H239741   5.418   6.103   3.037 -1.0056  0.8681  0.2471
 6084TIP3   OH239742   1.738   6.249  11.314 -0.1850  0.1058 -0.0588
 6084TIP3    H139743   1.665   6.210  11.362 -0.0930  0.2609  0.2110
 6084TIP3    H239744   1.726   6.343  11.327  0.0576  0.1307 -0.0200
 6085TIP3   OH239745   6.778   4.679  16.997 -0.0272  0.0518 -0.3731
 6085TIP3    H139746   6.850   4.741  17.006  0.8606 -1.3223  2.4668
 6085TIP3    H239747   6.754   4.656  17.087 -2.1253 -1.6751 -1.3193
 6086TIP3   OH239748   6.303   5.934  17.062  0.0829  0.0584  0.5725
 6086TIP3    H139749   6.334   5.921  16.972 -0.4335 -0.0016  0.4024
 6086TIP3    H239750   6.349   6.013  17.091 -0.7106  0.8135 -0.1892
 6087TIP3   OH239751   2.075   6.105  13.342  0.0914  0.1150  0.8290
 6087TIP3    H139752   2.010   6.064  13.286 -0.0882  1.3858  0.0837
 6087TIP3    H239753   2.029   6.177  13.385  0.8072  0.5498  0.8846
 6088TIP3   OH239754   5.988   1.702   4.638 -0.0711  0.1200  0.2773
 6088TIP3    H139755   6.049   1.774   4.657  0.1246  0.4538 -1.4733
 6088TIP3    H239756   5.935   1.694   4.717  2.7063 -0.6501  2.1432
 6089TIP3   OH239757   4.582   6.367  15.874 -0.6908 -0.3428  0.2845
 6089TIP3    H139758   4.641   6.314  15.821  0.3127  0.5499  0.4634
 6089TIP3    H239759   4.563   6.313  15.951 -0.6541 -0.9111 -0.1102
 6090TIP3   OH239760   0.628   4.486   3.929 -0.6215  0.8893  0.0653
 6090TIP3    H139761   0.625   4.419   3.860 -0.3736  1.2012 -0.2495
 6090TIP3    H239762   0.538   4.494   3.958 -0.8342  1.1948 -0.6519
 6091TIP3   OH239763   0.791   5.373  13.912 -0.0668  0.0242  0.1164
 6091TIP3    H139764   0.801   5.321  13.993  0.5101 -1.2584 -0.7555
 6091TIP3    H239765   0.823   5.315  13.843  0.0167  1.3458 -0.9635
 6092TIP3   OH239766   4.058   4.516   1.974 -0.1016  0.3053  0.3086
 6092TIP3    H139767   4.075   4.432   2.015 -2.0112 -1.4074 -2.2425
 6092TIP3    H239768   4.013   4.568   2.041 -0.1379 -1.2071  1.4609
 6093TIP3   OH239769   0.913   0.254   2.599  0.4523 -0.5411 -0.7016
 6093TIP3    H139770   0.901   0.266   2.505  0.8577  0.6909 -0.6105
 6093TIP3    H239771   0.995   0.206   2.607  1.1494  0.6062 -0.9275
 6094TIP3   OH239772   0.320   2.078  14.528  0.7688  0.0827 -0.1194
 6094TIP3    H139773   0.278   2.118  14.451 -0.6527  0.5557  0.8641
 6094TIP3    H239774   0.264   2.105  14.601  2.1124 -0.3458  1.0808
 6095TIP3   OH239775   5.440   2.764   2.494  0.0345  0.2003  0.2633
 6095TIP3    H139776   5.372   2.799   2.437  0.0813  1.3832  0.9273
 6095TIP3    H239777   5.415   2.791   2.582  0.7961 -0.2613  0.6277
 6096TIP3   OH239778   0.101   1.134  15.680 -0.0764  0.6526  0.4316
 6096TIP3    H139779   0.162   1.068  15.648 -0.1646  0.4759  0.6362
 6096TIP3    H239780   0.015   1.099  15.659 -0.1670  0.1375  1.6586
 6097TIP3   OH239781   3.113   2.649  12.181  0.2291  0.4592  0.0113
 6097TIP3    H139782   3.196   2.616  12.215  0.9884  1.0802 -1.1917
 6097TIP3    H239783   3.119   2.636  12.086 -1.2231  0.1282 -0.0517
 6098TIP3   OH239784   5.950   4.782  13.971  1.0213  0.3293  0.2502
 6098TIP3    H139785   5.887   4.831  14.023  0.6759  0.0966  0.0547
 6098TIP3    H239786   6.028   4.776  14.026  1.1876  1.3755  0.1583
 6099TIP3   OH239787   2.101   3.009   5.108  0.8278  0.9656  0.0460
 6099TIP3    H139788   2.025   2.954   5.130  1.0578  1.0915  1.1656
 6099TIP3    H239789   2.064   3.095   5.089  0.7620  1.2351  1.3756
 6100TIP3   OH239790   1.660   0.442   0.112 -0.0783  0.3169  0.5712
 6100TIP3    H139791   1.716   0.444   0.034 -1.8582 -0.0122 -0.7545
 6100TIP3    H239792   1.615   0.357   0.107 -1.3569  0.9465  1.1068
 6101TIP3   OH239793   0.721   0.103  12.245 -0.4607  0.0353  0.3009
 6101TIP3    H139794   0.703   0.133  12.334 -0.2385 -0.5315  0.5400
 6101TIP3    H239795   0.652   0.039  12.227 -0.5881  0.2530  0.0113
 6102TIP3   OH239796   2.906   3.389  15.552  0.4602 -0.0977 -0.2052
 6102TIP3    H139797   2.896   3.482  15.533 -0.1430  0.2699  1.7508
 6102TIP3    H239798   2.838   3.371  15.618 -0.7560 -2.3733 -2.0164
 6103TIP3   OH239799   2.080   5.541   1.328  1.0917  0.0184 -0.6640
 6103TIP3    H139800   2.140   5.551   1.403  0.3083 -0.8374  0.0893
 6103TIP3    H239801   2.131   5.496   1.262  0.4559 -3.3071  1.0268
 6104TIP3   OH239802   2.014   0.829   1.411  0.4868  0.1388 -0.1690
 6104TIP3    H139803   2.021   0.742   1.451 -0.8478  0.8288  1.6189
 6104TIP3    H239804   2.088   0.833   1.351  1.9100 -1.3793  1.4004
 6105TIP3   OH239805   5.662   3.168   3.507  0.4912 -0.0576  0.2352
 6105TIP3    H139806   5.686   3.125   3.589 -0.6424 -0.4158  0.3859
 6105TIP3    H239807   5.584   3.220   3.528  1.6294  1.8116 -0.0236
 6106TIP3   OH239808   2.707   5.791   3.270  0.0054  0.4256 -0.3867
 6106TIP3    H139809   2.677   5.707   3.303  0.5309  0.5061  0.3136
 6106TIP3    H239810   2.764   5.770   3.197 -2.1802  0.2897 -2.0943
 6107TIP3   OH239811   1.879   1.908   2.928 -0.4319 -0.2104 -0.2220
 6107TIP3    H139812   1.926   1.881   2.850  0.3110  0.8614 -0.1538
 6107TIP3    H239813   1.938   1.969   2.973 -0.4316 -1.5533  1.6907
 6108TIP3   OH239814   3.100   0.682  12.162 -0.4278 -0.1176  0.1280
 6108TIP3    H139815   3.012   0.657  12.134 -0.1142 -1.7357  0.5370
 6108TIP3    H239816   3.146   0.599  12.175  1.1324  0.7052  0.0258
 6109TIP3   OH239817   5.075   5.794  16.660 -0.5223  0.4850 -0.1599
 6109TIP3    H139818   5.034   5.739  16.593 -1.6621  0.9086  0.1755
 6109TIP3    H239819   5.018   5.785  16.736  0.5359  0.3458  0.6254
 6110TIP3   OH239820   3.760   3.454   4.320  0.2595 -0.4489 -0.1049
 6110TIP3    H139821   3.825   3.383   4.319 -0.0925 -0.7715 -1.4907
 6110TIP3    H239822   3.773   3.497   4.405  2.8036 -0.0209 -0.6711
 6111TIP3   OH239823   0.571   3.377   4.903  0.2739 -0.0277 -0.4403
 6111TIP3    H139824   0.525   3.452   4.938 -1.0087 -0.9804 -0.0600
 6111TIP3    H239825   0.654   3.412   4.871  0.7448  1.1155  1.9978
 6112TIP3   OH239826   5.448   6.519  15.822  0.1067  0.2684  0.4855
 6112TIP3    H139827   5.526   6.480  15.782 -0.2296 -0.6205  0.6868
 6112TIP3    H239828   5.375   6.488  15.768 -0.1968  0.3462  0.8471
 6113TIP3   OH239829   6.161   1.801   3.324 -0.1068  0.1263 -0.6871
 6113TIP3    H139830   6.114   1.824   3.244  0.4693 -1.6583 -1.5581
 6113TIP3    H239831   6.092   1.772   3.384 -0.4375  0.5438 -0.8570
 6114TIP3   OH239832   5.015   5.901  14.013  0.1400  0.6147 -0.1526
 6114TIP3    H139833   4.987   5.853  13.936 -0.3285 -0.2861  0.5702
 6114TIP3    H239834   5.105   5.871  14.029 -0.6979 -1.2522  1.2331
 6115TIP3   OH239835   1.452   4.356   1.070  0.5084  0.3866  0.1858
 6115TIP3    H139836   1.425   4.273   1.031  2.0967 -0.5320  1.0100
 6115TIP3    H239837   1.387   4.419   1.040  0.2770 -0.8111 -1.8962
 6116TIP3   OH239838   6.374   0.123  13.331 -0.3363 -0.0988 -0.1774
 6116TIP3    H139839   6.429   0.154  13.403 -0.2855 -0.9917  0.1824
 6116TIP3    H239840   6.289   0.106  13.371  0.1196 -2.0789  0.0322
 6117TIP3   OH239841   6.523   5.365   5.807  0.2878  0.0928  0.3076
 6117TIP3    H139842   6.511   5.458   5.829  2.7728  0.3279  0.7548
 6117TIP3    H239843   6.434   5.332   5.798 -0.6518  2.5429  0.0636
 6118TIP3   OH239844   5.745   2.636  13.066  0.1131 -0.0285 -0.2045
 6118TIP3    H139845   5.716   2.690  12.992  0.8023  1.8512  0.8847
 6118TIP3    H239846   5.808   2.690  13.113  0.3335 -1.5361  1.2915
 6119TIP3   OH239847   5.975   6.565   5.725  0.2635  0.3755 -0.0933
 6119TIP3    H139848   6.039   6.632   5.750  0.4064 -0.0757  0.7610
 6119TIP3    H239849   5.939   6.534   5.809  0.7546 -1.1642 -0.4459
 6120TIP3   OH239850   2.243   1.245   0.607 -0.0405 -0.2844  0.3360
 6120TIP3    H139851   2.209   1.287   0.528 -0.3940 -1.0936  0.0522
 6120TIP3    H239852   2.269   1.317   0.663 -4.3478  0.5050  1.5228
 6121TIP3   OH239853   0.646   3.988  13.526  0.8051 -0.7547  0.2045
 6121TIP3    H139854   0.572   3.930  13.542 -1.3313  1.8732  0.3071
 6121TIP3    H239855   0.678   3.962  13.439 -0.4194 -1.7357  0.0268
 6122TIP3   OH239856   5.964   2.510   4.669 -0.1568 -0.0538  0.3002
 6122TIP3    H139857   5.907   2.524   4.593 -0.2028 -1.9475 -0.0182
 6122TIP3    H239858   5.952   2.589   4.722 -2.4010 -0.0324 -0.2023
 6123TIP3   OH239859   0.527   6.311   6.097  0.1532 -0.4196  0.2746
 6123TIP3    H139860   0.546   6.301   6.190 -0.0196  0.8259  0.4597
 6123TIP3    H239861   0.483   6.396   6.091 -0.2333 -0.6977 -0.8827
 6124TIP3   OH239862   2.789   4.545  12.604 -0.4724 -0.5682  0.0899
 6124TIP3    H139863   2.844   4.618  12.575 -2.0409  0.4705 -0.3109
 6124TIP3    H239864   2.833   4.513  12.683 -1.4263  2.8442  2.1168
 6125TIP3   OH239865   4.455   5.253   6.903  0.1570 -0.1170 -0.3016
 6125TIP3    H139866   4.411   5.225   6.822  0.2747  0.7543 -0.6696
 6125TIP3    H239867   4.499   5.174   6.934 -0.1238 -0.5320 -0.9382
 6126TIP3   OH239868   5.466   4.693   3.238 -0.1792  0.4391  0.1355
 6126TIP3    H139869   5.370   4.698   3.229 -0.2924  1.4439  1.7993
 6126TIP3    H239870   5.489   4.612   3.192 -2.2998 -2.0418  3.2111
 6127TIP3   OH239871   6.363   5.940   3.216 -0.4485 -0.6396 -0.0478
 6127TIP3    H139872   6.273   5.949   3.183 -0.5328  0.3269  0.4375
 6127TIP3    H239873   6.408   6.019   3.185 -0.1873 -0.3433  1.0584
 6128TIP3   OH239874   5.696   3.269   0.762 -0.4344  0.3024 -0.0014
 6128TIP3    H139875   5.709   3.294   0.670  1.1712 -0.0578  0.1157
 6128TIP3    H239876   5.650   3.343   0.800  0.5296  1.2632 -0.6655
 6129TIP3   OH239877   4.154   2.789  12.251 -0.1631  0.0130  0.3582
 6129TIP3    H139878   4.069   2.831  12.258 -0.9030 -0.8962 -2.2542
 6129TIP3    H239879   4.211   2.856  12.214 -0.4577 -0.2011 -0.4988
 6130TIP3   OH239880   0.135   2.619   2.722  0.0218  0.1973  0.1185
 6130TIP3    H139881   0.063   2.608   2.661 -0.2278  1.7400  0.0989
 6130TIP3    H239882   0.094   2.649   2.803  0.5678  0.3795  0.3343
 6131TIP3   OH239883   6.028   1.920   4.065  0.0483  0.5824 -0.2581
 6131TIP3    H139884   6.087   1.866   4.012  1.7380  1.5420  0.5866
 6131TIP3    H239885   6.027   2.005   4.021 -0.5397  0.6304 -0.1477
 6132TIP3   OH239886   0.524   6.812  16.123  0.1766 -0.2376 -0.7632
 6132TIP3    H139887   0.520   6.853  16.036 -1.1678 -0.3052 -0.7430
 6132TIP3    H239888   0.564   6.879  16.179  0.1500  0.1732 -1.2287
 6133TIP3   OH239889   2.776   0.181   4.082 -0.2287 -0.0654 -0.4054
 6133TIP3    H139890   2.819   0.239   4.019  0.4646  1.8698  1.7646
 6133TIP3    H239891   2.845   0.121   4.111  0.6151  1.8010  1.6348
 6134TIP3   OH239892   0.638   5.798   3.664  0.8496 -0.3975  0.5120
 6134TIP3    H139893   0.683   5.779   3.582  0.5246 -2.7039  0.8407
 6134TIP3    H239894   0.545   5.795   3.641  0.7847  0.6012  0.6260
 6135TIP3   OH239895   5.777   1.739   2.493 -0.5791  0.1980  0.6322
 6135TIP3    H139896   5.755   1.827   2.460 -1.3113  0.3263  1.4404
 6135TIP3    H239897   5.696   1.689   2.479 -0.3560 -0.1849  0.7341
 6136TIP3   OH239898   5.550   4.843  14.233  0.0135 -0.3000 -0.6743
 6136TIP3    H139899   5.639   4.807  14.233  0.0224 -0.2776 -0.6325
 6136TIP3    H239900   5.536   4.872  14.323  1.0645  2.4514 -1.3531
 6137TIP3   OH239901   2.116   3.728  14.570  0.3907  0.2145 -0.5766
 6137TIP3    H139902   2.129   3.802  14.629  1.6958  0.5995 -1.3186
 6137TIP3    H239903   2.133   3.651  14.624  1.2079  0.5480 -0.3509
 6138TIP3   OH239904   4.147   2.499   2.085  0.1949 -0.0913 -0.2292
 6138TIP3    H139905   4.209   2.566   2.056 -1.6424  1.1814 -1.3330
 6138TIP3    H239906   4.128   2.520   2.176  1.5715 -0.6333  0.1820
 6139TIP3   OH239907   0.800   6.100  14.399 -0.1850 -0.5800 -0.0566
 6139TIP3    H139908   0.741   6.038  14.443 -1.0576  0.3698  0.1134
 6139TIP3    H239909   0.851   6.045  14.339  1.1413 -1.9338  2.2255
 6140TIP3   OH239910   3.585   3.806  13.324  0.6367  0.1991 -0.0173
 6140TIP3    H139911   3.620   3.824  13.237  0.4717 -0.7280 -0.2759
 6140TIP3    H239912   3.595   3.889  13.371 -1.7924  1.5500 -1.7649
 6141TIP3   OH239913   1.720   1.749  11.015 -0.2299  0.7683 -0.6731
 6141TIP3    H139914   1.777   1.710  10.949  0.5611  0.3826  0.2222
 6141TIP3    H239915   1.777   1.809  11.063 -0.2608 -0.5025  1.0127
 6142TIP3   OH239916   4.634   4.567  12.292 -0.3630 -0.1308  0.2791
 6142TIP3    H139917   4.639   4.472  12.303 -2.2680 -0.2630  0.0901
 6142TIP3    H239918   4.627   4.600  12.382  1.2483 -0.0944  0.4025
 6143TIP3   OH239919   6.501   3.253   0.628  0.1421 -0.1460  0.0367
 6143TIP3    H139920   6.568   3.219   0.687  0.0266  0.2861  0.4227
 6143TIP3    H239921   6.548   3.310   0.568  0.1726 -0.1369  0.0696
 6144TIP3   OH239922   2.496   5.349   1.564 -0.1638  0.1835  0.2126
 6144TIP3    H139923   2.433   5.296   1.515 -2.2991  0.9431  2.0687
 6144TIP3    H239924   2.506   5.428   1.511  0.4369 -0.6084 -0.8700
 6145TIP3   OH239925   2.800   5.546  13.200  0.4967 -0.0036  0.3538
 6145TIP3    H139926   2.831   5.457  13.185 -0.3958 -0.3775  0.7227
 6145TIP3    H239927   2.739   5.539  13.274  1.4791  1.1229  1.3142
 6146TIP3   OH239928   1.210   5.412  12.853  0.1249  0.0967 -0.0997
 6146TIP3    H139929   1.237   5.330  12.813  1.8531  0.9481 -0.7430
 6146TIP3    H239930   1.288   5.467  12.850 -0.8925  1.6286  0.6771
 6147TIP3   OH239931   4.339   4.266  16.629 -0.3205  0.0223  0.6556
 6147TIP3    H139932   4.256   4.298  16.593 -0.1384 -1.2591 -0.9738
 6147TIP3    H239933   4.321   4.175  16.652  0.4194 -0.0267  1.0241
 6148TIP3   OH239934   1.421   1.164  13.228  0.7312  0.2474 -0.3680
 6148TIP3    H139935   1.374   1.190  13.148  0.4313  2.1483  0.4121
 6148TIP3    H239936   1.361   1.104  13.272 -0.3329  1.4304 -0.1645
 6149TIP3   OH239937   2.120   0.651  13.106  0.3458 -0.1236  0.2723
 6149TIP3    H139938   2.214   0.658  13.124  0.2608  0.7250  0.4102
 6149TIP3    H239939   2.089   0.741  13.108 -0.1527 -0.2427 -1.5692
 6150TIP3   OH239940   1.553   3.266  16.445 -0.3175  0.6787  0.1243
 6150TIP3    H139941   1.501   3.304  16.374 -1.2300 -0.7209  0.0196
 6150TIP3    H239942   1.516   3.305  16.525 -0.6857  0.6456 -0.0309
 6151TIP3   OH239943   2.314   0.166   1.502  0.0141  0.4363 -0.4941
 6151TIP3    H139944   2.387   0.181   1.442  0.7574  0.2063  0.3473
 6151TIP3    H239945   2.247   0.228   1.474  0.6515  0.8717 -1.0740
 6152TIP3   OH239946   6.762   4.713   5.035 -0.6826 -0.1776 -0.3777
 6152TIP3    H139947   6.694   4.754   5.088 -1.9600 -1.2037 -1.1987
 6152TIP3    H239948   6.786   4.780   4.971  1.0837  1.1802  1.6219
 6153TIP3   OH239949   4.023   6.369  15.178 -0.1965  0.4014 -0.2314
 6153TIP3    H139950   3.981   6.373  15.264  0.5723 -2.2126  0.3117
 6153TIP3    H239951   4.113   6.394  15.194  0.1153 -0.7496 -0.1281
 6154TIP3   OH239952   2.414   4.648  12.858 -0.5575 -0.2569 -0.6653
 6154TIP3    H139953   2.395   4.680  12.770  0.2116 -0.7153 -1.0037
 6154TIP3    H239954   2.356   4.572  12.869 -1.0936  0.1675 -0.5379
 6155TIP3   OH239955   3.992   2.184  10.935  0.4433 -0.4730 -0.2231
 6155TIP3    H139956   4.009   2.186  11.029  0.2122  1.6713 -0.2103
 6155TIP3    H239957   3.913   2.131  10.926  0.5479 -0.7948  0.7775
 6156TIP3   OH239958   4.007   3.159  11.297 -0.4700 -0.2857 -0.4975
 6156TIP3    H139959   4.083   3.155  11.356 -0.2504  2.4198 -0.5374
 6156TIP3    H239960   4.042   3.134  11.212  0.2118  0.1215 -0.3441
 6157TIP3   OH239961   1.273   5.087  13.448  0.3258  0.3731  0.4706
 6157TIP3    H139962   1.313   5.174  13.454 -0.5967  0.7305  1.4150
 6157TIP3    H239963   1.249   5.079  13.356 -1.9765  2.1932  0.8640
 6158TIP3   OH239964   6.511   5.827   1.308 -0.1410 -0.3938 -0.2561
 6158TIP3    H139965   6.567   5.838   1.385  1.5068 -0.1693 -1.4371
 6158TIP3    H239966   6.479   5.916   1.289  0.7956 -0.1577 -0.7840
 6159TIP3   OH239967   0.374   4.152   4.445 -0.1257  0.7969 -0.5562
 6159TIP3    H139968   0.344   4.065   4.471  0.5664  0.9851  0.9516
 6159TIP3    H239969   0.368   4.153   4.350 -1.7042 -0.3290 -0.4871
 6160TIP3   OH239970   4.713   0.816   2.280 -0.3777  0.0104  0.8672
 6160TIP3    H139971   4.758   0.871   2.345  0.1178  1.1174 -0.3825
 6160TIP3    H239972   4.631   0.862   2.263  0.4110  0.8228 -0.8063
 6161TIP3   OH239973   2.128   5.507  16.957 -0.5052  0.0294  0.0469
 6161TIP3    H139974   2.084   5.422  16.951  0.7879 -0.8875  3.0104
 6161TIP3    H239975   2.059   5.570  16.937 -1.6939 -1.6441 -1.3400
 6162TIP3   OH239976   5.071   6.718  12.708 -0.4993 -0.4406 -0.1678
 6162TIP3    H139977   5.027   6.635  12.726 -1.4586 -0.0309 -0.6071
 6162TIP3    H239978   5.137   6.696  12.642 -0.6436 -0.8775 -0.1681
 6163TIP3   OH239979   3.004   2.485   2.563  0.5681 -0.8770 -0.1872
 6163TIP3    H139980   2.967   2.482   2.651  0.0375 -0.4321 -0.3907
 6163TIP3    H239981   2.928   2.479   2.505  0.7966  0.1011 -0.6048
 6164TIP3   OH239982   6.098   0.167   3.811 -0.4530  0.0656 -0.3807
 6164TIP3    H139983   6.007   0.149   3.835 -0.4975  0.8641  0.0721
 6164TIP3    H239984   6.097   0.170   3.715 -0.3514 -2.7571 -0.5194
 6165TIP3   OH239985   6.055   5.196  13.996  0.1163 -0.1590  0.1041
 6165TIP3    H139986   6.099   5.274  13.962 -2.1045  1.0024 -0.1565
 6165TIP3    H239987   5.991   5.173  13.929 -1.2589 -0.4732  1.5041
 6166TIP3   OH239988   5.293   1.465   4.385  0.1522  0.0511 -0.4148
 6166TIP3    H139989   5.281   1.529   4.454  1.1332  0.0650 -0.2464
 6166TIP3    H239990   5.251   1.504   4.308 -0.2532  0.3812 -0.0261
 6167TIP3   OH239991   3.847   1.131  10.697 -0.3127  0.4464 -0.0623
 6167TIP3    H139992   3.787   1.185  10.647  0.7622  0.9706 -0.8093
 6167TIP3    H239993   3.829   1.153  10.789 -1.5231  0.2935 -0.2530
 6168TIP3   OH239994   5.996   0.559  16.665  0.9171  0.3799 -0.0524
 6168TIP3    H139995   5.977   0.597  16.751  0.1586  1.6231 -0.7684
 6168TIP3    H239996   5.957   0.471  16.669 -0.4705  1.0090  0.3140
 6169TIP3   OH239997   0.805   1.482   4.905 -0.5923  0.5088  0.7811
 6169TIP3    H139998   0.750   1.534   4.964 -0.2046 -0.2778  1.8442
 6169TIP3    H239999   0.879   1.453   4.959 -0.0143  0.1209 -0.1917
 6170TIP3   OH240000   5.780   0.738   3.865  0.1994  0.4907  0.3568
 6170TIP3    H140001   5.816   0.662   3.911 -0.3816  0.1757  0.2965
 6170TIP3    H240002   5.745   0.703   3.783 -0.3876  0.7694  0.4852
 6171TIP3   OH240003   4.397   6.800   5.403 -0.5160  0.2086 -0.5203
 6171TIP3    H140004   4.425   6.884   5.367  0.1410 -0.0640 -0.6520
 6171TIP3    H240005   4.331   6.768   5.342  0.2609 -0.0362 -1.2471
 6172TIP3   OH240006   2.848   1.687  10.061 -0.1372  0.1048 -0.5056
 6172TIP3    H140007   2.902   1.666  10.137  0.1067 -0.1770 -0.7588
 6172TIP3    H240008   2.772   1.628  10.069  1.1772 -1.8319 -1.9301
 6173TIP3   OH240009   6.122   3.030   5.034  0.1657  0.2095 -0.0340
 6173TIP3    H140010   6.075   3.111   5.014  0.5805  0.6594  0.7760
 6173TIP3    H240011   6.067   2.986   5.099  0.6969  0.6021  0.7026
 6174TIP3   OH240012   1.865   2.385  10.276 -0.5572  0.0868 -0.3226
 6174TIP3    H140013   1.850   2.293  10.297  1.7021  0.1453  1.7368
 6174TIP3    H240014   1.782   2.428  10.292 -1.2408 -1.3670  0.0650
 6175TIP3   OH240015   0.470   2.258  13.607  0.7322 -0.0305  0.4213
 6175TIP3    H140016   0.497   2.335  13.658  0.5775 -0.5332  1.2667
 6175TIP3    H240017   0.480   2.285  13.516  3.1538  0.1511  0.7018
 6176TIP3   OH240018   1.358   2.289   5.168 -0.1019 -0.0545  0.2481
 6176TIP3    H140019   1.431   2.247   5.213  0.5386 -0.7465 -1.3955
 6176TIP3    H240020   1.391   2.306   5.079 -1.3632  1.1859 -0.0002
 6177TIP3   OH240021   2.310   0.230  16.598 -1.0529 -0.1314  0.0448
 6177TIP3    H140022   2.260   0.218  16.518  0.5055 -0.0770 -0.9559
 6177TIP3    H240023   2.389   0.276  16.571  0.6191 -2.1887  1.1819
 6178TIP3   OH240024   3.808   4.005   4.106 -0.1346 -0.2442  0.2077
 6178TIP3    H140025   3.722   4.046   4.100 -0.0356 -0.0789 -0.0602
 6178TIP3    H240026   3.798   3.938   4.174  0.4181  2.0415  2.6498
 6179TIP3   OH240027   1.152   0.658   1.333  0.1944 -0.2115 -0.3768
 6179TIP3    H140028   1.222   0.662   1.397 -0.3802 -1.8978  0.3771
 6179TIP3    H240029   1.075   0.631   1.383 -0.2986 -1.3793 -1.7365
 6180TIP3   OH240030   0.767   1.327  11.537 -0.1518 -0.7083  0.1001
 6180TIP3    H140031   0.690   1.273  11.519 -0.2526 -0.6628  0.3874
 6180TIP3    H240032   0.737   1.392  11.600 -0.3479  0.4694 -1.1875
 6181TIP3   OH240033   4.994   6.090   2.901 -0.6077 -0.7900  0.8793
 6181TIP3    H140034   4.947   6.156   2.852  0.3816 -1.2244 -0.6845
 6181TIP3    H240035   4.965   6.006   2.864  1.9170 -1.0387 -0.6556
 6182TIP3   OH240036   5.578   1.968   0.804  0.2711 -0.7801 -0.8699
 6182TIP3    H140037   5.500   2.019   0.783  0.4547  0.0395  0.4111
 6182TIP3    H240038   5.651   2.026   0.782  0.5440 -1.6029 -2.2182
 6183TIP3   OH240039   3.283   6.377   1.303  0.0784 -0.0878  0.2581
 6183TIP3    H140040   3.334   6.297   1.315 -0.2544 -0.8615 -3.0379
 6183TIP3    H240041   3.329   6.424   1.233 -0.7116  1.7805  0.9633
 6184TIP3   OH240042   2.686   5.206   1.692  0.3360 -0.6213 -0.1989
 6184TIP3    H140043   2.626   5.261   1.641 -1.1533 -2.5674 -0.5863
 6184TIP3    H240044   2.635   5.178   1.768  1.5687 -0.2781  0.7739
 6185TIP3   OH240045   0.080   0.170   4.850 -0.7698  0.1087 -0.0799
 6185TIP3    H140046   0.134   0.092   4.840  1.3024  1.2824  1.5351
 6185TIP3    H240047   0.049   0.189   4.761 -0.7997 -2.1719 -0.5787
 6186TIP3   OH240048   4.203   0.263   5.339  0.7036  0.1147  0.0317
 6186TIP3    H140049   4.132   0.223   5.289 -0.2745  0.6776  0.9676
 6186TIP3    H240050   4.197   0.223   5.425  1.3525  0.3705  0.2001
 6187TIP3   OH240051   0.651   2.587   1.972 -0.1061 -0.1405  0.1923
 6187TIP3    H140052   0.732   2.620   2.011 -0.6095  1.3283 -0.0013
 6187TIP3    H240053   0.618   2.659   1.919 -1.6024 -0.6996  0.3387
 6188TIP3   OH240054   3.289   2.012  10.533 -0.2658 -0.2270 -0.3135
 6188TIP3    H140055   3.285   2.095  10.486 -0.8920 -0.3181 -0.4259
 6188TIP3    H240056   3.198   1.982  10.536 -0.1173 -0.6258  0.2268
 6189TIP3   OH240057   5.607   5.557  11.395  0.3409 -0.2077 -0.5857
 6189TIP3    H140058   5.694   5.591  11.415  1.2174 -2.7532  0.1065
 6189TIP3    H240059   5.622   5.469  11.362 -1.9592 -0.5347 -0.8593
 6190TIP3   OH240060   4.263   1.381  11.391 -0.2271 -0.0687  0.4407
 6190TIP3    H140061   4.341   1.367  11.444  0.9729 -0.6180 -1.3964
 6190TIP3    H240062   4.289   1.355  11.303 -2.7258 -0.9322 -0.0801
 6191TIP3   OH240063   6.197   3.933   0.234  0.1390  0.1543  0.1496
 6191TIP3    H140064   6.283   3.975   0.243 -0.5177  1.4858  0.4059
 6191TIP3    H240065   6.204   3.881   0.154  1.0843  0.4950  0.0001
 6192TIP3   OH240066   5.399   2.502   3.244  0.0886  0.1690 -0.2663
 6192TIP3    H140067   5.424   2.591   3.269  3.4823 -0.8876  0.4079
 6192TIP3    H240068   5.419   2.497   3.150  2.1969 -0.5226  0.1717
 6193TIP3   OH240069   3.665   5.230   4.460  0.2087  0.2575  0.3616
 6193TIP3    H140070   3.676   5.264   4.371 -0.8638 -0.5304 -0.0721
 6193TIP3    H240071   3.745   5.181   4.477  1.7391  2.8118  0.9348
 6194TIP3   OH240072   0.286   4.274  13.420 -0.3090  0.6435  0.4544
 6194TIP3    H140073   0.377   4.267  13.392  0.5109  0.8310  2.9685
 6194TIP3    H240074   0.251   4.185  13.410 -0.4824  0.9784 -2.4382
 6195TIP3   OH240075   4.117   0.850  13.086  0.3799 -0.1326 -0.4955
 6195TIP3    H140076   4.173   0.806  13.022  1.0543 -1.9918  1.3276
 6195TIP3    H240077   4.034   0.862  13.041  0.5459 -2.2796 -1.4090
 6196TIP3   OH240078   1.255   0.287   0.748 -0.3709  0.4409 -0.5074
 6196TIP3    H140079   1.224   0.205   0.786  0.6932 -0.0371 -0.6549
 6196TIP3    H240080   1.182   0.317   0.693 -0.6063 -0.6228 -0.7902
 6197TIP3   OH240081   3.631   6.359  15.884  0.0477  0.3973 -0.4018
 6197TIP3    H140082   3.718   6.386  15.912 -1.2957  3.6699  0.8044
 6197TIP3    H240083   3.579   6.357  15.964 -0.7333 -2.8785 -0.9034
 6198TIP3   OH240084   5.552   2.388   1.887  0.8317 -0.0334 -0.5113
 6198TIP3    H140085   5.638   2.360   1.919 -0.1826  0.8176  3.1094
 6198TIP3    H240086   5.495   2.312   1.902  0.5024  0.0998 -1.0696
 6199TIP3   OH240087   3.213   4.850   2.298  0.3542  0.0501  0.0735
 6199TIP3    H140088   3.228   4.811   2.212  0.6142 -1.4572  0.7785
 6199TIP3    H240089   3.156   4.925   2.281  2.7477  1.5145 -1.7703
 6200TIP3   OH240090   3.513   5.060   0.674  0.2996 -0.6824  0.5837
 6200TIP3    H140091   3.443   4.998   0.698  0.0510 -0.1388  1.2932
 6200TIP3    H240092   3.583   5.005   0.639 -0.4423 -1.2475 -0.0230
 6201TIP3   OH240093   0.382   0.328   4.135 -0.5399  0.1235 -0.4704
 6201TIP3    H140094   0.291   0.324   4.105 -0.1824  0.7360 -1.7025
 6201TIP3    H240095   0.399   0.422   4.147 -0.2475 -0.0288  0.3064
 6202TIP3   OH240096   3.882   1.809   1.158 -0.8354  0.2619  0.1520
 6202TIP3    H140097   3.895   1.877   1.225  0.6981  1.2610 -1.1081
 6202TIP3    H240098   3.821   1.848   1.095 -0.8881  0.0093  0.0452
 6203TIP3   OH240099   5.735   1.552  12.971  0.3195  0.4612 -0.0466
 6203TIP3    H140100   5.779   1.482  13.019  2.2921  1.7058  0.0148
 6203TIP3    H240101   5.735   1.626  13.032 -3.0062  0.1435  0.4219
 6204TIP3   OH240102   1.753   3.962  16.309 -0.1171 -0.1959  0.1754
 6204TIP3    H140103   1.724   3.988  16.396 -2.4692  0.2581 -0.7064
 6204TIP3    H240104   1.722   3.872  16.299  0.1703 -0.2584 -0.1799
 6205TIP3   OH240105   4.462   2.425  11.762  0.1738 -0.0788  0.0808
 6205TIP3    H140106   4.533   2.362  11.779 -1.1182 -1.9492 -1.2420
 6205TIP3    H240107   4.504   2.510  11.767  2.1960 -1.0861  0.9317
 6206TIP3   OH240108   5.197   2.327  14.191  0.6800  0.1660  0.3348
 6206TIP3    H140109   5.258   2.400  14.177  2.9117 -1.0296  3.2495
 6206TIP3    H240110   5.231   2.256  14.136  0.8230  0.1154  0.4858
 6207TIP3   OH240111   0.457   2.330   4.307  0.0467 -0.5987  0.5253
 6207TIP3    H140112   0.545   2.305   4.336 -0.3311 -1.5416  0.8869
 6207TIP3    H240113   0.468   2.354   4.215  0.3971 -2.4178  0.0714
 6208TIP3   OH240114   2.439   4.232  16.811 -0.3715 -0.3779 -0.2180
 6208TIP3    H140115   2.356   4.263  16.774  0.5459  0.8196 -1.2797
 6208TIP3    H240116   2.459   4.152  16.763 -1.1876 -0.9889  0.4344
 6209TIP3   OH240117   3.815   5.877   6.173  0.8074 -0.1267  0.2542
 6209TIP3    H140118   3.764   5.953   6.201  1.1772  0.6016 -1.0063
 6209TIP3    H240119   3.756   5.803   6.184 -0.3610  0.6440 -0.7201
 6210TIP3   OH240120   0.868   3.868   5.075  0.2192  0.2574  0.7510
 6210TIP3    H140121   0.852   3.961   5.095 -0.3839  0.8544 -2.2798
 6210TIP3    H240122   0.941   3.870   5.013 -0.2975 -1.2512  0.0853
 6211TIP3   OH240123   5.783   4.077   2.974 -0.4992 -0.4707  0.1034
 6211TIP3    H140124   5.697   4.088   2.933 -0.3139  0.3098 -0.0903
 6211TIP3    H240125   5.818   3.997   2.935 -0.4004  0.1634 -1.1391
 6212TIP3   OH240126   1.060   5.001  16.202  0.1215  0.0591 -0.0687
 6212TIP3    H140127   0.980   5.001  16.148  0.2420 -0.3646 -0.2447
 6212TIP3    H240128   1.131   4.998  16.138  0.2582 -0.9904  0.1319
 6213TIP3   OH240129   1.051   6.542  13.267 -0.6888  0.1690  0.9114
 6213TIP3    H140130   1.053   6.516  13.360  1.9278 -1.4755  0.4582
 6213TIP3    H240131   1.125   6.601  13.257 -0.4348 -0.3573 -0.3331
 6214TIP3   OH240132   3.325   6.592  12.285 -0.3228  0.2271  0.5167
 6214TIP3    H140133   3.308   6.596  12.379  0.7507 -1.1227  0.7892
 6214TIP3    H240134   3.411   6.633  12.274 -1.1631  1.8299 -0.0869
 6215TIP3   OH240135   0.805   4.759  13.335  0.1187  0.1537 -0.3391
 6215TIP3    H140136   0.822   4.853  13.336  0.1483  0.2384 -3.1455
 6215TIP3    H240137   0.709   4.752  13.332  0.1259  0.1274 -0.5649
 6216TIP3   OH240138   1.244   0.997   1.741  0.4615  0.6508 -0.4853
 6216TIP3    H140139   1.315   0.938   1.716  0.3057  0.5132 -0.6093
 6216TIP3    H240140   1.208   1.027   1.657 -0.5137 -0.3540 -0.4467
 6217TIP3   OH240141   1.047   2.244  11.275  0.2803  0.6113 -0.0370
 6217TIP3    H140142   1.012   2.224  11.188  1.1829 -1.1275 -0.0345
 6217TIP3    H240143   1.108   2.316  11.260 -0.6727  1.3120 -0.6039
 6218TIP3   OH240144   1.157   4.745   1.426  0.1327 -0.9867 -0.5299
 6218TIP3    H140145   1.066   4.767   1.404  0.6410  1.8121 -0.0646
 6218TIP3    H240146   1.160   4.745   1.521  0.9414  0.5480 -0.5327
 6219TIP3   OH240147   3.372   5.854   4.194  0.1449  0.3872 -0.4470
 6219TIP3    H140148   3.299   5.913   4.176 -0.7093 -1.0046 -1.5465
 6219TIP3    H240149   3.347   5.807   4.274  0.2035  0.4777 -0.3740
 6220TIP3   OH240150   4.077   4.278   2.605 -0.7405 -0.2928 -0.2046
 6220TIP3    H140151   4.098   4.249   2.694 -1.5306 -1.5506 -0.4123
 6220TIP3    H240152   4.083   4.198   2.552  0.1363  0.5154 -1.3647
 6221TIP3   OH240153   0.615   0.658  12.848  0.8073 -0.0181 -0.1997
 6221TIP3    H140154   0.559   0.729  12.879  1.0020  0.7276 -1.5066
 6221TIP3    H240155   0.702   0.680  12.881  0.8631  0.3522 -0.5831
 6222TIP3   OH240156   5.600   6.162  13.987 -0.1516  0.1225  0.1007
 6222TIP3    H140157   5.669   6.202  14.040 -0.7426 -1.2620  1.9541
 6222TIP3    H240158   5.638   6.155  13.899  1.6071  0.5299  0.8137
 6223TIP3   OH240159   2.270   2.449  14.423  0.5000  0.4667  0.0820
 6223TIP3    H140160   2.238   2.362  14.444  2.3255 -0.4810 -0.9466
 6223TIP3    H240161   2.195   2.507  14.436 -1.0517 -1.4186 -0.3781
 6224TIP3   OH240162   5.775   6.650   3.787  0.0749  0.0383  0.2661
 6224TIP3    H140163   5.770   6.570   3.840 -2.5956  0.5583  0.8677
 6224TIP3    H240164   5.684   6.667   3.761  0.9001  1.7121 -1.6180
 6225TIP3   OH240165   4.584   0.969  11.665  0.1122 -0.1953 -0.1448
 6225TIP3    H140166   4.636   1.047  11.685 -0.1294  0.3581 -1.6208
 6225TIP3    H240167   4.577   0.924  11.749  1.0402  0.8899  0.5472
 6226TIP3   OH240168   1.239   3.734  16.656  0.8645 -0.6288 -0.3688
 6226TIP3    H140169   1.300   3.679  16.705 -0.7257 -1.2817  0.9004
 6226TIP3    H240170   1.262   3.823  16.684  2.5193 -0.7149 -1.3816
 6227TIP3   OH240171   3.653   0.388  14.885  0.1992 -0.2217  0.5193
 6227TIP3    H140172   3.583   0.326  14.865 -0.7632  0.5344  1.4913
 6227TIP3    H240173   3.703   0.346  14.955 -0.3691  0.0205  1.0805
 6228TIP3   OH240174   2.439   4.754   4.683  0.3481  0.2948 -0.2282
 6228TIP3    H140175   2.439   4.698   4.760 -1.5794  2.7208  1.6520
 6228TIP3    H240176   2.357   4.734   4.638  0.8545 -0.1868 -0.9495
 6229TIP3   OH240177   6.744   0.010   5.296 -0.3648 -0.3129 -0.2985
 6229TIP3    H140178   6.756   0.103   5.316 -2.2355 -0.4091  1.5117
 6229TIP3    H240179   6.764  -0.035   5.379  0.7780 -1.5445 -1.2291
 6230TIP3   OH240180   1.778   1.291   1.917 -0.4900 -0.5645 -0.4730
 6230TIP3    H140181   1.693   1.246   1.912 -1.1259  0.4189  1.2010
 6230TIP3    H240182   1.835   1.230   1.963 -0.5618 -0.8085 -0.7058
 6231TIP3   OH240183   5.170   1.318   4.059  0.2799  0.0868 -0.1403
 6231TIP3    H140184   5.147   1.236   4.104 -1.5979  0.6429 -0.0281
 6231TIP3    H240185   5.145   1.303   3.968  1.8199 -0.1711 -0.5305
 6232TIP3   OH240186   0.843   3.436   5.065 -0.1849  0.3392 -0.0213
 6232TIP3    H140187   0.814   3.349   5.037  0.7066 -0.4047  1.3075
 6232TIP3    H240188   0.789   3.455   5.142  0.4898  0.4148  0.4356
 6233TIP3   OH240189   5.082   4.663  17.219 -0.5259  0.2169 -0.3975
 6233TIP3    H140190   5.123   4.580  17.191 -1.2151 -0.1317 -0.3904
 6233TIP3    H240191   5.099   4.667  17.313 -1.6690 -0.5967 -0.1472
 6234TIP3   OH240192   3.203   3.771   0.968 -0.2434  0.6249 -0.4656
 6234TIP3    H140193   3.246   3.820   1.038 -0.3904 -0.0315  0.0948
 6234TIP3    H240194   3.199   3.832   0.895  2.0161  0.5611 -0.6635
 6235TIP3   OH240195   5.435   3.689  14.481  0.0519  0.0427  0.5002
 6235TIP3    H140196   5.455   3.719  14.392 -2.4071  0.8650  0.1875
 6235TIP3    H240197   5.430   3.594  14.474 -1.6743  0.1971 -0.5942
 6236TIP3   OH240198   3.532   3.682   4.305 -0.5715  0.1356  1.0768
 6236TIP3    H140199   3.485   3.712   4.228  2.2372 -1.3625 -1.3080
 6236TIP3    H240200   3.570   3.762   4.342  0.4895  0.5195 -0.7892
 6237TIP3   OH240201   3.097   2.437  15.537  0.3225  0.5921  0.0256
 6237TIP3    H140202   3.055   2.475  15.614  0.3128 -0.1248  0.3708
 6237TIP3    H240203   3.144   2.361  15.570 -1.1495 -0.7698 -0.9503
 6238TIP3   OH240204   6.476   0.985  12.206 -0.3086 -0.3938  0.2519
 6238TIP3    H140205   6.410   0.942  12.153 -1.1799  0.8079  0.3312
 6238TIP3    H240206   6.527   0.914  12.245 -0.8564 -1.3075 -0.6776
 6239TIP3   OH240207   1.352   1.325  12.528 -0.1992  0.9537 -0.4193
 6239TIP3    H140208   1.337   1.239  12.490  0.1732  1.0932 -0.8805
 6239TIP3    H240209   1.264   1.356  12.552 -0.2290 -0.0225  0.7961
 6240TIP3   OH240210   6.663   2.815  15.834 -0.4259 -0.4293 -0.1673
 6240TIP3    H140211   6.679   2.757  15.908 -1.3417 -2.7013 -1.7055
 6240TIP3    H240212   6.572   2.800  15.809 -1.0933  2.6458  0.1937
 6241TIP3   OH240213   1.181   1.735   0.081 -0.5451  0.6025 -0.1862
 6241TIP3    H140214   1.212   1.771   0.164  0.6546  0.3696 -0.5270
 6241TIP3    H240215   1.088   1.757   0.079 -0.6590  0.3137  1.3744
 6242TIP3   OH240216   6.735   1.232  14.404 -0.7062 -0.7217 -0.5961
 6242TIP3    H140217   6.726   1.138  14.387 -0.9483 -0.7066 -0.5520
 6242TIP3    H240218   6.659   1.271  14.361 -1.4918 -0.7067  0.7703
 6243TIP3   OH240219   1.039   5.709  12.766  0.2427  0.7217  0.1351
 6243TIP3    H140220   1.134   5.711  12.752  0.1854 -0.6826 -0.5576
 6243TIP3    H240221   1.012   5.624  12.731 -1.2633  1.0875  0.3953
 6244TIP3   OH240222   4.284   4.991   3.319 -0.4739  0.1010 -0.1760
 6244TIP3    H140223   4.258   4.971   3.229 -1.0774 -2.4547  0.5277
 6244TIP3    H240224   4.241   4.924   3.372  0.9980  0.7193  1.8749
 6245TIP3   OH240225   2.573   6.472  15.493  0.1599 -0.0238  0.4980
 6245TIP3    H140226   2.500   6.534  15.491  0.6974  0.6315  1.1550
 6245TIP3    H240227   2.533   6.387  15.475 -1.0552  0.0375  2.7998
 6246TIP3   OH240228   5.692   2.027   4.599 -0.4079 -0.1013  0.6375
 6246TIP3    H140229   5.633   2.101   4.608 -1.7781 -0.7790 -2.1583
 6246TIP3    H240230   5.755   2.055   4.532 -0.0539 -0.9089  0.6294
 6247TIP3   OH240231   1.078   0.606  15.173 -0.3731 -0.0446  0.2122
 6247TIP3    H140232   1.164   0.576  15.204  0.2401  1.1129 -0.3132
 6247TIP3    H240233   1.083   0.597  15.078 -0.2083  1.5951  0.0550
 6248TIP3   OH240234   4.039   3.889   3.939  0.2498  0.2051  0.1779
 6248TIP3    H140235   4.099   3.920   4.008 -0.7453  1.1073  0.6639
 6248TIP3    H240236   3.990   3.968   3.914 -1.1749 -0.6514  0.2464
 6249TIP3   OH240237   3.872   2.098  11.548  0.0925  0.1027 -0.1053
 6249TIP3    H140238   3.839   2.019  11.590 -1.2576  0.9245  0.4001
 6249TIP3    H240239   3.901   2.154  11.621 -1.7794  1.3206 -0.2719
 6250TIP3   OH240240   5.643   5.177   1.831  0.1837 -0.1486 -0.1990
 6250TIP3    H140241   5.671   5.096   1.875 -0.7611  0.3187  1.3429
 6250TIP3    H240242   5.627   5.151   1.740  0.1069 -1.6572  0.2257
 6251TIP3   OH240243   5.522   5.446  16.848 -0.1621  0.3913 -0.3054
 6251TIP3    H140244   5.431   5.442  16.821 -0.4778  0.6446  0.7002
 6251TIP3    H240245   5.519   5.473  16.940  0.8887 -0.3583 -0.0444
 6252TIP3   OH240246   3.807   2.865  12.791  0.1542  0.6077 -0.2129
 6252TIP3    H140247   3.826   2.942  12.737 -0.8929  0.5025 -0.7609
 6252TIP3    H240248   3.872   2.800  12.764  0.1861  0.8520 -0.7344
 6253TIP3   OH240249   5.858   4.004  15.758 -0.4720 -0.4926  0.4853
 6253TIP3    H140250   5.903   4.071  15.810  0.0960  0.2340 -0.9235
 6253TIP3    H240251   5.922   3.976  15.694 -1.0608 -1.6391  0.3822
 6254TIP3   OH240252   0.348   2.783   2.725  0.2712 -0.5883  0.3665
 6254TIP3    H140253   0.287   2.709   2.719  1.4425 -1.5573  0.0746
 6254TIP3    H240254   0.299   2.852   2.770 -2.3000 -0.0327 -3.0808
 6255TIP3   OH240255   0.445   3.564   5.360  0.5966 -0.3964 -0.7468
 6255TIP3    H140256   0.415   3.479   5.394 -0.7999  0.2602 -0.2883
 6255TIP3    H240257   0.373   3.594   5.304  0.8675  0.7233 -0.5060
 6256TIP3   OH240258   2.502   0.299   0.613  0.5080  0.0849 -0.3306
 6256TIP3    H140259   2.574   0.261   0.564  0.9602  0.1252  0.2885
 6256TIP3    H240260   2.485   0.383   0.571  1.6762  0.6487  0.2977
 6257TIP3   OH240261   5.643   3.306   3.981 -0.7631  0.6613 -0.3237
 6257TIP3    H140262   5.685   3.382   3.941 -0.6726  1.3180  0.9738
 6257TIP3    H240263   5.552   3.311   3.953 -0.5212  0.6382 -1.1205
 6258TIP3   OH240264   1.253   5.016  14.688  0.2531  0.0183 -0.2082
 6258TIP3    H140265   1.334   4.988  14.645 -0.2658 -0.8875 -0.6182
 6258TIP3    H240266   1.265   5.109  14.704  0.4079  0.4237 -2.4523
 6259TIP3   OH240267   2.591   6.635  14.845  0.2900 -0.1976 -0.2793
 6259TIP3    H140268   2.584   6.545  14.814 -2.6564 -0.9284  2.2901
 6259TIP3    H240269   2.589   6.628  14.940  1.0991  2.5208 -0.0160
 6260TIP3   OH240270   5.863   4.211  16.638 -0.1881  0.0301 -0.5546
 6260TIP3    H140271   5.863   4.289  16.582 -0.5570  0.2987 -0.1813
 6260TIP3    H240272   5.789   4.223  16.697 -0.4852 -0.7893 -0.7483
 6261TIP3   OH240273   3.718   1.554  12.681  0.4168  0.4765  0.2071
 6261TIP3    H140274   3.632   1.545  12.722 -0.0141 -0.1639 -0.8421
 6261TIP3    H240275   3.702   1.605  12.602  0.8909 -0.2797 -0.3749
 6262TIP3   OH240276   3.687   6.165   6.075  0.5961 -0.8078 -0.2172
 6262TIP3    H140277   3.777   6.182   6.101  0.7003 -1.5497 -0.0858
 6262TIP3    H240278   3.644   6.133   6.154 -0.2653  1.3281  0.1935
 6263TIP3   OH240279   4.557   4.802  14.378 -0.4190 -0.1549  0.2696
 6263TIP3    H140280   4.522   4.863  14.313  1.8656  1.9671  0.9423
 6263TIP3    H240281   4.632   4.761  14.335 -0.0677 -0.1595  0.8755
 6264TIP3   OH240282   6.667   4.721  12.347 -0.4780 -0.1609  0.1079
 6264TIP3    H140283   6.763   4.722  12.349 -0.4519  2.7373  0.4396
 6264TIP3    H240284   6.645   4.650  12.288  1.8978 -0.7372 -0.1438
 6265TIP3   OH240285   4.931   2.582  16.035  0.5525  0.0869 -0.0925
 6265TIP3    H140286   4.886   2.531  16.102  1.0980  0.3678  0.4947
 6265TIP3    H240287   4.907   2.673  16.055  0.3180  0.1341 -0.5791
 6266TIP3   OH240288   6.746   2.095  12.632  0.3418  0.0155  0.3168
 6266TIP3    H140289   6.744   2.002  12.608  0.4561  0.0449  0.1853
 6266TIP3    H240290   6.728   2.097  12.725 -0.9447 -0.0399  0.0773
 6267TIP3   OH240291   5.919   3.779   0.758  0.0776 -0.1421 -0.1382
 6267TIP3    H140292   5.928   3.689   0.789  0.4995 -0.3377 -0.8039
 6267TIP3    H240293   5.977   3.783   0.682  1.4147  1.2025  0.9337
 6268TIP3   OH240294   6.086   3.936   0.884 -0.1115  0.2279  0.9394
 6268TIP3    H140295   6.000   3.900   0.862  0.1625  0.8065 -1.1604
 6268TIP3    H240296   6.136   3.861   0.917 -0.7177 -0.5803  0.0431
 6269TIP3   OH240297   6.814   4.910   5.952  0.8101  0.1809  0.3818
 6269TIP3    H140298   6.835   4.838   5.893  1.8767  0.1174  0.8230
 6269TIP3    H240299   6.719   4.905   5.963  0.9111 -1.3955  0.6998
 6270TIP3   OH240300   3.388   5.708  12.061  0.1509  0.2356 -0.3083
 6270TIP3    H140301   3.460   5.648  12.078 -0.6574 -0.5818  0.2863
 6270TIP3    H240302   3.407   5.745  11.975  0.5421 -1.0395 -0.7788
 6271TIP3   OH240303   5.839   3.190   4.157  0.2648  0.2589 -0.1449
 6271TIP3    H140304   5.881   3.141   4.086 -2.9079 -2.3734 -0.3037
 6271TIP3    H240305   5.759   3.227   4.118 -0.1579  1.0327  1.3940
 6272TIP3   OH240306   2.009   4.485   2.502  0.0636 -0.4973 -0.1662
 6272TIP3    H140307   2.097   4.522   2.494 -1.0105  2.2453  0.1329
 6272TIP3    H240308   1.966   4.507   2.419 -0.3423 -1.8746 -0.3355
 6273TIP3   OH240309   4.233   4.945  12.148 -0.0282 -0.1213 -0.2955
 6273TIP3    H140310   4.288   4.878  12.108 -0.7251 -0.8447 -0.0528
 6273TIP3    H240311   4.231   4.922  12.241  0.7627  0.9688 -0.0060
 6274TIP3   OH240312   4.093   0.600  16.155  0.5905 -0.1473  0.1615
 6274TIP3    H140313   3.998   0.596  16.164  0.6017  1.9021  1.8043
 6274TIP3    H240314   4.119   0.512  16.128 -1.8824 -0.3736 -1.5773
 6275TIP3   OH240315   2.331   3.439  12.677 -0.2417 -0.3418 -0.2212
 6275TIP3    H140316   2.379   3.487  12.744 -1.0396  0.6905 -0.3783
 6275TIP3    H240317   2.355   3.347  12.691  2.1949  0.2005 -0.6572
 6276TIP3   OH240318   2.379   0.873   0.415 -0.0434 -0.1116 -0.2138
 6276TIP3    H140319   2.438   0.941   0.447  1.5699 -1.3208 -0.5633
 6276TIP3    H240320   2.395   0.871   0.320 -3.9498  2.6586 -1.0653
 6277TIP3   OH240321   4.354   5.814   0.723  0.1773  0.2292 -0.4152
 6277TIP3    H140322   4.379   5.904   0.706 -0.1828  0.0797 -1.8243
 6277TIP3    H240323   4.387   5.795   0.811  0.0509  1.7984 -0.0272
 6278TIP3   OH240324   3.948   6.349  15.474  0.5404  0.4621 -0.4249
 6278TIP3    H140325   3.865   6.378  15.436  0.0522  0.7943  0.8395
 6278TIP3    H240326   3.981   6.426  15.520  0.8790 -0.0552  0.1999
 6279TIP3   OH240327   2.368   2.101  12.627  0.3561  0.3444 -0.4103
 6279TIP3    H140328   2.435   2.144  12.681  0.0388  1.4015 -0.8523
 6279TIP3    H240329   2.301   2.168  12.614 -0.6354 -0.5973 -0.2652
 6280TIP3   OH240330   5.783   3.563  16.582  0.6429  0.2698  0.0640
 6280TIP3    H140331   5.774   3.657  16.597  0.9814  0.0310  1.8374
 6280TIP3    H240332   5.717   3.544  16.515 -1.1687  1.3259  1.4973
 6281TIP3   OH240333   0.038   3.342  13.340 -0.1294  0.1664 -0.3838
 6281TIP3    H140334   0.024   3.405  13.269 -0.0134  0.6919  0.0544
 6281TIP3    H240335   0.132   3.348  13.359 -0.1249 -0.1163 -0.3241
 6282TIP3   OH240336   6.299   1.164   4.574  0.2622  0.0247 -0.2061
 6282TIP3    H140337   6.282   1.070   4.577  0.6054 -0.1655 -2.8843
 6282TIP3    H240338   6.213   1.204   4.567  0.1342 -0.0868  0.6354
 6283TIP3   OH240339   2.292   3.580  11.263 -0.1303 -0.0249  0.2640
 6283TIP3    H140340   2.231   3.508  11.249  1.1707 -0.2942 -4.7164
 6283TIP3    H240341   2.237   3.659  11.259 -0.4747 -0.3666 -2.1537
 6284TIP3   OH240342   3.512   0.784   3.317  0.6777 -0.0543 -0.3922
 6284TIP3    H140343   3.467   0.728   3.381 -0.3951  1.0003 -0.2053
 6284TIP3    H240344   3.464   0.769   3.235  0.9367 -0.0650 -0.5421
 6285TIP3   OH240345   1.324   6.457   5.711  0.5252  0.3324 -0.0761
 6285TIP3    H140346   1.419   6.453   5.697  0.6680 -2.0063  1.2150
 6285TIP3    H240347   1.287   6.449   5.623  1.5288 -2.1495 -0.3420
 6286TIP3   OH240348   6.743   6.769   4.508  0.4627 -0.1635  0.0876
 6286TIP3    H140349   6.735   6.763   4.603  3.9434  2.2075  0.5995
 6286TIP3    H240350   6.653   6.782   4.478 -0.6937 -0.9559  3.0373
 6287TIP3   OH240351   6.481   4.632  16.385 -0.5221  0.8700 -0.1145
 6287TIP3    H140352   6.433   4.684  16.450  1.4393  1.1558  1.1388
 6287TIP3    H240353   6.513   4.556  16.434  2.0324  1.7113 -0.4259
 6288TIP3   OH240354   2.558   2.661  12.914 -0.2180  0.5582  0.3389
 6288TIP3    H140355   2.484   2.633  12.967 -0.3150  1.3911  0.6439
 6288TIP3    H240356   2.529   2.740  12.870  0.8976  1.6267  1.4538
 6289TIP3   OH240357   1.222   4.121   4.934 -0.1426 -0.3910 -0.2075
 6289TIP3    H140358   1.138   4.087   4.902  1.1838 -1.4879 -2.6234
 6289TIP3    H240359   1.283   4.049   4.922  0.8929 -0.1170  2.9560
 6290TIP3   OH240360   4.080   5.246   3.238 -0.6165 -0.2484 -0.2054
 6290TIP3    H140361   4.132   5.251   3.317 -0.2443 -1.9095 -0.3262
 6290TIP3    H240362   4.030   5.328   3.236  0.0224  0.1806  1.2757
 6291TIP3   OH240363   0.168   2.934   2.841 -0.1217 -0.3736  0.1984
 6291TIP3    H140364   0.173   3.022   2.876 -1.1258 -0.1020 -0.3232
 6291TIP3    H240365   0.089   2.897   2.881 -0.9073 -0.2866 -1.2470
 6292TIP3   OH240366   1.083   5.300  12.245  0.0328 -0.3020  0.1252
 6292TIP3    H140367   1.031   5.251  12.182 -0.6040 -0.9183  1.1127
 6292TIP3    H240368   1.024   5.370  12.275 -0.0050 -0.6033  0.7607
 6293TIP3   OH240369   2.668   6.521   5.555  0.5078 -0.1738 -0.1472
 6293TIP3    H140370   2.681   6.428   5.573 -1.6096 -0.5405 -0.3548
 6293TIP3    H240371   2.603   6.549   5.620  0.8680  1.0728 -0.3146
 6294TIP3   OH240372   4.233   2.951   5.249 -0.0737  0.2656 -0.0797
 6294TIP3    H140373   4.240   2.891   5.323 -0.3955 -0.0400 -0.2910
 6294TIP3    H240374   4.275   3.032   5.278  0.0586  0.0482  0.3290
 6295TIP3   OH240375   6.240   6.170   3.813  0.0599  0.3226 -0.0226
 6295TIP3    H140376   6.318   6.216   3.845 -0.0429 -1.2771  2.6700
 6295TIP3    H240377   6.172   6.237   3.814  1.1233  1.4584 -1.3174
 6296TIP3   OH240378   3.517   0.755  12.320  0.0314 -0.9709  0.2224
 6296TIP3    H140379   3.580   0.821  12.347 -0.9636 -0.1623  0.6034
 6296TIP3    H240380   3.569   0.688  12.275  1.0303  0.1104 -0.2338
 6297TIP3   OH240381   1.080   1.109   4.093 -0.2075 -0.6484 -0.0292
 6297TIP3    H140382   1.033   1.139   4.016 -0.7722 -1.3439  0.0446
 6297TIP3    H240383   1.108   1.020   4.071  1.6185 -0.0185 -0.3218
 6298TIP3   OH240384   1.943   3.672   4.065 -0.8398  0.5679 -0.0618
 6298TIP3    H140385   1.859   3.696   4.025 -0.7384  1.0275 -0.0089
 6298TIP3    H240386   1.992   3.755   4.069  0.2575  0.0035 -1.6049
 6299TIP3   OH240387   3.216   5.910  17.078  0.1229  0.1248 -0.1696
 6299TIP3    H140388   3.244   5.819  17.084 -0.5321 -0.0276  0.4851
 6299TIP3    H240389   3.295   5.957  17.051  0.4732 -0.6230 -0.4548
 6300TIP3   OH240390   0.706   3.128   5.753  0.7130  0.2829  0.4831
 6300TIP3    H140391   0.758   3.097   5.678  0.4935  1.2469 -0.0819
 6300TIP3    H240392   0.768   3.132   5.825  1.3046  0.9071 -0.0530
 6301TIP3   OH240393   3.084   1.324  13.454  0.0719 -0.0979  0.0281
 6301TIP3    H140394   3.179   1.321  13.440  0.4828  2.3412  1.9545
 6301TIP3    H240395   3.061   1.415  13.437 -1.6824 -0.3414  1.0750
 6302TIP3   OH240396   1.737   6.510   1.303 -0.3190 -0.0462  0.0454
 6302TIP3    H140397   1.745   6.604   1.286  0.1358 -0.4489 -2.0032
 6302TIP3    H240398   1.805   6.469   1.249  0.0752 -1.4962  1.5984
 6303TIP3   OH240399   6.690   2.889   5.813 -0.5762 -0.3455 -0.1292
 6303TIP3    H140400   6.680   2.806   5.859  0.9254 -0.2782  0.3682
 6303TIP3    H240401   6.673   2.869   5.721 -1.9627 -0.8318  0.2239
 6304TIP3   OH240402   6.104   1.854   6.668  0.2343  0.2834 -0.6392
 6304TIP3    H140403   6.198   1.844   6.655  0.2867 -0.7670  0.5119
 6304TIP3    H240404   6.081   1.931   6.615  1.8823  1.1137 -0.1940
 6305TIP3   OH240405   4.250   5.065  13.461 -0.6720  0.4499 -0.3336
 6305TIP3    H140406   4.161   5.046  13.489 -0.6556 -0.6980 -1.0549
 6305TIP3    H240407   4.305   5.035  13.533 -0.7820 -0.0980 -0.4816
 6306TIP3   OH240408   5.048   0.094   1.304 -0.5933 -0.0827 -0.3133
 6306TIP3    H140409   5.060   0.184   1.272  0.8644 -1.1359 -2.9067
 6306TIP3    H240410   5.123   0.079   1.361  1.3948 -0.8943 -2.9934
 6307TIP3   OH240411   4.931   1.013   4.504  0.0369 -0.4132  0.3793
 6307TIP3    H140412   4.839   1.041   4.502  0.4282  0.8212 -1.2499
 6307TIP3    H240413   4.928   0.924   4.539 -1.8702 -0.7107 -0.4879
 6308TIP3   OH240414   3.521   4.146   4.149  0.1936 -0.2159 -0.5890
 6308TIP3    H140415   3.576   4.179   4.221  1.1688 -1.5100 -0.7176
 6308TIP3    H240416   3.457   4.090   4.192  0.8688 -1.1083 -0.7254
 6309TIP3   OH240417   6.538   1.934  13.579  0.5020 -0.4908  0.7203
 6309TIP3    H140418   6.537   1.884  13.661 -0.5098  0.3100  1.2068
 6309TIP3    H240419   6.462   1.903  13.531  0.4985 -0.2022  0.5388
 6310TIP3   OH240420   2.320   6.433  12.382  0.1311 -0.2438 -0.3656
 6310TIP3    H140421   2.265   6.447  12.459  0.0734  1.8062 -0.7554
 6310TIP3    H240422   2.293   6.501  12.320  2.1158 -0.1195 -1.1337
 6311TIP3   OH240423   4.436   1.937   4.234  0.0469 -0.0225 -0.7492
 6311TIP3    H140424   4.476   2.010   4.282 -0.2293 -0.1006 -0.4035
 6311TIP3    H240425   4.420   1.870   4.301 -0.5012 -0.0626 -0.9195
 6312TIP3   OH240426   5.029   3.343   0.848 -0.3599 -0.7009  0.1491
 6312TIP3    H140427   4.966   3.411   0.874 -0.7356 -0.2874 -1.8220
 6312TIP3    H240428   5.059   3.370   0.762  2.4422 -0.9719  0.9928
 6313TIP3   OH240429   6.664   3.138   2.887 -0.6779  0.3583  0.0635
 6313TIP3    H140430   6.674   3.166   2.977 -0.5431 -0.5434  0.3388
 6313TIP3    H240431   6.639   3.217   2.839 -0.4289  0.9023  0.8290
 6314TIP3   OH240432   2.419   0.574   1.841  0.0438  0.1202  0.5776
 6314TIP3    H140433   2.421   0.496   1.896  0.2647 -0.4053 -0.1747
 6314TIP3    H240434   2.456   0.643   1.896  1.6907 -0.7436  0.5695
 6315TIP3   OH240435   2.538   5.253  16.172  0.3402  0.1400  0.4639
 6315TIP3    H140436   2.555   5.165  16.139 -0.9942 -0.5746  1.6273
 6315TIP3    H240437   2.452   5.275  16.136 -0.6166 -0.1884  2.4705
 6316TIP3   OH240438   2.570   2.117  12.353 -0.3354  0.6492  0.1387
 6316TIP3    H140439   2.556   2.117  12.448  0.7973 -1.6377  0.3289
 6316TIP3    H240440   2.595   2.207  12.333  1.4264  0.6866  2.3279
 6317TIP3   OH240441   1.889   2.501  10.611  0.3407  0.4420 -0.1848
 6317TIP3    H140442   1.890   2.472  10.520 -1.0403  0.4716 -0.2167
 6317TIP3    H240443   1.969   2.464  10.648 -0.3851 -1.7568 -0.7259
 6318TIP3   OH240444   2.108   4.207  15.635  0.4847  0.1111  0.3942
 6318TIP3    H140445   2.160   4.277  15.595  0.2125  1.0523  1.6319
 6318TIP3    H240446   2.026   4.208  15.586  0.8998 -0.0869 -0.3154
 6319TIP3   OH240447   0.435   2.831   5.283 -0.0449 -0.0680 -0.6148
 6319TIP3    H140448   0.378   2.755   5.273 -0.1736  0.0368 -0.6851
 6319TIP3    H240449   0.491   2.830   5.206 -0.5248  0.3100 -0.9703
 6320TIP3   OH240450   6.704   1.626  14.150 -0.6928  0.1044  0.2311
 6320TIP3    H140451   6.677   1.710  14.188 -1.9902 -0.2600  0.1119
 6320TIP3    H240452   6.623   1.587  14.118  0.0771 -0.6466 -0.8206
 6321TIP3   OH240453   2.600   6.650   3.072  0.1378 -0.5467 -0.9525
 6321TIP3    H140454   2.670   6.646   3.007 -0.3222  1.6724 -1.5958
 6321TIP3    H240455   2.528   6.695   3.028 -0.2822  0.7329  0.9931
 6322TIP3   OH240456   2.685   0.181   1.462  0.1260  0.5933  0.1263
 6322TIP3    H140457   2.631   0.148   1.390  2.5983 -1.1797 -0.9987
 6322TIP3    H240458   2.759   0.224   1.419  0.7464  1.0368  1.6019
 6323TIP3   OH240459   2.693   4.352   2.597 -0.6426 -0.4015 -0.6673
 6323TIP3    H140460   2.725   4.320   2.512 -0.3385  0.4524 -0.8819
 6323TIP3    H240461   2.677   4.273   2.648  2.1423 -0.8527 -0.4331
 6324TIP3   OH240462   2.743   6.674   0.629  0.0199  0.0576  0.2202
 6324TIP3    H140463   2.681   6.600   0.630 -0.9864  0.8749 -0.3632
 6324TIP3    H240464   2.811   6.647   0.568 -1.2446  0.3089 -1.3303
 6325TIP3   OH240465   1.431   6.036  13.269 -0.4752 -0.3696 -0.0126
 6325TIP3    H140466   1.460   6.038  13.361 -1.7693  0.1365  0.4024
 6325TIP3    H240467   1.396   5.948  13.257 -1.3374 -0.0786  0.3201
 6326TIP3   OH240468   5.243   3.670   1.153  0.3006 -0.4837  0.0043
 6326TIP3    H140469   5.183   3.739   1.181  0.0189 -0.6791 -0.1122
 6326TIP3    H240470   5.198   3.589   1.176  0.1908 -0.6429 -0.7606
 6327TIP3   OH240471   0.268   0.885  16.228 -0.0064 -0.2861  0.4876
 6327TIP3    H140472   0.238   0.940  16.156  0.2730 -0.3970  0.2850
 6327TIP3    H240473   0.196   0.825  16.245 -0.9321  1.1338  1.7412
 6328TIP3   OH240474   0.427   2.443  12.116 -0.3092  0.4525 -0.0665
 6328TIP3    H140475   0.383   2.364  12.148  1.2658  0.2923  1.7526
 6328TIP3    H240476   0.516   2.414  12.096 -0.4326  1.2281 -1.8138
 6329TIP3   OH240477   5.237   1.785   4.044  0.7678 -0.1180 -0.3245
 6329TIP3    H140478   5.205   1.789   3.954 -0.0649  1.3928  0.0089
 6329TIP3    H240479   5.187   1.714   4.084 -0.4106  0.6025 -0.4920
 6330TIP3   OH240480   6.339   3.345   1.259 -0.2804  0.5322  0.2681
 6330TIP3    H140481   6.393   3.271   1.286 -0.7359 -0.9463 -2.7320
 6330TIP3    H240482   6.249   3.314   1.266 -0.5503  1.3138  0.3803
 6331TIP3   OH240483   6.407   1.962   2.303  0.0839  0.2262 -0.3846
 6331TIP3    H140484   6.372   2.024   2.367 -0.9835  0.7744 -1.4793
 6331TIP3    H240485   6.332   1.907   2.280  0.7362 -0.6892 -0.3126
 6332TIP3   OH240486   1.420   2.842  13.137  0.3601  0.7733 -0.1780
 6332TIP3    H140487   1.467   2.924  13.152  1.3257  0.2138 -0.0624
 6332TIP3    H240488   1.483   2.774  13.162 -0.7130  0.0177  0.4688
 6333TIP3   OH240489   6.118   2.472  15.291  0.8398 -0.0489 -0.8341
 6333TIP3    H140490   6.135   2.543  15.352  0.7831  0.4353 -1.3734
 6333TIP3    H240491   6.037   2.497  15.247  0.3991 -0.8285 -0.4801
 6334TIP3   OH240492   4.517   3.785  15.584 -0.4376  0.3427  0.2485
 6334TIP3    H140493   4.524   3.867  15.632  0.9619  0.1108  0.4688
 6334TIP3    H240494   4.449   3.801  15.518 -1.5248  1.0442  1.5180
 6335TIP3   OH240495   1.685   5.896  16.162  0.4278 -0.6238  0.1833
 6335TIP3    H140496   1.718   5.961  16.099 -1.0123  1.0427  1.1060
 6335TIP3    H240497   1.641   5.831  16.108  1.4115 -0.5528 -0.7208
 6336TIP3   OH240498   3.653   0.730  15.621 -0.7100 -0.2610  0.0044
 6336TIP3    H140499   3.620   0.650  15.662  1.2704 -1.1740 -0.1373
 6336TIP3    H240500   3.649   0.796  15.691 -1.5129 -0.7125  0.3819
 6337TIP3   OH240501   1.805   4.499  10.757 -0.0404 -0.4775 -0.2981
 6337TIP3    H140502   1.770   4.469  10.673 -0.7609  0.4949 -0.3516
 6337TIP3    H240503   1.734   4.551  10.795  1.2190  1.1964 -0.2255
 6338TIP3   OH240504   0.925   4.214   1.785  0.5350 -0.0173  0.6128
 6338TIP3    H140505   0.846   4.258   1.817 -0.0589 -0.1320 -0.6841
 6338TIP3    H240506   0.995   4.278   1.797  0.4776 -0.3004  2.8075
 6339TIP3   OH240507   3.362   5.805   3.119  0.5590 -0.0750  0.3693
 6339TIP3    H140508   3.314   5.862   3.060  0.6016  1.1168  1.4761
 6339TIP3    H240509   3.308   5.726   3.124 -0.7469  0.8209  0.7448
 6340TIP3   OH240510   0.256   3.660   3.468 -0.6817 -0.1156 -0.3680
 6340TIP3    H140511   0.163   3.664   3.491 -0.4900  0.6182  0.3219
 6340TIP3    H240512   0.286   3.751   3.472 -0.0033 -0.3091 -0.8835
 6341TIP3   OH240513   3.794   3.823  15.397 -0.2401  0.1588 -0.1779
 6341TIP3    H140514   3.802   3.894  15.461  1.7798  0.2402 -0.4879
 6341TIP3    H240515   3.806   3.865  15.312 -0.4226 -0.3426 -0.4542
 6342TIP3   OH240516   3.038   0.571  14.176 -0.5399 -0.7512  0.5034
 6342TIP3    H140517   3.120   0.530  14.204 -0.1619  0.2271  0.8576
 6342TIP3    H240518   3.009   0.620  14.253 -0.8610 -0.1700  0.0180
 6343TIP3   OH240519   4.308   3.426  11.983 -0.0343 -0.0110 -0.1876
 6343TIP3    H140520   4.403   3.413  11.990 -0.0261 -0.2187 -0.6671
 6343TIP3    H240521   4.287   3.398  11.894 -0.9443 -2.3613  0.7365
 6344TIP3   OH240522   1.493   0.722  15.654 -0.0291 -0.1802  0.5291
 6344TIP3    H140523   1.403   0.754  15.652 -0.3549 -0.9990  1.3044
 6344TIP3    H240524   1.544   0.787  15.605 -0.9822  0.4717  0.3987
 6345TIP3   OH240525   5.927   5.181  14.992  0.0221 -0.1015 -0.2609
 6345TIP3    H140526   5.931   5.087  14.977  2.0529 -0.2653  1.1007
 6345TIP3    H240527   5.864   5.191  15.064  2.3125 -0.7753  1.9167
 6346TIP3   OH240528   4.038   4.149   4.111 -0.2928  0.9252  0.3291
 6346TIP3    H140529   3.956   4.100   4.106 -0.2149  0.7786  0.4853
 6346TIP3    H240530   4.087   4.108   4.182  1.4071 -1.2106 -1.9902
 6347TIP3   OH240531   2.637   5.913   2.826  0.0799  0.0620  0.0829
 6347TIP3    H140532   2.696   5.839   2.843 -0.0406 -0.4545 -1.6004
 6347TIP3    H240533   2.691   5.991   2.843  0.7574 -0.4052  0.1193
 6348TIP3   OH240534   0.084   1.449   4.189  0.6133  0.0225 -0.9738
 6348TIP3    H140535   0.171   1.431   4.225  0.2562 -1.6617 -0.9390
 6348TIP3    H240536   0.074   1.544   4.198  2.3804  0.2138 -0.8375
 6349TIP3   OH240537   4.661   4.275  12.841  0.9864  0.2342  0.5485
 6349TIP3    H140538   4.645   4.181  12.851  0.2888  0.5099  2.0831
 6349TIP3    H240539   4.755   4.285  12.854  1.5080 -0.5817 -2.2863
 6350TIP3   OH240540   3.878   0.683  15.839  0.2049  0.3100  0.3378
 6350TIP3    H140541   3.821   0.754  15.811 -0.0416  0.2320  0.6434
 6350TIP3    H240542   3.825   0.632  15.899  0.2305 -0.4068 -0.2436
 6351TIP3   OH240543   1.868   0.988  16.367  0.2197 -0.1883 -0.5346
 6351TIP3    H140544   1.931   1.026  16.429  0.7832 -0.6808 -0.7984
 6351TIP3    H240545   1.895   1.020  16.281 -3.5243  4.6063 -0.1346
 6352TIP3   OH240546   2.571   3.043  15.489 -0.3425  0.1564  0.2311
 6352TIP3    H140547   2.538   3.083  15.408 -1.0544 -0.5595  0.1490
 6352TIP3    H240548   2.521   2.962  15.496  1.7565 -1.2099 -0.1413
 6353TIP3   OH240549   0.759   3.742  12.777  1.0045  0.5271  0.2125
 6353TIP3    H140550   0.681   3.691  12.798 -0.0161  1.8506 -0.2734
 6353TIP3    H240551   0.808   3.687  12.716 -0.2172  0.2252 -0.5213
 6354TIP3   OH240552   1.572   2.148   2.890 -0.6673 -0.2301  0.7662
 6354TIP3    H140553   1.643   2.212   2.883 -0.3788 -0.6375 -0.0394
 6354TIP3    H240554   1.497   2.199   2.922  0.0690  0.1368  1.9475
 6355TIP3   OH240555   3.310   5.455  13.565 -0.3518  0.2971  0.2132
 6355TIP3    H140556   3.247   5.439  13.494  1.3017 -0.4931 -1.1169
 6355TIP3    H240557   3.376   5.512  13.526  0.9884 -0.7922  0.8665
 6356TIP3   OH240558   5.982   4.946   2.976 -0.2914 -0.8332  0.0968
 6356TIP3    H140559   5.997   5.030   2.933  0.1465 -0.7593  0.3847
 6356TIP3    H240560   5.954   4.969   3.065 -2.1799 -0.9753 -0.4576
 6357TIP3   OH240561   2.875   5.390  13.576  0.2939  0.3751  0.2638
 6357TIP3    H140562   2.820   5.432  13.510  1.2028 -0.4345 -1.0314
 6357TIP3    H240563   2.948   5.451  13.589  1.2685 -0.4414 -1.1349
 6358TIP3   OH240564   5.714   0.577   0.938 -0.4910  0.1536  0.7005
 6358TIP3    H140565   5.732   0.534   0.854  0.3301  0.8814  0.4932
 6358TIP3    H240566   5.729   0.510   1.004 -0.8066 -0.3301  0.2818
 6359TIP3   OH240567   0.949   0.815   4.328  0.4427  0.4058 -0.2784
 6359TIP3    H140568   1.035   0.855   4.317 -0.3747  1.9250 -1.2811
 6359TIP3    H240569   0.887   0.888   4.330 -1.0663 -0.7539 -1.9708
 6360TIP3   OH240570   3.363   1.617  12.518 -0.4393 -0.4152 -0.3047
 6360TIP3    H140571   3.281   1.658  12.489 -0.0594  0.2897 -0.3871
 6360TIP3    H240572   3.432   1.670  12.478  0.0994  0.3412  1.5821
 6361TIP3   OH240573   0.108   3.755  11.597 -0.2449  0.0437 -0.0696
 6361TIP3    H140574   0.167   3.756  11.672 -0.6843  0.0485  0.2758
 6361TIP3    H240575   0.106   3.846  11.567 -0.0849  0.0453 -0.0721
 6362TIP3   OH240576   5.775   0.771  14.000 -0.4819  0.2697  0.0242
 6362TIP3    H140577   5.719   0.790  14.076  1.3254 -0.3359  1.5466
 6362TIP3    H240578   5.821   0.691  14.024  0.7323  0.5338 -1.3776
 6363TIP3   OH240579   0.788   4.982   1.920 -0.0145  0.8182  0.6303
 6363TIP3    H140580   0.725   5.053   1.930  1.5550  2.4891 -1.0344
 6363TIP3    H240581   0.777   4.954   1.829 -0.7058 -1.1871  1.3106
 6364TIP3   OH240582   1.157   6.559  13.011  0.2744  0.5989 -0.2634
 6364TIP3    H140583   1.234   6.568  13.067 -0.5215  0.8700  0.8154
 6364TIP3    H240584   1.121   6.473  13.033 -1.1463  1.5127  1.0994
 6365TIP3   OH240585   0.508   5.986   4.886  0.3762  0.7701  0.1668
 6365TIP3    H140586   0.413   6.003   4.888  0.4613  1.0216  2.9237
 6365TIP3    H240587   0.514   5.891   4.887  0.1601  0.7607  1.8043
 6366TIP3   OH240588   1.215   5.096  14.114  0.1760 -0.3483 -0.1296
 6366TIP3    H140589   1.218   5.010  14.072 -0.1916  0.2741 -1.4451
 6366TIP3    H240590   1.187   5.156  14.045 -0.3496  0.7101  0.9825
 6367TIP3   OH240591   4.571   6.524  12.011 -0.4656  0.0522  0.0718
 6367TIP3    H140592   4.497   6.505  12.069 -0.5319  1.1028  0.3456
 6367TIP3    H240593   4.533   6.568  11.936 -0.2085 -0.1163 -0.1598
 6368TIP3   OH240594   1.239   3.432  13.474 -0.7350  0.1701 -0.0488
 6368TIP3    H140595   1.290   3.399  13.399 -2.1929  1.6343 -1.7071
 6368TIP3    H240596   1.160   3.379  13.473 -0.7576  0.1983  0.4633
 6369TIP3   OH240597   4.466   2.661   4.816 -0.0326 -0.0171 -0.1404
 6369TIP3    H140598   4.501   2.573   4.823  0.1542 -0.0437 -1.4078
 6369TIP3    H240599   4.425   2.677   4.901 -3.4490 -2.7589 -1.1569
 6370TIP3   OH240600   4.358   6.241  15.437 -0.4648  0.3127 -0.4774
 6370TIP3    H140601   4.422   6.285  15.494 -0.9463 -0.5708  0.7553
 6370TIP3    H240602   4.289   6.211  15.496 -0.8324 -0.8768 -1.4900
 6371TIP3   OH240603   1.672   4.451  13.342 -0.1690  0.2285 -0.2666
 6371TIP3    H140604   1.597   4.428  13.397  0.6116  0.9464  1.1536
 6371TIP3    H240605   1.745   4.401  13.379  0.6535  1.7581  0.2191
 6372TIP3   OH240606   3.279   6.057   1.337 -0.7305 -0.4199  0.8101
 6372TIP3    H140607   3.371   6.057   1.310 -1.1893  1.6959 -0.9329
 6372TIP3    H240608   3.277   6.004   1.417  2.2477  0.6616  1.6681
 6373TIP3   OH240609   1.436   2.361   4.174 -0.0327  0.5919 -0.3191
 6373TIP3    H140610   1.342   2.352   4.187  0.1731 -1.0013  0.1150
 6373TIP3    H240611   1.467   2.403   4.255 -0.2909  0.5665 -0.2060
 6374TIP3   OH240612   4.049   2.843   4.570  1.0050 -0.4006  0.0452
 6374TIP3    H140613   4.066   2.912   4.635  1.8654  0.6354 -1.2570
 6374TIP3    H240614   4.084   2.764   4.610  2.3243  0.3821  0.4774
 6375TIP3   OH240615   1.739   1.893  14.871 -0.7518  0.6433  0.0171
 6375TIP3    H140616   1.765   1.942  14.949 -2.3516  0.6130  0.5887
 6375TIP3    H240617   1.645   1.912  14.861 -0.8273 -0.3159 -1.2021
 6376TIP3   OH240618   1.403   4.193  12.101 -0.2722  0.4234 -0.2434
 6376TIP3    H140619   1.318   4.175  12.062  0.5132 -2.3010 -0.8118
 6376TIP3    H240620   1.405   4.142  12.182 -1.1570  4.5805  2.5545
 6377TIP3   OH240621   2.587   3.067  15.002  0.0160  0.0980  0.3481
 6377TIP3    H140622   2.558   3.132  14.938  1.3639 -0.6168 -1.0209
 6377TIP3    H240623   2.547   2.985  14.972  2.9554 -0.8052 -1.2781
 6378TIP3   OH240624   3.078   3.662  12.693 -0.5797  0.0460  0.2463
 6378TIP3    H140625   3.127   3.588  12.656  0.1811  0.5698  0.1959
 6378TIP3    H240626   3.059   3.719  12.618  2.4727  1.9762  0.8488
 6379TIP3   OH240627   1.637   4.245   3.068  0.0943  0.0737 -0.1679
 6379TIP3    H140628   1.642   4.152   3.050  1.0426 -0.1949  1.4323
 6379TIP3    H240629   1.697   4.285   3.005  0.7634 -0.5192  0.0952
 6380TIP3   OH240630   0.454   6.207   1.589 -0.0831 -0.6347  0.6073
 6380TIP3    H140631   0.535   6.219   1.638 -0.3875 -0.6413  1.1178
 6380TIP3    H240632   0.395   6.162   1.650 -1.0278  0.8498  0.8155
 6381TIP3   OH240633   4.961   0.131  14.394 -0.1079  0.5060 -0.4412
 6381TIP3    H140634   4.937   0.216  14.358  0.4202 -0.0061 -2.0296
 6381TIP3    H240635   5.016   0.091  14.327  0.0585 -0.8867  0.5030
 6382TIP3   OH240636   4.409   1.365  16.676  0.2645  0.2050 -0.1850
 6382TIP3    H140637   4.326   1.381  16.632  0.6634  2.0208 -0.3244
 6382TIP3    H240638   4.385   1.328  16.761 -0.5328 -2.9002 -1.6737
 6383TIP3   OH240639   5.291   1.604  14.445 -0.4877 -0.4073  0.4881
 6383TIP3    H140640   5.306   1.688  14.402 -0.8166 -0.6823 -0.1654
 6383TIP3    H240641   5.196   1.590  14.438 -0.5712 -0.3555  1.4811
 6384TIP3   OH240642   6.697   1.751   0.059  0.3489 -0.5374  0.2531
 6384TIP3    H140643   6.681   1.659   0.036  0.6152 -0.3004 -0.8818
 6384TIP3    H240644   6.669   1.757   0.151  0.8679 -1.8885  0.5226
 6385TIP3   OH240645   6.583   0.282   5.327  0.1279 -0.0311  0.4841
 6385TIP3    H140646   6.625   0.337   5.260 -2.3557  1.9287  0.4483
 6385TIP3    H240647   6.602   0.326   5.410  0.6204 -0.7772  0.7727
 6386TIP3   OH240648   1.453   3.686  14.500  0.5131  0.3780 -0.7539
 6386TIP3    H140649   1.483   3.758  14.445 -0.1764 -0.0044 -1.6276
 6386TIP3    H240650   1.452   3.610  14.442 -1.0886  0.1556 -0.4388
 6387TIP3   OH240651   3.788   4.979   3.060  0.0370  0.5628  0.2564
 6387TIP3    H140652   3.792   4.900   3.006 -1.2651  1.4478 -1.1562
 6387TIP3    H240653   3.828   5.047   3.006 -1.4113  1.4909  0.3398
 6388TIP3   OH240654   2.984   5.800   3.990 -0.3319 -0.4541  0.7410
 6388TIP3    H140655   2.961   5.833   4.076 -1.0188  0.6193  0.1524
 6388TIP3    H240656   3.059   5.743   4.006 -0.8489 -0.7671  2.1253
 6389TIP3   OH240657   3.672   6.595  15.158 -0.2950 -0.1330 -0.0293
 6389TIP3    H140658   3.702   6.528  15.097  2.0041 -1.1312  2.0969
 6389TIP3    H240659   3.604   6.643  15.110  0.3529 -1.8430 -2.7645
 6390TIP3   OH240660   4.632   0.941   0.081  0.0691 -0.0394 -0.3854
 6390TIP3    H140661   4.565   0.988   0.131 -0.1453 -1.4351  0.6597
 6390TIP3    H240662   4.668   0.877   0.143  0.5524 -1.0628 -1.7064
 6391TIP3   OH240663   3.680   0.143   5.647 -0.1969 -0.5066  0.5879
 6391TIP3    H140664   3.701   0.050   5.641  0.5447 -0.4262  1.8353
 6391TIP3    H240665   3.626   0.160   5.570 -0.2053 -1.9302  0.2651
 6392TIP3   OH240666   3.945   5.404  14.041  0.3139 -0.3020  0.2959
 6392TIP3    H140667   3.942   5.394  13.946 -0.0778  0.0821  0.2624
 6392TIP3    H240668   3.902   5.325  14.076 -0.9102  0.2698  0.1052
 6393TIP3   OH240669   1.239   3.163  17.275  0.5858 -0.4440  0.5120
 6393TIP3    H140670   1.176   3.137  17.341  0.9058  0.0190  1.0083
 6393TIP3    H240671   1.195   3.231  17.224  0.5110 -0.4602  0.5559
 6394TIP3   OH240672   4.044   0.038  13.686  0.3932 -0.5825  0.3254
 6394TIP3    H140673   4.040   0.096  13.763  1.1508  0.5692 -0.4919
 6394TIP3    H240674   4.099   0.086  13.623  0.2343 -1.7716 -0.7186
 6395TIP3   OH240675   0.781   5.000   0.151  0.1955  0.2685 -0.2273
 6395TIP3    H140676   0.753   5.002   0.059  0.4581 -0.3630 -0.3235
 6395TIP3    H240677   0.775   4.908   0.176  1.5073  0.2260 -0.0348
 6396TIP3   OH240678   2.737   6.387   4.819 -0.1738 -0.0696  0.3108
 6396TIP3    H140679   2.686   6.453   4.771 -0.2906 -0.8760 -0.6976
 6396TIP3    H240680   2.765   6.432   4.899 -0.6670  1.0483 -0.1291
 6397TIP3   OH240681   4.040   2.916   5.082  0.0539  0.2481 -0.2246
 6397TIP3    H140682   3.948   2.936   5.103  0.3947  2.3652 -0.6775
 6397TIP3    H240683   4.087   2.931   5.164 -0.1092 -1.7090  0.2490
 6398TIP3   OH240684   5.689   6.375  12.942  0.1730  0.1415  0.5565
 6398TIP3    H140685   5.731   6.412  12.865  0.7011  1.4962  1.4706
 6398TIP3    H240686   5.762   6.347  12.998 -0.1874 -0.0196  0.9474
 6399TIP3   OH240687   4.950   2.288   4.917  0.0461 -0.2513  0.3562
 6399TIP3    H140688   4.886   2.356   4.894  0.7993  0.5856  0.7132
 6399TIP3    H240689   4.922   2.211   4.866 -0.5319  0.4570 -0.4167
 6400TIP3   OH240690   3.665   3.684  14.384 -0.3673 -0.3947  0.2239
 6400TIP3    H140691   3.584   3.730  14.360  1.5074  1.6467 -2.3652
 6400TIP3    H240692   3.729   3.753  14.400  0.9636 -1.9932  2.1112
 6401TIP3   OH240693   0.310   1.217  12.287 -0.2074  0.1770 -0.4277
 6401TIP3    H140694   0.256   1.169  12.224  0.0116 -0.7412  0.0784
 6401TIP3    H240695   0.391   1.167  12.292 -0.1893  0.2960  0.5135
 6402TIP3   OH240696   3.992   6.240   3.953 -0.1780  0.0889  0.2942
 6402TIP3    H140697   3.988   6.146   3.971 -1.6699 -0.5417 -2.9443
 6402TIP3    H240698   3.905   6.261   3.919 -0.0264  2.7810  1.4172
 6403TIP3   OH240699   1.347   3.862  12.153 -0.0920  0.0471 -0.0716
 6403TIP3    H140700   1.304   3.800  12.095  0.4127 -1.3788  1.0545
 6403TIP3    H240701   1.435   3.827  12.165 -0.0501  0.5649  1.1839
 6404TIP3   OH240702   4.583   4.247  12.199 -0.1545 -0.1073  0.2083
 6404TIP3    H140703   4.572   4.273  12.291 -1.0823  0.2737 -0.0017
 6404TIP3    H240704   4.495   4.223  12.170 -0.1600  1.2719 -1.0187
 6405TIP3   OH240705   3.111   0.028  15.932 -0.4633  0.3438 -0.0167
 6405TIP3    H140706   3.042   0.093  15.921 -1.5658 -0.9503 -1.0268
 6405TIP3    H240707   3.183   0.060  15.877 -0.3649  1.5390  0.7934
 6406TIP3   OH240708   6.242   1.380   0.241  0.2554 -0.2248 -0.1428
 6406TIP3    H140709   6.228   1.391   0.147  0.9288 -1.5278 -0.3989
 6406TIP3    H240710   6.323   1.330   0.248  0.6029  0.5096  1.1509
 6407TIP3   OH240711   1.162   3.689   0.575 -1.0795  0.5529 -0.4533
 6407TIP3    H140712   1.234   3.752   0.569 -0.0655 -0.6216 -0.6524
 6407TIP3    H240713   1.100   3.718   0.508  0.6602 -0.2476 -2.4649
 6408TIP3   OH240714   6.171   2.635  12.758  0.3277  0.0736  0.6085
 6408TIP3    H140715   6.227   2.702  12.797  0.3668 -0.1059  0.8651
 6408TIP3    H240716   6.196   2.633  12.666 -1.2567  1.9984  0.1148
 6409TIP3   OH240717   2.006   3.073  10.533 -0.0134  0.1237 -0.0261
 6409TIP3    H140718   1.949   3.146  10.507  0.3327  0.8473  1.2027
 6409TIP3    H240719   2.066   3.112  10.596  0.9719 -0.9565 -0.2929
 6410TIP3   OH240720   2.277   0.568  14.934  0.5111 -0.0183 -0.6777
 6410TIP3    H140721   2.311   0.552  15.022  1.3284  0.8350 -0.8308
 6410TIP3    H240722   2.319   0.649  14.906  1.0558 -0.8317 -2.2675
 6411TIP3   OH240723   0.787   5.219  15.006  0.1494  0.6728 -0.7433
 6411TIP3    H140724   0.839   5.155  15.056  0.1571  1.0905 -0.2085
 6411TIP3    H240725   0.696   5.195  15.025  0.1327  2.2010  1.2877
 6412TIP3   OH240726   5.844   0.062  14.563  0.1428  0.1861 -0.1412
 6412TIP3    H140727   5.910   0.093  14.625  0.3601 -0.7763  0.1248
 6412TIP3    H240728   5.788   0.138  14.547  1.4927  1.1070 -0.6024
 6413TIP3   OH240729   0.923   2.209   4.082 -0.2486  0.1278 -0.7161
 6413TIP3    H140730   0.875   2.274   4.031 -1.0229 -0.3446 -0.6010
 6413TIP3    H240731   0.861   2.137   4.094 -0.5640  0.7999  2.0711
 6414TIP3   OH240732   6.009   0.225  14.724  0.3745  0.1739  0.4107
 6414TIP3    H140733   5.984   0.180  14.805 -0.3474 -1.0292 -0.4435
 6414TIP3    H240734   5.948   0.298  14.717 -0.2096 -0.2963  0.4760
 6415TIP3   OH240735   5.506   5.185  11.828  0.0072  0.0370 -0.3351
 6415TIP3    H140736   5.463   5.129  11.764  0.5611 -0.0843 -0.6031
 6415TIP3    H240737   5.506   5.133  11.909  3.4121 -1.7055 -1.3626
 6416TIP3   OH240738   2.637   3.967  10.837  0.3539 -0.4532 -0.0573
 6416TIP3    H140739   2.690   4.021  10.894  1.3639 -1.8553  0.3573
 6416TIP3    H240740   2.696   3.941  10.766  0.0429 -1.4364  0.0335
 6417TIP3   OH240741   3.353   6.253  15.132  0.3563 -0.0419  0.3058
 6417TIP3    H140742   3.312   6.329  15.173 -0.9578 -0.4679 -0.2240
 6417TIP3    H240743   3.398   6.289  15.056 -0.4305  0.1727 -0.0566
 6418TIP3   OH240744   5.711   3.530   5.061  0.6036  0.3653  0.2739
 6418TIP3    H140745   5.707   3.472   4.986  2.3276  0.7134 -0.1063
 6418TIP3    H240746   5.802   3.524   5.092  1.1948  3.8007 -0.5585
 6419TIP3   OH240747   2.472   1.990   1.138 -0.2726  0.2192  0.2164
 6419TIP3    H140748   2.379   2.009   1.126 -0.0753  0.2290 -1.3327
 6419TIP3    H240749   2.480   1.897   1.116 -0.0161  0.0524  0.9869
 6420TIP3   OH240750   4.107   3.247  10.618 -0.1746 -0.5878  0.9797
 6420TIP3    H140751   4.160   3.284  10.689  0.9938  0.9913 -0.6682
 6420TIP3    H240752   4.030   3.304  10.614 -1.0834 -1.7012  2.0688
 6421TIP3   OH240753   5.330   5.236  14.161  0.4028 -0.7364 -0.1846
 6421TIP3    H140754   5.280   5.175  14.106 -0.7005 -1.5034  1.6201
 6421TIP3    H240755   5.295   5.222  14.249  0.5090  2.1659  0.3454
 6422TIP3   OH240756   2.976   6.161  11.860  0.3350  0.2142 -0.3142
 6422TIP3    H140757   3.017   6.086  11.817  0.7639  0.3779 -0.1949
 6422TIP3    H240758   3.044   6.228  11.862  0.0273  0.5276 -0.2082
 6423TIP3   OH240759   6.079   1.989   1.673 -0.7456 -0.5037  0.0809
 6423TIP3    H140760   6.138   1.961   1.602  0.3857  1.5199  0.1789
 6423TIP3    H240761   6.118   1.951   1.751  0.6056  0.9902  0.1716
 6424TIP3   OH240762   4.475   4.364   1.096 -0.2276  0.8286  0.3933
 6424TIP3    H140763   4.563   4.327   1.086 -1.1891 -1.2659 -0.8123
 6424TIP3    H240764   4.463   4.371   1.191 -0.2905 -2.8362  0.7306
 6425TIP3   OH240765   3.316   0.755   4.435  0.1705 -0.0426 -0.0496
 6425TIP3    H140766   3.403   0.796   4.427 -0.1510  0.8456  0.7860
 6425TIP3    H240767   3.290   0.774   4.525 -0.0676 -1.9892  0.3094
 6426TIP3   OH240768   4.497   3.399  17.170  0.1344  0.2442  0.1874
 6426TIP3    H140769   4.546   3.445  17.238 -0.4423 -1.1332  1.5593
 6426TIP3    H240770   4.409   3.434  17.175 -0.0583 -0.2900  0.5629
 6427TIP3   OH240771   6.638   4.504   0.621 -0.0701  0.3316  0.3911
 6427TIP3    H140772   6.591   4.441   0.675  1.6570 -0.5367  0.9098
 6427TIP3    H240773   6.578   4.525   0.549 -0.0775 -3.1203 -0.6723
 6428TIP3   OH240774   1.316   3.369   5.331 -0.0957  0.2989  0.3616
 6428TIP3    H140775   1.256   3.302   5.362  0.9583  0.7652  3.5474
 6428TIP3    H240776   1.403   3.335   5.353  0.6150  1.3078 -0.8225
 6429TIP3   OH240777   2.356   2.464  13.007  0.0101 -0.4428  0.1300
 6429TIP3    H140778   2.370   2.407  13.083 -0.1927  0.0867  0.5648
 6429TIP3    H240779   2.262   2.484  13.010  0.0970 -0.0225  0.0213
 6430TIP3   OH240780   2.970   5.388  17.074  0.4989 -0.0645  0.2544
 6430TIP3    H140781   3.027   5.411  17.147  0.5927  0.6013 -0.0225
 6430TIP3    H240782   3.018   5.415  16.996  0.7577 -1.5324 -0.1109
 6431TIP3   OH240783   6.583   1.794   4.175 -0.3812  0.1507  0.4832
 6431TIP3    H140784   6.567   1.720   4.234 -2.9516 -0.6476 -1.1411
 6431TIP3    H240785   6.507   1.851   4.188 -0.0506  0.8626 -0.7010
 6432TIP3   OH240786   4.010   1.576   5.910 -0.1599 -0.2137 -0.4171
 6432TIP3    H140787   3.987   1.588   6.003  0.3473 -2.8801  0.0774
 6432TIP3    H240788   4.020   1.665   5.877 -0.7232  0.7926  1.9942
 6433TIP3   OH240789   3.268   3.825   0.497 -0.2728 -0.3695 -0.4670
 6433TIP3    H140790   3.215   3.879   0.438 -0.0891  0.1331 -0.1749
 6433TIP3    H240791   3.357   3.860   0.487 -0.4150  0.4241  0.9018
 6434TIP3   OH240792   0.805   3.560   0.407  0.1662  0.3243 -0.4050
 6434TIP3    H140793   0.728   3.604   0.444 -1.3344 -1.3943 -1.4374
 6434TIP3    H240794   0.805   3.585   0.315 -1.3391 -2.6177 -1.2710
 6435TIP3   OH240795   5.925   5.379   5.343 -0.2477 -0.2665  0.3129
 6435TIP3    H140796   5.904   5.438   5.416  2.0731  1.5849 -0.4357
 6435TIP3    H240797   5.862   5.308   5.351 -1.9243  1.3664  2.3876
 6436TIP3   OH240798   1.151   0.254   6.303 -0.3126  0.4296  0.4856
 6436TIP3    H140799   1.076   0.265   6.244 -1.0437  1.1415  1.5328
 6436TIP3    H240800   1.114   0.259   6.391  1.1028  2.0065  1.0373
 6437TIP3   OH240801   4.255   5.501  11.430  0.2393 -0.4575  0.4531
 6437TIP3    H140802   4.310   5.560  11.379  0.6451 -1.6912 -0.5617
 6437TIP3    H240803   4.299   5.493  11.514  0.8909 -0.3664  0.1232
 6438TIP3   OH240804   4.648   2.824  15.567  0.0523 -0.3026 -0.2438
 6438TIP3    H140805   4.591   2.757  15.603 -2.6436  2.1679  0.3260
 6438TIP3    H240806   4.710   2.844  15.638 -2.0115  0.9461  1.2827
 6439TIP3   OH240807   1.696   3.495  15.537 -0.2400 -0.0368 -0.7191
 6439TIP3    H140808   1.645   3.574  15.520 -2.5936 -0.8944  2.0417
 6439TIP3    H240809   1.659   3.429  15.478 -1.3734 -0.2826  0.2620
 6440TIP3   OH240810   4.905   0.131   3.774  0.5148  0.1317 -0.7413
 6440TIP3    H140811   4.874   0.059   3.828  0.8723  0.6131  0.1163
 6440TIP3    H240812   4.931   0.199   3.836 -0.2151  1.1690 -1.5466
 6441TIP3   OH240813   2.346   1.197  16.654 -0.1529  0.2099  0.3859
 6441TIP3    H140814   2.281   1.186  16.585  0.4369  0.8961 -0.2880
 6441TIP3    H240815   2.430   1.195  16.609  0.2572  0.2350  1.1375
 6442TIP3   OH240816   5.744   2.037   2.318 -0.0160 -0.0963 -0.1978
 6442TIP3    H140817   5.834   2.019   2.345  0.4239 -0.2817 -1.7502
 6442TIP3    H240818   5.702   2.074   2.396  1.3499 -0.1789  0.5820
 6443TIP3   OH240819   5.027   1.942  10.995  0.2922  0.5418 -0.4594
 6443TIP3    H140820   5.050   2.035  11.003 -1.5125  1.0853 -1.2523
 6443TIP3    H240821   5.054   1.918  10.907  1.5693  0.0588  0.0526
 6444TIP3   OH240822   6.060   5.642   4.043 -0.5847 -0.3243  0.1609
 6444TIP3    H140823   6.111   5.708   4.089 -0.5605  0.1921 -0.5922
 6444TIP3    H240824   6.103   5.634   3.958 -1.7133  0.0583 -0.4494
 6445TIP3   OH240825   1.470   5.449   5.089 -0.3813 -0.2308  0.7314
 6445TIP3    H140826   1.503   5.389   5.022  0.5380  1.0278  0.0294
 6445TIP3    H240827   1.545   5.464   5.146 -1.0539 -0.9856  1.8091
 6446TIP3   OH240828   2.371   6.314   0.279  0.1710 -0.9927  0.1155
 6446TIP3    H140829   2.347   6.288   0.368 -0.8404 -0.6358 -0.0410
 6446TIP3    H240830   2.287   6.334   0.236  0.7464  0.2714 -0.4628
 6447TIP3   OH240831   4.659   5.105   3.502  0.2513  0.2608 -0.0334
 6447TIP3    H140832   4.599   5.090   3.574  0.2998 -1.6005 -0.3566
 6447TIP3    H240833   4.730   5.156   3.541  0.4933 -1.0860  1.3686
 6448TIP3   OH240834   0.278   4.812   5.241  0.1566 -0.3356 -0.4327
 6448TIP3    H140835   0.252   4.902   5.262  1.7344  0.3977 -1.4815
 6448TIP3    H240836   0.315   4.818   5.153  1.9841 -1.6721  0.2141
 6449TIP3   OH240837   5.331   3.455  13.491  0.5787  0.6367 -0.7533
 6449TIP3    H140838   5.421   3.459  13.521  0.1587 -0.6644  0.7266
 6449TIP3    H240839   5.287   3.527  13.537 -0.0576 -1.3380  1.7857
 6450TIP3   OH240840   6.598   2.571   5.574 -0.3617 -0.0363 -0.4557
 6450TIP3    H140841   6.537   2.586   5.647 -0.2430  0.0489 -0.3711
 6450TIP3    H240842   6.596   2.653   5.525 -1.0186 -0.3620 -0.9842
 6451TIP3   OH240843   3.645   1.199  15.696 -0.0475  0.1294 -0.0352
 6451TIP3    H140844   3.581   1.268  15.681  0.8281  0.9936  0.1211
 6451TIP3    H240845   3.725   1.246  15.720  0.1554 -1.0089  1.5254
 6452TIP3   OH240846   1.925   2.706   1.376  0.3653 -0.2906 -0.5036
 6452TIP3    H140847   1.871   2.754   1.439 -0.8731  0.1004 -1.8332
 6452TIP3    H240848   1.864   2.644   1.334  1.1239 -0.4291 -1.4182
 6453TIP3   OH240849   3.206   3.275   4.636  0.0890  0.0247 -0.0347
 6453TIP3    H140850   3.267   3.254   4.707  0.9445  1.0489 -0.4486
 6453TIP3    H240851   3.194   3.370   4.643 -0.4055  0.0178 -0.7900
 6454TIP3   OH240852   6.354   1.058  11.816  0.0770 -0.0920  0.1674
 6454TIP3    H140853   6.382   0.992  11.881  0.6466 -0.4200 -0.4055
 6454TIP3    H240854   6.371   1.142  11.859 -0.0587 -0.3140  0.6606
 6455TIP3   OH240855   2.377   0.097   2.637  0.1412  0.2582  0.5743
 6455TIP3    H140856   2.376   0.193   2.631 -0.2820  0.3347  1.7607
 6455TIP3    H240857   2.391   0.068   2.547 -1.0657  1.4072 -0.0104
 6456TIP3   OH240858   6.721   5.510  16.366 -0.1614 -0.5648  0.2356
 6456TIP3    H140859   6.654   5.539  16.428 -1.7852 -1.1680 -1.1620
 6456TIP3    H240860   6.693   5.422  16.340  2.3509 -1.6909  1.2018
 6457TIP3   OH240861   0.160   6.641  14.054  0.4182 -0.5793  0.1857
 6457TIP3    H140862   0.227   6.588  14.011  0.8516  0.0697  0.0485
 6457TIP3    H240863   0.128   6.586  14.126  1.1222 -0.8762  0.2750
 6458TIP3   OH240864   6.271   2.743  14.452  0.0339  0.4680  0.0150
 6458TIP3    H140865   6.177   2.761  14.448 -0.2697 -1.0541  0.1804
 6458TIP3    H240866   6.312   2.828  14.436 -1.3592  0.9601 -1.0183
 6459TIP3   OH240867   1.482   0.729   5.358 -0.0450  0.8357 -1.0610
 6459TIP3    H140868   1.503   0.668   5.288 -1.4931 -0.1130 -0.6768
 6459TIP3    H240869   1.526   0.811   5.333  0.8347  0.0174 -2.2147
 6460TIP3   OH240870   0.416   4.812   4.090 -0.3024  0.1011  0.0699
 6460TIP3    H140871   0.340   4.870   4.086  0.1098  0.5579 -1.1485
 6460TIP3    H240872   0.454   4.815   4.002  0.5993 -0.8386  0.4152
 6461TIP3   OH240873   5.096   6.370  13.085 -0.5551  0.1619 -0.2455
 6461TIP3    H140874   5.151   6.402  13.156  0.0304  1.1984 -1.1548
 6461TIP3    H240875   5.008   6.366  13.123 -0.2621  0.7657  0.5127
 6462TIP3   OH240876   1.879   0.297  12.522 -0.0256  0.4475 -0.1720
 6462TIP3    H140877   1.798   0.281  12.571 -0.7444 -0.5995 -1.6459
 6462TIP3    H240878   1.857   0.368  12.462  0.0486 -0.0665 -0.8072
 6463TIP3   OH240879   0.165   4.555  13.857 -0.2736  0.0389 -0.4996
 6463TIP3    H140880   0.244   4.552  13.911 -0.9540  0.6836  0.5487
 6463TIP3    H240881   0.193   4.524  13.771  1.3635  1.2824 -0.4393
 6464TIP3   OH240882   6.370   1.577  12.192 -0.0338  0.5493  0.3685
 6464TIP3    H140883   6.375   1.616  12.105  0.6429  0.4797  0.3706
 6464TIP3    H240884   6.283   1.537  12.195 -1.0105  2.6090  0.6091
 6465TIP3   OH240885   2.790   4.977   1.586 -0.1614  0.4978  0.0890
 6465TIP3    H140886   2.761   5.053   1.637  0.2042  2.3276 -2.3519
 6465TIP3    H240887   2.719   4.961   1.524 -0.3685 -1.3809  0.7747
 6466TIP3   OH240888   5.269   6.628  13.028  0.1522 -0.1802 -0.1706
 6466TIP3    H140889   5.216   6.680  13.088  0.4278 -2.0748  1.7624
 6466TIP3    H240890   5.207   6.598  12.961 -0.5550  0.3227  0.2536
 6467TIP3   OH240891   5.844   6.602   4.890 -0.4907  0.3085 -0.3296
 6467TIP3    H140892   5.849   6.526   4.947  1.1742  2.0569  1.9534
 6467TIP3    H240893   5.911   6.586   4.823  1.3351  0.6682  1.3538
 6468TIP3   OH240894   6.110   0.434  16.345 -0.2229 -0.0544  0.8770
 6468TIP3    H140895   6.181   0.405  16.288 -1.5090 -0.2805 -0.6134
 6468TIP3    H240896   6.102   0.365  16.411 -1.0570 -1.4972 -0.7141
 6469TIP3   OH240897   5.513   6.104  11.693 -0.1893 -0.2397  0.1908
 6469TIP3    H140898   5.481   6.076  11.607 -1.6209  2.1716 -0.1038
 6469TIP3    H240899   5.588   6.160  11.673 -0.2392 -0.0525  0.5370
 6470TIP3   OH240900   6.271   1.286  12.204 -0.2605 -0.2735  1.1372
 6470TIP3    H140901   6.342   1.251  12.258 -0.3931  1.1688  2.2839
 6470TIP3    H240902   6.309   1.292  12.116  0.6930 -0.5228  1.5169
 6471TIP3   OH240903   4.576   5.368   0.021 -0.1410 -0.1185 -0.2025
 6471TIP3    H140904   4.570   5.331   0.110 -1.0800  1.8764  0.5972
 6471TIP3    H240905   4.512   5.439   0.021 -0.4014 -0.3286 -2.6153
 6472TIP3   OH240906   1.179   2.271  13.267 -0.5337  0.9331  0.4234
 6472TIP3    H140907   1.172   2.366  13.255  0.6047  0.7614 -2.0175
 6472TIP3    H240908   1.133   2.235  13.192  1.6036 -0.3850 -0.3097
 6473TIP3   OH240909   1.055   1.986   3.961 -0.6513 -0.0072 -0.3439
 6473TIP3    H140910   0.997   1.915   3.987 -0.9162  0.5902  0.7011
 6473TIP3    H240911   1.027   2.061   4.014 -0.4453  0.9080 -1.5047
 6474TIP3   OH240912   0.697   6.817  16.695 -0.5229 -0.4942 -0.7922
 6474TIP3    H140913   0.690   6.722  16.704 -2.4026 -0.3750 -0.8290
 6474TIP3    H240914   0.698   6.851  16.784  1.6048 -0.6143 -0.7377
 6475TIP3   OH240915   4.240   2.645   4.658 -0.0848 -0.3707 -0.4666
 6475TIP3    H140916   4.247   2.555   4.626 -2.6660 -1.1645  1.0686
 6475TIP3    H240917   4.325   2.663   4.697  0.6289 -1.9718 -1.2397
 6476TIP3   OH240918   4.993   0.053   0.667 -0.0200 -0.2022 -0.0920
 6476TIP3    H140919   4.964   0.106   0.741 -0.7049 -1.7749  0.7898
 6476TIP3    H240920   5.066   0.102   0.630 -0.6845  1.3867  0.6460
 6477TIP3   OH240921   6.193   5.255  13.506 -0.0137  0.2793  0.0632
 6477TIP3    H140922   6.219   5.345  13.524 -0.5864  0.5726 -0.5439
 6477TIP3    H240923   6.198   5.211  13.591 -0.9399  1.1924  0.6063
 6478TIP3   OH240924   3.718   0.164  16.565  0.4263  0.2117  0.3864
 6478TIP3    H140925   3.726   0.077  16.527 -0.0489  0.5116 -0.4086
 6478TIP3    H240926   3.735   0.151  16.658 -1.0007 -0.9517  0.5115
 6479TIP3   OH240927   2.517   5.526  13.693  0.4446 -0.0761  0.4843
 6479TIP3    H140928   2.449   5.579  13.734  3.0058  2.8715  1.1086
 6479TIP3    H240929   2.592   5.533  13.752  1.3657 -3.2519 -0.1745
 6480TIP3   OH240930   2.906   3.426   1.079 -0.2457 -0.3386  0.1833
 6480TIP3    H140931   2.818   3.451   1.105 -0.8990 -1.5287 -0.8361
 6480TIP3    H240932   2.903   3.331   1.073  1.0561 -0.3753 -0.0498
 6481TIP3   OH240933   2.857   2.937   1.088  0.4190 -0.3018  0.8965
 6481TIP3    H140934   2.880   2.857   1.041  0.0421 -0.5973  1.2025
 6481TIP3    H240935   2.914   2.936   1.166  0.9513  0.1198  0.5147
 6482TIP3   OH240936   0.351   5.892   3.369 -0.3567 -0.4574  0.2996
 6482TIP3    H140937   0.393   5.961   3.318  0.6362 -0.7435  0.7183
 6482TIP3    H240938   0.289   5.852   3.308  2.3259 -2.2255 -1.4004
 6483TIP3   OH240939   3.212   2.862   1.071 -0.7808 -0.4465 -0.0902
 6483TIP3    H140940   3.267   2.927   1.028 -0.3164 -0.4947  0.4314
 6483TIP3    H240941   3.170   2.815   0.998 -0.2633 -0.3050 -0.4837
 6484TIP3   OH240942   0.731   4.753   2.110 -0.4171 -0.0031  0.5328
 6484TIP3    H140943   0.751   4.661   2.092 -0.9577 -0.1760  0.7932
 6484TIP3    H240944   0.817   4.795   2.120 -0.1640 -0.3739 -0.0998
 6485TIP3   OH240945   5.438   0.333   0.431 -0.4635 -0.0834  0.1954
 6485TIP3    H140946   5.384   0.412   0.438 -1.1842 -0.5617  0.0500
 6485TIP3    H240947   5.386   0.265   0.473  0.0646 -0.5346  0.1248
 6486TIP3   OH240948   2.680   2.675   1.527  0.0611 -0.1803  0.1701
 6486TIP3    H140949   2.630   2.595   1.507 -1.0636  0.2485  1.1722
 6486TIP3    H240950   2.736   2.650   1.600  0.4663 -0.3453 -0.1996
 6487TIP3   OH240951   0.093   3.959  12.634  0.2770  0.4206  0.3245
 6487TIP3    H140952   0.095   4.044  12.591  1.1899  0.0865 -0.3043
 6487TIP3    H240953   0.180   3.922  12.619 -0.2936 -0.8658  0.1094
 6488TIP3   OH240954   2.044   4.327  17.007 -0.2087  0.2251 -0.0618
 6488TIP3    H140955   2.032   4.360  16.918  1.3467 -0.9579 -0.7349
 6488TIP3    H240956   2.130   4.359  17.034  0.6062 -1.8320 -0.1062
 6489TIP3   OH240957   5.463   4.356   4.008 -0.0332 -0.4696  0.5598
 6489TIP3    H140958   5.416   4.288   4.056  1.8467 -0.4442  2.5497
 6489TIP3    H240959   5.433   4.347   3.918 -0.7517 -3.1400  1.0103
 6490TIP3   OH240960   1.765   2.436  15.600 -0.0102 -0.0641  0.2624
 6490TIP3    H140961   1.710   2.501  15.556  0.1102 -0.5545 -0.6150
 6490TIP3    H240962   1.719   2.419  15.682  0.0879  1.3139  0.6169
 6491TIP3   OH240963   1.925   4.379  12.847 -0.6662 -0.3388 -0.1932
 6491TIP3    H140964   1.832   4.367  12.828 -1.6202  0.9260  3.3550
 6491TIP3    H240965   1.932   4.366  12.941  2.8778 -0.9504 -0.4851
 6492TIP3   OH240966   4.138   1.231  17.188 -0.0684 -0.4459  0.3624
 6492TIP3    H140967   4.072   1.300  17.180  1.6078  1.0711 -0.5443
 6492TIP3    H240968   4.216   1.266  17.145  1.4070 -2.1475  1.5599
 6493TIP3   OH240969   1.565   2.988  16.996  0.5438 -0.2357 -0.5015
 6493TIP3    H140970   1.579   2.898  17.025  1.4782  0.0329 -0.0857
 6493TIP3    H240971   1.490   3.019  17.046  1.1745 -0.2920  0.4819
 6494TIP3   OH240972   5.075   6.110  12.461 -0.2044  0.7372  0.1595
 6494TIP3    H140973   5.072   6.154  12.376 -0.9137 -1.7233 -1.1525
 6494TIP3    H240974   5.167   6.111  12.485  0.2640 -0.0376 -1.5038
 6495TIP3   OH240975   4.773   6.798   2.740 -0.6344 -0.3239  0.1364
 6495TIP3    H140976   4.715   6.757   2.805 -1.3540  0.8605  0.2599
 6495TIP3    H240977   4.825   6.860   2.791  1.0333 -1.6713  0.0899
 6496TIP3   OH240978   0.758   3.982   2.746 -0.6605 -0.0043  0.1012
 6496TIP3    H140979   0.817   4.052   2.716  1.0922 -1.2146  0.6468
 6496TIP3    H240980   0.679   3.993   2.693 -0.5000  2.5105  0.3214
 6497TIP3   OH240981   3.122   5.806  15.965  0.2366 -0.3555 -0.8839
 6497TIP3    H140982   3.028   5.810  15.951  0.5110  1.6708 -2.4323
 6497TIP3    H240983   3.151   5.733  15.910 -0.2320  0.1115 -1.7710
 6498TIP3   OH240984   6.374   3.886   5.186  0.2030  0.3001  0.3869
 6498TIP3    H140985   6.335   3.831   5.118 -1.3893 -0.5809  1.9432
 6498TIP3    H240986   6.331   3.971   5.176 -0.9079 -0.1750  1.0252
 6499TIP3   OH240987   4.739   2.851   1.723 -0.4112  0.0540  0.4836
 6499TIP3    H140988   4.738   2.942   1.694  2.5271 -0.5756 -1.8252
 6499TIP3    H240989   4.654   2.839   1.766 -1.3613  3.5129 -0.2514
 6500TIP3   OH240990   3.373   6.186   3.522 -0.2450 -0.5298  0.1210
 6500TIP3    H140991   3.357   6.122   3.453 -1.8096  0.6206 -0.5977
 6500TIP3    H240992   3.456   6.159   3.561  1.6396 -0.0891 -3.4377
 6501TIP3   OH240993   6.236   0.554  13.583  0.0098  0.2462  0.5059
 6501TIP3    H140994   6.199   0.485  13.528  0.0327  0.6760 -0.0678
 6501TIP3    H240995   6.226   0.633  13.530  0.9474  0.5067  0.7120
 6502TIP3   OH240996   3.906   1.975  13.470 -0.2491 -0.0296  0.0082
 6502TIP3    H140997   3.838   2.039  13.448 -1.0542 -1.2501 -1.0227
 6502TIP3    H240998   3.870   1.891  13.446  1.5788 -0.7187 -0.4084
 6503TIP3   OH240999   1.637   4.656  17.008 -0.0405 -0.0346  0.9191
 6503TIP3    H141000   1.682   4.590  16.955  1.0973 -0.7122  2.6672
 6503TIP3    H241001   1.664   4.740  16.970 -0.1494 -0.5204 -0.2576
 6504TIP3   OH241002   0.902   0.908   3.230  0.1444 -0.0429  0.4999
 6504TIP3    H141003   0.988   0.891   3.267  0.2600  2.2815  1.4225
 6504TIP3    H241004   0.845   0.922   3.305 -1.2492 -2.3908 -0.0864
 6505TIP3   OH241005   4.307   3.273  13.609  0.1301  0.3988  0.4783
 6505TIP3    H141006   4.402   3.262  13.612  0.0795 -0.3205 -0.5233
 6505TIP3    H241007   4.289   3.341  13.675  1.4287  1.2227 -0.0037
 6506TIP3   OH241008   0.107   0.610   4.532 -0.0149  0.3999 -0.0665
 6506TIP3    H141009   0.047   0.617   4.458  0.4814  0.7498 -0.4416
 6506TIP3    H241010   0.085   0.526   4.573  0.1436 -0.1135 -1.0008
 6507TIP3   OH241011   1.759   1.747  12.015 -0.1518  0.0312  0.3906
 6507TIP3    H141012   1.676   1.705  11.991 -0.1030  0.0609  0.1657
 6507TIP3    H241013   1.742   1.787  12.100 -0.7692  1.2011 -0.2815
 6508TIP3   OH241014   6.519   0.884   3.508 -0.1753 -0.3169 -0.0171
 6508TIP3    H141015   6.524   0.790   3.495 -0.9046 -0.2516 -0.8402
 6508TIP3    H241016   6.607   0.909   3.537  0.7379 -0.9104 -2.1659
 6509TIP3   OH241017   2.300   2.036   0.165  0.5700 -0.1873  0.2295
 6509TIP3    H141018   2.235   2.001   0.103  1.5645 -1.0442 -0.3446
 6509TIP3    H241019   2.275   1.997   0.249 -0.2279  0.2421  0.1978
 6510TIP3   OH241020   1.053   1.023   3.014 -0.2140  0.1485  0.2278
 6510TIP3    H141021   1.096   0.937   3.013  0.1444  0.3207  0.4962
 6510TIP3    H241022   0.984   1.015   3.080 -0.8727 -0.2607 -0.5044
 6511TIP3   OH241023   2.881   0.917   2.290  0.1982  0.2801  0.2637
 6511TIP3    H141024   2.844   0.958   2.211 -1.6962  0.5024  1.2442
 6511TIP3    H241025   2.871   0.823   2.274 -0.3897  0.3292  0.3369
 6512TIP3   OH241026   5.539   2.316  10.515 -0.6629 -0.7472 -0.7498
 6512TIP3    H141027   5.577   2.371  10.447  0.7840 -0.5606  0.2033
 6512TIP3    H241028   5.447   2.308  10.490  0.4049 -3.1405 -4.3876
 6513TIP3   OH241029   1.680   1.847   2.177 -0.0460  0.4884  0.2257
 6513TIP3    H141030   1.723   1.874   2.258  0.9596 -0.7915  0.1230
 6513TIP3    H241031   1.674   1.752   2.183  0.1370  0.3734 -1.2443
 6514TIP3   OH241032   4.888   2.582  11.222  0.0488  0.2666  0.1361
 6514TIP3    H141033   4.861   2.584  11.313 -0.2692  0.8969  0.0336
 6514TIP3    H241034   4.974   2.540  11.223 -0.9737 -1.8881  0.4358
 6515TIP3   OH241035   1.001   0.178   2.919 -0.0215  0.1861 -0.0931
 6515TIP3    H141036   0.927   0.152   2.865  0.8074 -1.8803 -0.2949
 6515TIP3    H241037   0.963   0.196   3.005 -0.9227  0.3795 -0.5326
 6516TIP3   OH241038   3.522   0.465  12.679 -0.6214  0.3660 -0.6010
 6516TIP3    H141039   3.478   0.512  12.609 -2.7751 -0.0369  0.4559
 6516TIP3    H241040   3.473   0.384  12.689 -0.2826  0.3632  1.2955
 6517TIP3   OH241041   6.071   2.687   5.758 -0.3399 -0.3660 -0.0469
 6517TIP3    H141042   6.059   2.632   5.680 -0.0935 -1.7963  0.9182
 6517TIP3    H241043   5.985   2.729   5.770 -0.4849 -0.4071 -0.8807
 6518TIP3   OH241044   4.466   1.937  11.014 -0.2995  0.2320 -0.8672
 6518TIP3    H141045   4.552   1.954  10.975 -0.4158  0.1613 -1.1561
 6518TIP3    H241046   4.473   1.972  11.103  1.0901 -2.7103  0.2299
 6519TIP3   OH241047   6.725   3.170  16.260 -0.0851 -0.3877  0.6523
 6519TIP3    H141048   6.714   3.249  16.208 -0.4887  0.6800  2.3343
 6519TIP3    H241049   6.810   3.134  16.232 -0.3556  0.0996 -0.8082
 6520TIP3   OH241050   3.860   2.318   1.792 -0.2181  0.5033  0.4234
 6520TIP3    H141051   3.770   2.322   1.759  0.1600  3.0999 -0.4155
 6520TIP3    H241052   3.853   2.272   1.875 -2.4061  1.1914  0.6562
 6521TIP3   OH241053   6.714   5.919   1.529 -0.7028 -0.2946 -0.4200
 6521TIP3    H141054   6.701   5.849   1.593 -3.1227  1.4611  1.1104
 6521TIP3    H241055   6.806   5.945   1.540 -0.8056 -0.7165  1.6402
 6522TIP3   OH241056   5.304   2.155   2.957  0.6306 -0.7959  0.0455
 6522TIP3    H141057   5.367   2.112   3.015 -1.0345 -3.5770 -0.1210
 6522TIP3    H241058   5.220   2.150   3.003  0.4480  2.8487  0.2627
 6523TIP3   OH241059   5.476   0.785   0.060 -0.3587  0.4560  0.0728
 6523TIP3    H141060   5.450   0.694   0.076  2.5485 -0.4420  0.0246
 6523TIP3    H241061   5.504   0.817   0.146  0.5624  0.6330 -0.2900
 6524TIP3   OH241062   2.222   1.224   2.750  0.0113  0.6491 -0.6664
 6524TIP3    H141063   2.311   1.224   2.715 -0.1669 -0.9343 -1.1591
 6524TIP3    H241064   2.234   1.230   2.845  0.7073 -0.8707 -0.6405
 6525TIP3   OH241065   4.464   4.564  14.232 -0.3863 -0.0243  0.2091
 6525TIP3    H141066   4.410   4.630  14.276  0.3689 -0.5834  2.0361
 6525TIP3    H241067   4.514   4.523  14.303  1.8618 -0.0467 -1.3434
 6526TIP3   OH241068   4.424   3.455   0.289  0.0087  0.7728  0.9963
 6526TIP3    H141069   4.515   3.474   0.314  0.2380  0.6337  0.2934
 6526TIP3    H241070   4.392   3.537   0.253  0.2937  0.4617  0.0017
 6527TIP3   OH241071   0.940   4.209   0.684  0.5365 -0.1007  0.3142
 6527TIP3    H141072   0.931   4.293   0.638  1.3160 -0.3219 -0.2599
 6527TIP3    H241073   1.026   4.176   0.657 -0.2638 -1.6548 -0.4043
 6528TIP3   OH241074   5.390   6.104   4.723 -0.3468 -0.2573  0.1883
 6528TIP3    H141075   5.432   6.178   4.766 -0.7017 -0.3570  0.7045
 6528TIP3    H241076   5.462   6.054   4.685 -0.1077  0.3608 -0.1841
 6529TIP3   OH241077   0.813   4.777  12.773  0.7602  0.2888 -0.2359
 6529TIP3    H141078   0.743   4.835  12.742 -2.1611 -2.0948  1.5488
 6529TIP3    H241079   0.832   4.808  12.861 -1.8186 -2.1415  1.2835
 6530TIP3   OH241080   6.416   2.606   3.461  0.3950  0.3691  0.2264
 6530TIP3    H141081   6.493   2.636   3.413  0.5313 -0.2785  0.0408
 6530TIP3    H241082   6.404   2.672   3.530  1.0649  0.5136  0.2087
 6531TIP3   OH241083   1.905   3.638  14.960  0.1010 -0.1602  0.1250
 6531TIP3    H141084   1.810   3.637  14.966  0.1034  1.4608  0.7620
 6531TIP3    H241085   1.934   3.573  15.025 -0.5387  0.2205  0.8021
 6532TIP3   OH241086   4.990   3.468  16.518 -0.2297 -0.0152  0.2738
 6532TIP3    H141087   5.064   3.522  16.544  0.2842 -1.3615  1.7248
 6532TIP3    H241088   5.017   3.429  16.434 -0.0769  0.9414 -0.1277
 6533TIP3   OH241089   1.589   1.626   0.914 -0.5875 -0.2525  0.0180
 6533TIP3    H141090   1.656   1.558   0.914 -0.8735 -0.5252  0.9811
 6533TIP3    H241091   1.614   1.683   0.841  0.7139 -0.3312  0.3955
 6534TIP3   OH241092   5.043   6.251  16.900 -0.0990  0.7520  0.0911
 6534TIP3    H141093   5.080   6.297  16.975 -3.1455  3.4380  0.0739
 6534TIP3    H241094   5.005   6.171  16.938  0.2721  1.0164  1.0502
 6535TIP3   OH241095   4.035   2.358   1.572 -0.2399  0.2995 -0.7417
 6535TIP3    H141096   4.110   2.309   1.606 -1.1878  0.0654  1.1098
 6535TIP3    H241097   3.970   2.352   1.642 -1.8076  0.8917 -2.1318
 6536TIP3   OH241098   1.885   4.082  12.207 -0.1224 -0.2117 -0.3121
 6536TIP3    H141099   1.952   4.074  12.275  0.1395  1.3149 -0.3587
 6536TIP3    H241100   1.907   4.164  12.162 -2.3643  0.6472  0.0776
 6537TIP3   OH241101   6.258   5.400   2.688  0.3516 -0.2381 -0.0178
 6537TIP3    H141102   6.276   5.448   2.608 -0.8977  0.0984 -0.1064
 6537TIP3    H241103   6.195   5.455   2.736  0.6943 -0.6749  0.9561
 6538TIP3   OH241104   4.697   3.641  13.491  1.0244  0.0351  0.1301
 6538TIP3    H141105   4.732   3.557  13.522 -0.7863 -0.9352 -0.3992
 6538TIP3    H241106   4.622   3.617  13.437  0.3316  2.0214  0.1803
 6539TIP3   OH241107   1.394   4.520  11.446  0.0434  0.2439  0.3617
 6539TIP3    H141108   1.407   4.603  11.492 -0.2698 -0.5313  1.8666
 6539TIP3    H241109   1.461   4.462  11.482 -0.7617 -0.6209  0.4586
 6540TIP3   OH241110   0.513   1.794  12.664 -0.3740 -0.6658 -0.2121
 6540TIP3    H141111   0.462   1.804  12.744  0.1116  0.4970 -0.0319
 6540TIP3    H241112   0.448   1.772  12.596 -0.8136 -1.4076  0.4416
 6541TIP3   OH241113   5.284   5.346   4.164  0.2118 -0.2028 -0.4645
 6541TIP3    H141114   5.274   5.310   4.075 -0.9646 -0.2819 -0.3000
 6541TIP3    H241115   5.326   5.275   4.213  0.7406 -0.2092 -0.9163
 6542TIP3   OH241116   4.443   1.674   4.356  0.1702  0.1850  0.8579
 6542TIP3    H141117   4.455   1.625   4.275 -1.1484  0.5096  0.4669
 6542TIP3    H241118   4.503   1.632   4.418  0.5279 -0.6275 -0.0259
 6543TIP3   OH241119   0.754   1.872  16.170  0.5680 -0.3112 -0.3594
 6543TIP3    H141120   0.831   1.919  16.137  0.8415 -0.6969 -0.2813
 6543TIP3    H241121   0.781   1.840  16.256 -0.1179  0.6214  0.2042
 6544TIP3   OH241122   2.058   6.437  11.521 -0.0259 -0.1152 -0.0973
 6544TIP3    H141123   2.043   6.345  11.498 -0.1896 -0.3885  1.0521
 6544TIP3    H241124   2.030   6.486  11.444  2.5819 -1.1580 -1.7427
 6545TIP3   OH241125   3.442   5.186   3.375  0.1634  0.1595  0.0761
 6545TIP3    H141126   3.505   5.173   3.446  0.9702 -0.1204 -0.6817
 6545TIP3    H241127   3.488   5.157   3.296 -1.2624 -0.9804 -0.3586
 6546TIP3   OH241128   2.012   3.463   3.175 -0.1020 -0.9521  0.0693
 6546TIP3    H141129   2.012   3.521   3.099 -1.9731  0.1585  0.8759
 6546TIP3    H241130   1.968   3.384   3.144 -0.5773 -0.6270 -0.0901
 6547TIP3   OH241131   1.645   1.008  13.173  0.3109 -1.0072 -0.4528
 6547TIP3    H141132   1.650   0.947  13.247  0.7094 -1.1454 -0.5914
 6547TIP3    H241133   1.594   1.082  13.206  3.4181  0.5501  1.1234
 6548TIP3   OH241134   0.045   1.077   5.312  0.4282 -0.4752 -0.4424
 6548TIP3    H141135   0.043   1.170   5.291  1.1230 -0.4838 -0.5746
 6548TIP3    H241136   0.115   1.041   5.257 -0.2106 -1.1815 -0.8055
 6549TIP3   OH241137   5.018   4.794   2.796 -0.7242  0.2566  0.5796
 6549TIP3    H141138   5.000   4.866   2.736 -0.6527 -0.4918 -0.3469
 6549TIP3    H241139   4.982   4.823   2.880  1.4778  2.3972  0.8106
 6550TIP3   OH241140   6.782   4.215   3.897  0.2188 -0.0222 -0.8825
 6550TIP3    H141141   6.846   4.167   3.951 -1.2572 -1.1805 -0.1302
 6550TIP3    H241142   6.831   4.239   3.818  1.9636  0.3159  0.2811
 6551TIP3   OH241143   3.920   0.419  14.789 -0.5276 -0.5252  0.4911
 6551TIP3    H141144   3.826   0.430  14.804 -0.2439  3.5534 -0.2385
 6551TIP3    H241145   3.958   0.416  14.877 -1.0777  0.5285  0.7615
 6552TIP3   OH241146   1.310   1.875   0.303 -0.7598  0.5085  0.3539
 6552TIP3    H141147   1.375   1.818   0.343 -0.9388 -1.1939 -1.6641
 6552TIP3    H241148   1.338   1.963   0.325  3.7463 -0.0242 -2.5426
 6553TIP3   OH241149   2.440   2.015  10.849  0.4199  0.1986  0.0028
 6553TIP3    H141150   2.421   1.960  10.774 -1.8480  0.6345  0.2291
 6553TIP3    H241151   2.516   2.067  10.822  0.6727 -0.8523 -1.3323
 6554TIP3   OH241152   3.020   4.296   2.073 -0.5915  0.4062 -0.0465
 6554TIP3    H141153   3.013   4.345   2.155  1.0990  0.3689  0.1258
 6554TIP3    H241154   3.110   4.311   2.043 -0.0427 -2.5698 -0.0226
 6555TIP3   OH241155   6.349   2.435   6.055  0.2049 -0.2986  0.2064
 6555TIP3    H141156   6.272   2.491   6.044  0.2052 -0.6567 -1.7343
 6555TIP3    H241157   6.363   2.432   6.150 -1.2114  1.0585  0.4749
 6556TIP3   OH241158   2.824   6.124   5.980  0.2616 -0.3475 -0.7018
 6556TIP3    H141159   2.915   6.152   5.992 -0.5337  1.4149  1.6109
 6556TIP3    H241160   2.801   6.081   6.062 -0.9359 -0.9497 -1.3447
 6557TIP3   OH241161   6.266   6.524   1.394 -0.1208  0.1115 -0.1301
 6557TIP3    H141162   6.285   6.530   1.487  1.4932 -0.0665 -0.4356
 6557TIP3    H241163   6.176   6.491   1.390 -0.4662  0.8387  1.3515
 6558TIP3   OH241164   2.966   2.735   1.483 -0.3274  0.0985  0.2807
 6558TIP3    H141165   2.919   2.665   1.436  0.0973  0.8512 -1.3269
 6558TIP3    H241166   2.901   2.805   1.491 -0.5353 -0.2034  1.2381
 6559TIP3   OH241167   1.398   6.113  15.461 -0.1102  1.2472  0.0412
 6559TIP3    H141168   1.356   6.040  15.416  0.5358  0.3325  0.8999
 6559TIP3    H241169   1.349   6.122  15.543  0.2611  1.2985  0.2578
 6560TIP3   OH241170   1.072   2.865  11.698 -0.3233  0.4709 -0.2836
 6560TIP3    H141171   0.985   2.894  11.671 -0.3046  0.1655 -0.6774
 6560TIP3    H241172   1.097   2.800  11.632 -0.5650 -0.7719  0.8287
 6561TIP3   OH241173   1.611   5.681  16.928  0.0369 -0.0728 -0.2873
 6561TIP3    H141174   1.587   5.643  17.013  0.2732 -0.1237 -0.2412
 6561TIP3    H241175   1.529   5.716  16.893  0.1525  0.9788  0.4768
 6562TIP3   OH241176   3.141   4.943   5.057  0.1662  0.3826 -0.2423
 6562TIP3    H141177   3.175   4.861   5.092  0.2776  0.0005 -1.2350
 6562TIP3    H241178   3.092   4.982   5.130  0.8375 -0.1439  0.4956
 6563TIP3   OH241179   3.064   3.446   4.923 -0.3007  0.1354 -0.4549
 6563TIP3    H141180   3.058   3.443   4.827 -0.4305 -0.6012 -0.4254
 6563TIP3    H241181   3.124   3.519   4.940 -1.6383  1.3916 -1.0350
 6564TIP3   OH241182   1.330   4.323  13.164  0.0823 -0.1991 -0.0930
 6564TIP3    H141183   1.318   4.327  13.259  0.3244  0.6860 -0.0964
 6564TIP3    H241184   1.244   4.344  13.128 -0.2722 -1.5712 -0.0680
 6565TIP3   OH241185   0.722   3.838   2.467  0.2540  0.4014 -0.3116
 6565TIP3    H141186   0.762   3.871   2.548 -0.1278  0.3018 -0.0817
 6565TIP3    H241187   0.671   3.913   2.435 -0.7145  0.0037  0.2766
 6566TIP3   OH241188   2.299   1.782  11.328 -0.4515 -0.8911 -0.3330
 6566TIP3    H141189   2.216   1.758  11.286 -0.0594 -0.9231 -1.0885
 6566TIP3    H241190   2.342   1.840  11.266 -0.4392  0.1015  0.5795
 6567TIP3   OH241191   0.934   2.323   3.824 -0.0507 -0.7264  0.1726
 6567TIP3    H141192   0.939   2.380   3.747 -0.5320  0.4253  0.9787
 6567TIP3    H241193   0.872   2.254   3.799 -2.5899  1.3369  0.5667
 6568TIP3   OH241194   0.022   6.684  16.605 -0.0943  0.2979  0.0179
 6568TIP3    H141195   0.055   6.633  16.679 -2.1519 -0.9788  0.0990
 6568TIP3    H241196   0.047   6.634  16.528  0.3619  0.6375 -0.0584
 6569TIP3   OH241197   2.825   3.161   0.916 -0.4055 -0.1747 -0.3750
 6569TIP3    H141198   2.848   3.085   0.969 -1.1052  0.8999  1.4914
 6569TIP3    H241199   2.885   3.157   0.841  0.5908 -1.6982  0.4812
 6570TIP3   OH241200   4.485   2.877   1.998 -0.6118 -0.1610  0.0659
 6570TIP3    H141201   4.464   2.856   1.906  0.2514  1.9487 -0.6432
 6570TIP3    H241202   4.436   2.812   2.049 -3.0820  0.1394 -1.7945
 6571TIP3   OH241203   6.485   1.983  11.725  0.3805 -0.2868 -0.3765
 6571TIP3    H141204   6.552   1.946  11.783  0.3224 -0.6938 -0.5662
 6571TIP3    H241205   6.513   2.074  11.710 -1.1524  0.7274  2.6398
 6572TIP3   OH241206   0.364   3.401   1.177  0.5666 -0.2034  0.1337
 6572TIP3    H141207   0.281   3.356   1.193  0.6054 -0.4211 -0.2655
 6572TIP3    H241208   0.389   3.435   1.262 -0.9756  1.6597 -0.1161
 6573TIP3   OH241209   6.236   4.885   0.083 -0.3443 -0.1696  0.1762
 6573TIP3    H141210   6.309   4.830   0.053  0.2203  0.7061 -0.0831
 6573TIP3    H241211   6.201   4.924   0.003  0.0800  0.8423  0.4671
 6574TIP3   OH241212   1.724   1.317  16.052  0.3228 -0.3057  0.1232
 6574TIP3    H141213   1.644   1.291  16.006  0.4405  0.4213 -0.5220
 6574TIP3    H241214   1.699   1.395  16.102 -0.3051 -2.2080  2.8859
 6575TIP3   OH241215   5.358   0.256   5.700  0.6308  0.0778  0.4038
 6575TIP3    H141216   5.373   0.163   5.717  1.4234  0.1803  0.3189
 6575TIP3    H241217   5.367   0.265   5.605  0.4876  0.2289  0.4046
 6576TIP3   OH241218   0.783   3.511  13.123  0.5496 -0.7061 -0.1545
 6576TIP3    H141219   0.847   3.469  13.181 -0.9167 -2.6966  0.0544
 6576TIP3    H241220   0.716   3.545  13.182 -0.8351 -2.5424 -0.5991
 6577TIP3   OH241221   4.113   3.620   3.974 -0.2223 -0.6884 -0.8528
 6577TIP3    H141222   4.148   3.588   3.891 -1.5832 -1.2329 -1.2325
 6577TIP3    H241223   4.105   3.715   3.962 -0.9624 -0.8337 -1.5637
 6578TIP3   OH241224   0.927   2.966  14.651 -0.2466 -0.6157 -0.1444
 6578TIP3    H141225   0.848   2.971  14.597 -0.6640  0.2102  0.5256
 6578TIP3    H241226   0.986   3.031  14.613 -0.0164 -1.0011 -0.4439
 6579TIP3   OH241227   3.078   0.199  11.091  0.3720 -0.4491 -0.3468
 6579TIP3    H141228   3.093   0.293  11.091  1.7377 -0.6021  3.3533
 6579TIP3    H241229   3.148   0.164  11.035  0.3911  0.6371 -1.0172
 6580TIP3   OH241230   0.449   0.927  15.985  0.1135  0.0818 -0.1783
 6580TIP3    H141231   0.540   0.949  16.005 -0.3916  0.7613  1.5109
 6580TIP3    H241232   0.424   0.866  16.055 -0.0145 -1.9860 -1.9871
 6581TIP3   OH241233   1.742   4.335  16.972  0.8142 -0.2475  0.1730
 6581TIP3    H141234   1.821   4.295  17.007 -0.1416 -3.0140 -0.7155
 6581TIP3    H241235   1.756   4.337  16.877 -0.2494 -0.9152  0.0008
 6582TIP3   OH241236   4.398   6.495  13.932  0.6273 -0.6922 -0.6517
 6582TIP3    H141237   4.436   6.533  13.853 -0.9319  0.8897 -0.6663
 6582TIP3    H241238   4.455   6.420  13.952  2.4664  0.3383 -1.8604
 6583TIP3   OH241239   3.732   6.695  16.079  0.5157  0.0669 -0.5139
 6583TIP3    H141240   3.815   6.649  16.090 -0.2810 -1.3002  0.0023
 6583TIP3    H241241   3.676   6.660  16.149 -1.0468 -0.3861 -1.9457
 6584TIP3   OH241242   1.426   1.028  15.365 -0.5371 -0.5312 -0.1025
 6584TIP3    H141243   1.416   1.063  15.276  0.3420  0.3196  0.1368
 6584TIP3    H241244   1.379   0.944  15.362 -1.5518  0.0540 -1.0311
 6585TIP3   OH241245   6.255   3.089   0.192 -0.2423 -0.0746  0.0570
 6585TIP3    H141246   6.226   3.135   0.271 -0.1490  1.3860 -0.7254
 6585TIP3    H241247   6.234   3.150   0.121  0.2221 -1.1149 -0.9780
 6586TIP3   OH241248   4.168   6.053  14.954  0.6674 -0.6608  0.2229
 6586TIP3    H141249   4.191   6.080  15.043  0.2748 -1.9269  0.7313
 6586TIP3    H241250   4.250   6.019  14.918  0.7124 -0.6374  0.3017
 6587TIP3   OH241251   2.879   2.655   4.826  0.8486 -0.3336  0.0297
 6587TIP3    H141252   2.896   2.618   4.913  0.2585 -3.9238 -1.2838
 6587TIP3    H241253   2.784   2.650   4.817  0.9117  0.0716 -0.7815
 6588TIP3   OH241254   5.683   3.601   2.944  0.3808 -0.0175  0.2183
 6588TIP3    H141255   5.652   3.590   3.034  1.3927  0.5674  0.6470
 6588TIP3    H241256   5.746   3.672   2.949  0.7530 -0.2637 -0.8861
 6589TIP3   OH241257   3.110   2.553   0.158 -0.5862  0.0391  0.1414
 6589TIP3    H141258   3.134   2.514   0.242  2.2587  2.2563  0.4470
 6589TIP3    H241259   3.031   2.603   0.176  0.6337  1.4158  1.8094
 6590TIP3   OH241260   1.177   0.364  12.678  0.2940 -0.5897 -0.6201
 6590TIP3    H141261   1.134   0.409  12.750  1.2788 -0.2173 -0.2482
 6590TIP3    H241262   1.264   0.403  12.674  0.2502 -0.6102 -2.0166
 6591TIP3   OH241263   6.620   6.255  12.550  0.1011 -0.0806 -0.0723
 6591TIP3    H141264   6.702   6.296  12.525  0.7026 -0.8449  0.6234
 6591TIP3    H241265   6.594   6.299  12.631 -0.6256  0.7567 -0.7563
 6592TIP3   OH241266   3.198   1.362  15.284 -0.3458  0.4731 -0.9550
 6592TIP3    H141267   3.163   1.296  15.223 -0.5572 -1.0038  0.7041
 6592TIP3    H241268   3.180   1.325  15.371  2.8330  1.0048 -0.0341
 6593TIP3   OH241269   6.583   1.000   2.912  0.1645  0.1229  0.6383
 6593TIP3    H141270   6.628   0.917   2.926  0.2758  0.5135  2.9137
 6593TIP3    H241271   6.557   1.028   3.000 -0.7190  2.0233 -0.1872
 6594TIP3   OH241272   3.946   5.292  13.767 -0.0159 -0.1492 -0.3404
 6594TIP3    H141273   3.888   5.218  13.781  0.3402 -0.5640 -1.0223
 6594TIP3    H241274   3.888   5.362  13.737 -0.2574 -0.3754 -0.4048
 6595TIP3   OH241275   5.706   0.603   3.632 -0.0512  0.4140 -0.2982
 6595TIP3    H141276   5.618   0.587   3.598  0.2513  0.3753 -1.0789
 6595TIP3    H241277   5.740   0.516   3.653  0.0347  0.3754 -0.5937
 6596TIP3   OH241278   1.541   6.190  12.938 -0.1660 -0.0986 -0.6788
 6596TIP3    H141279   1.446   6.201  12.939 -0.3522 -1.6098  1.1561
 6596TIP3    H241280   1.572   6.239  13.014  0.2197 -1.8977  0.3530
 6597TIP3   OH241281   1.061   3.059   4.633  0.0220  0.2751  0.0660
 6597TIP3    H141282   1.107   2.978   4.614  0.1905  0.6999 -1.3521
 6597TIP3    H241283   1.131   3.123   4.649 -0.1028  0.4940 -0.2791
 6598TIP3   OH241284   3.398   0.295   0.021 -0.2057  0.0810 -0.7872
 6598TIP3    H141285   3.439   0.272   0.104 -0.4309  0.9044 -0.4356
 6598TIP3    H241286   3.401   0.391   0.019 -0.4241  0.0710 -1.6114
 6599TIP3   OH241287   5.989   5.241   4.215  0.9112  0.0615 -0.0916
 6599TIP3    H141288   5.988   5.279   4.127  0.2484 -1.7282 -0.8902
 6599TIP3    H241289   5.962   5.312   4.272  1.4692  1.2889 -1.3295
 6600TIP3   OH241290   0.208   1.599  15.343 -0.0512 -0.1219  0.4094
 6600TIP3    H141291   0.185   1.603  15.435  0.9096  1.1404  0.6113
 6600TIP3    H241292   0.209   1.505  15.322  0.0821 -0.4290  1.7629
 6601TIP3   OH241293   0.553   5.984  16.308 -0.3676 -0.1133 -0.0470
 6601TIP3    H141294   0.514   6.067  16.280 -2.1654 -0.2861  1.8156
 6601TIP3    H241295   0.519   5.920  16.246  0.0846  0.3450 -0.7768
 6602TIP3   OH241296   5.071   4.092   6.491  0.4894 -0.3494  0.2763
 6602TIP3    H141297   5.146   4.151   6.496 -0.7450  1.1396  1.6107
 6602TIP3    H241298   5.108   4.005   6.511  1.7982  0.4118  1.2987
 6603TIP3   OH241299   6.443   0.628   4.165 -0.3461 -0.9355  0.3992
 6603TIP3    H141300   6.431   0.562   4.097  1.4870 -0.7809 -0.1209
 6603TIP3    H241301   6.463   0.708   4.117 -1.0913 -0.3486  1.0651
 6604TIP3   OH241302   5.365   2.876  12.899 -0.3909  0.1008 -0.3886
 6604TIP3    H141303   5.418   2.866  12.978 -0.6484  1.2695 -0.0450
 6604TIP3    H241304   5.392   2.805  12.841  0.7383  0.0160  0.2390
 6605TIP3   OH241305   0.762   3.635   0.130 -0.4989 -0.1641  0.2318
 6605TIP3    H141306   0.759   3.727   0.102  2.7935 -1.2452 -4.3261
 6605TIP3    H241307   0.672   3.604   0.120 -1.5631  2.3646  1.3445
 6606TIP3   OH241308   0.842   6.085  13.083 -0.2141 -0.2948 -0.5946
 6606TIP3    H141309   0.881   6.006  13.044 -0.1276  0.7341 -2.6559
 6606TIP3    H241310   0.755   6.056  13.113  0.4338 -1.5504  0.0998
 6607TIP3   OH241311   0.920   2.246  14.404 -0.0917 -0.1834  0.0313
 6607TIP3    H141312   0.902   2.152  14.416  0.4230 -0.4756 -1.4115
 6607TIP3    H241313   0.844   2.279  14.356  0.2520 -0.1009 -0.4576
 6608TIP3   OH241314   6.638   2.743  13.228 -0.1760 -0.3373  0.1191
 6608TIP3    H141315   6.722   2.755  13.272  0.4003 -1.5489 -0.6320
 6608TIP3    H241316   6.573   2.753  13.297  0.5165  1.7708  0.4880
 6609TIP3   OH241317   6.703   0.569   0.927 -0.0601  0.0579 -0.0755
 6609TIP3    H141318   6.661   0.602   0.848  1.8333  0.8789 -0.7395
 6609TIP3    H241319   6.702   0.644   0.988  2.6622  0.8497 -0.9709
 6610TIP3   OH241320   0.409   0.111  13.174 -0.3727  0.2068  0.2698
 6610TIP3    H141321   0.485   0.168  13.168  0.3956 -0.8233  0.0900
 6610TIP3    H241322   0.398   0.094  13.267 -1.4729  1.7732  0.4594
 6611TIP3   OH241323   1.542   5.241   6.535  0.2998  0.0620  0.4276
 6611TIP3    H141324   1.504   5.282   6.458  0.1079  0.7219  0.8666
 6611TIP3    H241325   1.631   5.217   6.509  0.3682  0.6420  0.1296
 6612TIP3   OH241326   0.637   0.977  14.699  0.4008  0.1149  0.2566
 6612TIP3    H141327   0.678   1.052  14.656 -0.9033  0.8532  0.2896
 6612TIP3    H241328   0.670   0.979  14.789 -1.4769  2.0653  0.9285
 6613TIP3   OH241329   1.529   0.933   1.724 -0.1741  0.0629  0.2259
 6613TIP3    H141330   1.538   0.962   1.633  1.2916 -3.1000 -0.7029
 6613TIP3    H241331   1.585   0.856   1.731 -1.7060 -0.8740  3.3193
 6614TIP3   OH241332   3.290   1.808   6.649  0.3858  0.4974  0.3479
 6614TIP3    H141333   3.362   1.745   6.639 -0.5415 -0.8429  1.7978
 6614TIP3    H241334   3.329   1.881   6.698  0.8993 -0.0083  0.7068
 6615TIP3   OH241335   0.399   4.308   5.065  0.1154  0.0497 -0.0274
 6615TIP3    H141336   0.374   4.392   5.102 -0.3540  0.1728 -0.5972
 6615TIP3    H241337   0.402   4.324   4.970 -0.1795 -0.6205 -0.1540
 6616TIP3   OH241338   0.403   4.637   0.766  0.3335 -0.6669 -0.0661
 6616TIP3    H141339   0.464   4.639   0.840 -1.1181  0.6446  1.1404
 6616TIP3    H241340   0.333   4.696   0.792 -0.4952 -0.6469 -2.2648
 6617TIP3   OH241341   3.690   5.944  13.371 -0.1422  0.6052 -0.3867
 6617TIP3    H141342   3.694   6.010  13.441  2.4935  1.3777 -1.2090
 6617TIP3    H241343   3.746   5.873  13.401 -0.3624  0.1884 -0.9492
 6618TIP3   OH241344   3.523   3.652   2.657  0.1769  0.7445 -0.4377
 6618TIP3    H141345   3.596   3.698   2.698  0.3109 -0.2004  0.4006
 6618TIP3    H241346   3.446   3.682   2.706  0.0325  1.5516 -1.1594
 6619TIP3   OH241347   0.533   5.701  12.325 -0.4305  0.3657  0.3483
 6619TIP3    H141348   0.502   5.746  12.246 -1.3878 -1.5129 -0.3615
 6619TIP3    H241349   0.594   5.635  12.292 -0.7503 -0.3456  1.1884
 6620TIP3   OH241350   3.943   2.029  16.736 -0.5547 -0.4102  0.1272
 6620TIP3    H141351   4.026   2.070  16.761  0.4555 -0.7560 -2.5272
 6620TIP3    H241352   3.902   2.005  16.820  0.6788  2.3172  1.5603
 6621TIP3   OH241353   5.786   2.632   1.054 -0.0977 -0.3098 -0.4952
 6621TIP3    H141354   5.831   2.684   0.988  1.2258 -0.5497  0.2075
 6621TIP3    H241355   5.706   2.681   1.073 -0.0233  0.2343 -1.5775
 6622TIP3   OH241356   6.630   3.407  15.693 -0.6643 -0.4799 -0.1421
 6622TIP3    H141357   6.621   3.375  15.783  0.5067  0.4004  0.3057
 6622TIP3    H241358   6.627   3.329  15.639  3.0798 -1.5492  0.9939
 6623TIP3   OH241359   0.539   0.149  15.601  0.0513 -0.5159 -0.2428
 6623TIP3    H141360   0.572   0.202  15.673  0.3642 -0.3100 -0.5341
 6623TIP3    H241361   0.549   0.059  15.630 -0.0681 -0.4255  0.0766
 6624TIP3   OH241362   6.354   3.630  14.035  0.0372 -0.1517 -0.4542
 6624TIP3    H141363   6.302   3.710  14.030 -2.8213 -1.9157 -0.0029
 6624TIP3    H241364   6.406   3.640  14.115 -0.9685  0.8568  0.0843
 6625TIP3   OH241365   2.985   3.530   2.506  0.2209  0.0931  0.1473
 6625TIP3    H141366   2.957   3.621   2.493  1.2464  0.1538 -1.9334
 6625TIP3    H241367   2.965   3.487   2.422  1.8173 -1.0311  0.3205
 6626TIP3   OH241368   2.526   1.927  12.844 -0.1585 -0.3477 -0.5178
 6626TIP3    H141369   2.586   1.991  12.805  1.1788  0.0156  1.9633
 6626TIP3    H241370   2.467   1.980  12.898  0.9669 -1.1151  1.5644
 6627TIP3   OH241371   2.116   6.162  12.596 -0.3558 -0.1409 -0.4712
 6627TIP3    H141372   2.073   6.246  12.586  0.8069  0.5020 -0.1663
 6627TIP3    H241373   2.045   6.098  12.590 -1.6407  0.9718  1.9129
 6628TIP3   OH241374   0.662   4.135  10.782 -0.0948  0.0320 -0.1255
 6628TIP3    H141375   0.724   4.101  10.717  0.3571 -0.1697  0.4077
 6628TIP3    H241376   0.651   4.227  10.758 -1.2541 -0.4584 -1.5181
 6629TIP3   OH241377   0.951   5.913   5.963  0.2458  0.0663 -0.5243
 6629TIP3    H141378   1.026   5.961   6.000 -0.3329  0.3446  0.3194
 6629TIP3    H241379   0.959   5.824   5.999  1.1678 -0.3974 -1.8714
 6630TIP3   OH241380   0.324   6.638   5.557  0.1580 -0.2154 -0.0264
 6630TIP3    H141381   0.343   6.545   5.571 -1.4870 -0.5495  0.1104
 6630TIP3    H241382   0.248   6.638   5.498  0.6545  1.0632 -0.6900
 6631TIP3   OH241383   0.419   6.287   2.303 -0.2235  0.4649  0.8232
 6631TIP3    H141384   0.360   6.265   2.231  2.7465  0.2744 -1.6634
 6631TIP3    H241385   0.384   6.369   2.338 -2.4611 -0.1110  0.0435
 6632TIP3   OH241386   2.741   1.898  13.063  0.0890  0.0872  0.2571
 6632TIP3    H141387   2.671   1.890  12.998 -0.2913  0.3140  0.6372
 6632TIP3    H241388   2.695   1.913  13.146  0.4204 -2.7127  1.0309
 6633TIP3   OH241389   5.859   3.208   2.025  0.7605  0.2886 -0.1004
 6633TIP3    H141390   5.933   3.160   2.062 -0.4143 -1.7131 -0.2432
 6633TIP3    H241391   5.798   3.139   1.998 -1.0112  1.8911 -0.2477
 6634TIP3   OH241392   5.801   2.103   1.747 -0.7006 -0.2327 -0.5775
 6634TIP3    H141393   5.713   2.086   1.716 -0.6770 -0.5875 -0.4515
 6634TIP3    H241394   5.855   2.038   1.702 -0.7590 -1.1825  0.6943
 6635TIP3   OH241395   3.471   5.815   6.339 -0.0819  0.0715  0.5420
 6635TIP3    H141396   3.560   5.798   6.307 -0.2752  1.0216 -0.5509
 6635TIP3    H241397   3.415   5.771   6.275 -0.4033 -0.6838  1.3332
 6636TIP3   OH241398   4.497   6.491  13.554  0.3650 -0.1492 -0.1693
 6636TIP3    H141399   4.453   6.573  13.531  1.9762  0.9093  0.3783
 6636TIP3    H241400   4.434   6.444  13.609 -0.5418  0.7711 -0.4021
 6637TIP3   OH241401   3.098   0.449   3.017  0.9721  0.6104 -0.1774
 6637TIP3    H141402   3.103   0.354   3.012 -0.5098  0.3309  2.4681
 6637TIP3    H241403   3.189   0.479   3.014  1.4904 -0.9508 -0.1307
 6638TIP3   OH241404   0.505   5.363  14.839 -0.2860 -0.1666  0.3930
 6638TIP3    H141405   0.476   5.447  14.875 -0.7956  0.0027 -0.4164
 6638TIP3    H241406   0.478   5.299  14.905  0.2097  0.3098  1.0719
 6639TIP3   OH241407   6.746   3.031  16.671  0.1663 -0.1327 -0.0757
 6639TIP3    H141408   6.669   2.979  16.693  0.4285 -0.9018 -0.9039
 6639TIP3    H241409   6.783   3.057  16.755 -0.9547  0.1880  0.3307
 6640TIP3   OH241410   5.799   3.319  13.242 -0.0400  0.6598 -0.0137
 6640TIP3    H141411   5.811   3.398  13.189 -1.8380  0.5367 -0.6588
 6640TIP3    H241412   5.819   3.247  13.182 -0.3949  0.5737 -0.0312
 6641TIP3   OH241413   2.149   4.040   5.011  0.3487  0.2257  0.6136
 6641TIP3    H141414   2.198   3.985   5.072 -0.5260 -2.5420 -1.0535
 6641TIP3    H241415   2.057   4.026   5.034  0.0600 -0.0671 -0.6696
 6642TIP3   OH241416   1.972   5.504  13.174  0.4405  0.5170  0.9136
 6642TIP3    H141417   2.061   5.482  13.147  0.2336 -0.7800  1.2548
 6642TIP3    H241418   1.968   5.479  13.267 -0.5179 -0.2165  0.6865
 6643TIP3   OH241419   4.910   4.693   0.802 -0.0344 -0.1991  0.2030
 6643TIP3    H141420   4.829   4.726   0.842 -0.4457 -1.0374  0.0695
 6643TIP3    H241421   4.938   4.764   0.744 -0.2417  0.4208  0.8449
 6644TIP3   OH241422   5.899   3.947   6.102 -0.1165  0.6524 -0.1021
 6644TIP3    H141423   5.811   3.949   6.139 -0.0492  0.4746  0.0687
 6644TIP3    H241424   5.885   3.948   6.008 -0.3981 -2.6941 -0.1314
 6645TIP3   OH241425   3.300   3.392   5.478 -0.1688  0.5378  0.0230
 6645TIP3    H141426   3.373   3.451   5.463  0.7213 -0.4998  0.2418
 6645TIP3    H241427   3.339   3.305   5.477 -0.9089  0.1118  3.0964
 6646TIP3   OH241428   0.848   5.822  16.049  0.1663  0.7708 -0.0687
 6646TIP3    H141429   0.889   5.761  15.988 -0.3756 -1.0129  1.3144
 6646TIP3    H241430   0.853   5.779  16.134 -1.5937  1.9839  0.6912
 6647TIP3   OH241431   5.105   5.992  15.074  0.4347  0.2080 -0.0424
 6647TIP3    H141432   5.078   6.082  15.088  1.9931  0.6430  0.3396
 6647TIP3    H241433   5.034   5.939  15.109 -0.0030  1.2971  0.7310
 6648TIP3   OH241434   3.482   0.922   4.571 -0.3845  0.3323  0.2612
 6648TIP3    H141435   3.506   1.014   4.581 -0.5852  0.6561 -2.0455
 6648TIP3    H241436   3.418   0.906   4.640  0.7000  1.5282  1.5623
 6649TIP3   OH241437   5.616   5.739   5.182  0.3673  0.1797 -0.4256
 6649TIP3    H141438   5.687   5.676   5.170 -0.4396 -0.5679 -1.4063
 6649TIP3    H241439   5.631   5.776   5.269  1.4116 -0.6671 -0.2378
 6650TIP3   OH241440   4.097   3.341  16.415  0.6752 -0.3225  0.1796
 6650TIP3    H141441   4.123   3.420  16.367 -0.3773 -0.3851 -0.4894
 6650TIP3    H241442   4.125   3.358  16.506  0.5133  0.7819  0.0218
 6651TIP3   OH241443   5.476   3.248  10.877  0.1369 -0.0787 -0.7996
 6651TIP3    H141444   5.462   3.185  10.806  0.1108 -0.6909 -0.2578
 6651TIP3    H241445   5.390   3.256  10.919  0.0769  0.5238 -1.0296
 6652TIP3   OH241446   1.834   2.374  12.927 -0.1831  0.2821 -0.3648
 6652TIP3    H141447   1.741   2.355  12.939 -0.1868  1.0945  0.9349
 6652TIP3    H241448   1.873   2.289  12.901 -1.0736 -0.3164  0.2509
 6653TIP3   OH241449   0.354   3.444  14.910  0.1291 -0.0188 -0.5846
 6653TIP3    H141450   0.310   3.518  14.952  1.6580  0.1438  0.7557
 6653TIP3    H241451   0.315   3.440  14.822 -0.4983  1.9062 -0.4157
 6654TIP3   OH241452   5.086   0.436  12.329  0.2128 -0.0309  0.2517
 6654TIP3    H141453   5.071   0.376  12.403 -2.7798  1.0651  0.5947
 6654TIP3    H241454   5.173   0.473  12.346 -0.3483  0.0941  3.1403
 6655TIP3   OH241455   5.019   3.468  16.148  0.4726  0.3003 -0.1372
 6655TIP3    H141456   4.962   3.418  16.089  0.3095  0.0171  0.2540
 6655TIP3    H241457   5.032   3.552  16.104  3.7942 -1.3864 -2.6069
 6656TIP3   OH241458   4.144   0.107   3.200  0.4213  0.2650  0.1545
 6656TIP3    H141459   4.169   0.097   3.292  2.3740  1.2110 -0.2381
 6656TIP3    H241460   4.184   0.032   3.156 -0.6209 -0.2578  0.0922
 6657TIP3   OH241461   1.178   1.166   1.943  0.7470  0.5316  1.0023
 6657TIP3    H141462   1.254   1.212   1.980  1.8171  0.9207 -1.5202
 6657TIP3    H241463   1.215   1.111   1.874 -1.1338 -0.2060  0.5528
 6658TIP3   OH241464   6.014   6.330  16.429  0.2482 -0.1378 -0.4142
 6658TIP3    H141465   5.967   6.246  16.430 -0.5670  0.3190  0.8990
 6658TIP3    H241466   6.034   6.347  16.521  0.4702  1.0909 -0.6861
 6659TIP3   OH241467   2.721   0.615  16.091 -0.4088 -0.0164  0.3628
 6659TIP3    H141468   2.631   0.645  16.104 -0.3095  0.8862 -0.9458
 6659TIP3    H241469   2.759   0.615  16.179 -1.5025  0.1941  0.8410
 6660TIP3   OH241470   4.917   0.516  15.710 -0.0731 -0.3823  0.2111
 6660TIP3    H141471   4.859   0.478  15.776 -0.1545 -0.2337  0.2267
 6660TIP3    H241472   5.005   0.495  15.741 -0.0736  0.8750  1.0890
 6661TIP3   OH241473   6.195   3.178  12.933 -0.6037 -0.6388  0.3062
 6661TIP3    H141474   6.248   3.110  12.891  0.1007  0.3933 -0.5024
 6661TIP3    H241475   6.249   3.257  12.928 -1.9673  0.2983 -0.0098
 6662TIP3   OH241476   4.009   0.259  12.706  0.2987  0.3317 -0.1330
 6662TIP3    H141477   3.956   0.255  12.785  0.0735  0.8467 -0.2545
 6662TIP3    H241478   3.952   0.298  12.640  0.2593 -0.7385 -0.7390
 6663TIP3   OH241479   0.181   6.628   0.005  0.2420  0.0359 -0.2218
 6663TIP3    H141480   0.180   6.539   0.041  0.1048  0.2969  0.4293
 6663TIP3    H241481   0.196   6.616  -0.089  4.6925 -0.4552  0.4817
 6664TIP3   OH241482   1.900   1.638   1.492 -0.4737 -0.6220  0.3039
 6664TIP3    H141483   1.819   1.661   1.447  0.4339 -1.4619 -1.8332
 6664TIP3    H241484   1.902   1.542   1.490 -0.9450 -0.7319  3.1615
 6665TIP3   OH241485   2.212   2.918  16.436 -0.2857 -1.0133  0.4128
 6665TIP3    H141486   2.264   2.928  16.516 -0.1454 -2.1338  0.4652
 6665TIP3    H241487   2.121   2.922  16.467 -0.2374 -0.5629  0.5075
 6666TIP3   OH241488   5.567   4.295  12.488  0.5370  0.3867  0.1358
 6666TIP3    H141489   5.600   4.206  12.485 -0.9233 -0.1556 -0.2216
 6666TIP3    H241490   5.519   4.306  12.406 -0.9756  0.8298  1.0514
 6667TIP3   OH241491   2.940   1.775   3.366 -0.7835  0.2209 -0.1237
 6667TIP3    H141492   2.973   1.740   3.449 -1.1795 -0.1374 -0.1170
 6667TIP3    H241493   3.019   1.805   3.321 -0.5679  0.4423  0.3907
 6668TIP3   OH241494   5.882   2.068  11.250 -0.1541  0.3772  0.0481
 6668TIP3    H141495   5.814   2.002  11.235 -0.7324  0.9138  0.3062
 6668TIP3    H241496   5.934   2.066  11.170 -0.8170  0.3688 -0.3897
 6669TIP3   OH241497   1.348   3.944  11.289 -0.0808  0.0912  0.2285
 6669TIP3    H141498   1.268   3.955  11.238  0.6352  1.3086 -0.6602
 6669TIP3    H241499   1.362   4.030  11.329  0.3977 -0.3241  0.9684
 6670TIP3   OH241500   5.702   2.354   6.199  0.1494  0.2844  0.0034
 6670TIP3    H141501   5.647   2.293   6.247 -1.2675 -0.0505 -1.9836
 6670TIP3    H241502   5.707   2.431   6.256 -1.1229 -0.2602  0.8883
 6671TIP3   OH241503   2.219   1.740  11.035 -0.1988 -0.9301  0.4162
 6671TIP3    H141504   2.185   1.653  11.013 -1.0990 -0.2201 -1.0586
 6671TIP3    H241505   2.141   1.795  11.045  0.4369  0.3398 -1.3778
 6672TIP3   OH241506   0.377   1.929   3.905 -0.4274 -0.1596  0.4911
 6672TIP3    H141507   0.430   1.873   3.847  0.1364 -1.6225  2.3803
 6672TIP3    H241508   0.419   2.015   3.899  0.3817 -0.5943 -0.3090
 6673TIP3   OH241509   3.918   1.909  10.510  0.4138 -0.0178  0.1215
 6673TIP3    H141510   3.900   1.828  10.463 -0.5346 -0.2209  0.8181
 6673TIP3    H241511   3.902   1.978  10.445 -0.2661 -0.3257 -0.0421
 6674TIP3   OH241512   4.015   3.319  12.073  0.8548  0.5092 -0.2509
 6674TIP3    H141513   3.969   3.298  12.154 -1.5287  2.0295 -1.1534
 6674TIP3    H241514   4.098   3.357  12.101 -0.4948  2.2324  1.5156
 6675TIP3   OH241515   3.365   1.052   0.750 -0.0562 -0.2838  0.5779
 6675TIP3    H141516   3.328   0.989   0.812  0.2277 -0.9238  0.0962
 6675TIP3    H241517   3.288   1.098   0.716 -0.3710 -1.2151  0.0119
 6676TIP3   OH241518   5.008   6.080   5.396  0.1461 -0.2142 -0.7081
 6676TIP3    H141519   5.047   6.023   5.330  0.3273 -1.3616  0.3646
 6676TIP3    H241520   4.994   6.023   5.472  1.3798  1.4272  0.7902
 6677TIP3   OH241521   4.668   0.137   0.316 -0.3743  0.2993  0.4166
 6677TIP3    H141522   4.655   0.165   0.406 -2.9888 -0.5816  0.3402
 6677TIP3    H241523   4.581   0.138   0.277  0.4407 -1.1996 -1.5504
 6678TIP3   OH241524   0.834   1.475  16.683  0.3214 -0.0242 -0.2027
 6678TIP3    H141525   0.894   1.466  16.758  1.1713  2.1909 -0.5480
 6678TIP3    H241526   0.857   1.403  16.625  1.5696 -0.1520  0.4255
 6679TIP3   OH241527   6.526   4.303   0.776  0.1605  0.2138 -0.5261
 6679TIP3    H141528   6.505   4.348   0.858  2.4715  0.2506  0.0598
 6679TIP3    H241529   6.483   4.217   0.785 -1.4110  1.0036 -0.2215
 6680TIP3   OH241530   2.701   0.113  15.886 -0.0683 -0.2919 -0.2228
 6680TIP3    H141531   2.645   0.076  15.955 -3.2251  0.3261 -2.3461
 6680TIP3    H241532   2.706   0.206  15.906 -0.6426 -0.1816 -0.5793
 6681TIP3   OH241533   5.920   5.426   3.999  0.2175  0.3950 -0.1525
 6681TIP3    H141534   5.975   5.498   4.029  1.1937 -1.1107  1.8381
 6681TIP3    H241535   5.831   5.451   4.024  0.0923  2.3791 -2.4605
 6682TIP3   OH241536   3.905   3.449  16.961 -0.3240  0.2985 -0.4465
 6682TIP3    H141537   3.918   3.433  17.055  0.3315  0.1094 -0.5686
 6682TIP3    H241538   3.813   3.426  16.945 -1.4724  3.5436  0.8418
 6683TIP3   OH241539   6.176   3.689   2.022  0.2909  0.0206 -0.0564
 6683TIP3    H141540   6.229   3.631   2.077  0.1371  1.3432  1.5072
 6683TIP3    H241541   6.098   3.638   2.002  0.5455 -0.6328  0.5848
 6684TIP3   OH241542   0.544   1.466  14.391  0.4279 -0.1124  0.0714
 6684TIP3    H141543   0.614   1.524  14.419  0.3489 -0.9933  2.1750
 6684TIP3    H241544   0.464   1.510  14.420  0.2227 -0.1213 -0.4700
 6685TIP3   OH241545   0.886   5.726   6.730  0.2733  0.5221 -0.6158
 6685TIP3    H141546   0.963   5.694   6.685  0.2659 -0.7039  0.2186
 6685TIP3    H241547   0.818   5.661   6.711  0.0196  0.4882  0.3595
 6686TIP3   OH241548   5.275   1.867  12.313 -0.0654 -0.2367  0.1985
 6686TIP3    H141549   5.349   1.922  12.288  0.4923 -1.1118 -0.1049
 6686TIP3    H241550   5.234   1.913  12.387  1.3202 -0.2000  0.9533
 6687TIP3   OH241551   0.898   4.149  13.062 -0.6141 -0.1541  0.1745
 6687TIP3    H141552   0.961   4.195  13.006 -0.8921 -0.3097 -0.2623
 6687TIP3    H241553   0.931   4.060  13.068  0.2387  0.2236  1.4840
 6688TIP3   OH241554   0.222   5.893  11.491  0.4459 -0.5177 -0.3007
 6688TIP3    H141555   0.140   5.871  11.534  0.0137  0.8769 -0.4075
 6688TIP3    H241556   0.203   5.886  11.398  1.2067 -2.8978 -0.3136
 6689TIP3   OH241557   1.832   3.954   0.917  0.0183 -0.5834  0.1442
 6689TIP3    H141558   1.905   3.903   0.881  1.1897 -0.1498  1.8466
 6689TIP3    H241559   1.867   3.992   0.998 -1.1518  2.0538 -0.5355
 6690TIP3   OH241560   3.386   0.903   4.920 -0.4705 -0.2382 -0.7106
 6690TIP3    H141561   3.343   0.918   5.005 -2.9672 -1.3897 -1.7318
 6690TIP3    H241562   3.479   0.904   4.941 -0.9686  1.3083  1.7561
 6691TIP3   OH241563   3.637   1.741   0.339  0.0803 -0.4502 -0.8957
 6691TIP3    H141564   3.729   1.720   0.323 -0.0323 -2.6037  1.0006
 6691TIP3    H241565   3.606   1.779   0.257  2.4641 -0.3875 -1.7970
 6692TIP3   OH241566   5.086   1.901   0.250  0.5416  0.0402 -0.6667
 6692TIP3    H141567   5.019   1.970   0.253  0.4988  0.0450 -1.5304
 6692TIP3    H241568   5.065   1.844   0.324  0.3241  0.7204 -0.1990
 6693TIP3   OH241569   0.097   1.330  15.226  0.6813 -0.5086  0.2036
 6693TIP3    H141570   0.098   1.349  15.320 -3.2083 -1.5159  0.5200
 6693TIP3    H241571   0.096   1.235  15.220 -0.1190 -0.4411 -0.8519
 6694TIP3   OH241572   2.627   2.834  11.326 -0.3372  0.2654 -0.2267
 6694TIP3    H141573   2.636   2.929  11.329  0.1638  0.1496  2.9001
 6694TIP3    H241574   2.534   2.818  11.336 -0.3922  0.3948 -0.5126
 6695TIP3   OH241575   4.018   3.683  15.432 -0.4294 -0.4691 -0.4882
 6695TIP3    H141576   3.997   3.632  15.510  0.3018 -1.6213 -1.0342
 6695TIP3    H241577   3.943   3.742  15.421 -0.1598  0.2865  1.5388
 6696TIP3   OH241578   4.780   0.068   5.263  0.0384 -0.4025 -0.5504
 6696TIP3    H141579   4.731   0.083   5.182 -2.1719 -1.0452  0.6546
 6696TIP3    H241580   4.715   0.071   5.332  1.8896 -0.0525  1.2272
 6697TIP3   OH241581   5.962   3.972  16.171  0.0800 -0.7697 -0.4899
 6697TIP3    H141582   5.919   4.032  16.110  0.0440  1.0767  1.3080
 6697TIP3    H241583   5.955   3.886  16.128 -0.5070  0.3643 -2.7630
 6698TIP3   OH241584   5.457   2.430  14.141  0.5735  0.2521  0.0433
 6698TIP3    H141585   5.417   2.507  14.182 -0.5057  0.6474 -1.6841
 6698TIP3    H241586   5.483   2.461  14.054  0.4699 -1.2391 -0.5264
 6699TIP3   OH241587   6.544   0.195   1.691 -0.5098  0.6173  0.3835
 6699TIP3    H141588   6.578   0.167   1.777 -1.0241  1.1755  0.7745
 6699TIP3    H241589   6.456   0.228   1.710 -0.9303  0.0001 -0.4880
 6700TIP3   OH241590   1.490   4.570  15.057 -0.1383  0.1093  0.2348
 6700TIP3    H141591   1.561   4.606  15.004 -0.1578 -0.0517  0.0996
 6700TIP3    H241592   1.445   4.509  14.999 -1.6551  1.7153 -0.3357
 6701TIP3   OH241593   2.899   3.507   2.762  0.5978  0.4426  0.3350
 6701TIP3    H141594   2.901   3.499   2.666 -2.2303 -1.1887  0.3479
 6701TIP3    H241595   2.824   3.566   2.778 -0.8987 -1.7658  1.6200
 6702TIP3   OH241596   2.329   0.903  11.689 -0.2488  0.3014 -0.7316
 6702TIP3    H141597   2.234   0.893  11.696 -0.1301 -0.8335 -0.6948
 6702TIP3    H241598   2.351   0.865  11.604  0.4535 -1.5770  0.2658
 6703TIP3   OH241599   4.458   2.563  13.199  0.3849  0.1142  0.1706
 6703TIP3    H141600   4.524   2.504  13.235 -0.5438 -0.5452  0.8354
 6703TIP3    H241601   4.452   2.539  13.107  1.1532  0.2513  0.0868
 6704TIP3   OH241602   6.815   1.008  13.290 -0.0057  0.0230 -0.3692
 6704TIP3    H141603   6.899   0.979  13.255  0.5738 -0.7523  1.6035
 6704TIP3    H241604   6.768   0.927  13.311 -1.7735  0.4070 -2.5833
 6705TIP3   OH241605   4.398   6.418   1.634 -0.4949  0.2075  0.0535
 6705TIP3    H141606   4.463   6.485   1.653 -0.4485 -0.0901  0.9837
 6705TIP3    H241607   4.434   6.369   1.561 -0.1967  0.7437 -0.1605
 6706TIP3   OH241608   0.635   4.015   4.563 -0.1711 -0.1914  0.3227
 6706TIP3    H141609   0.620   4.044   4.652 -1.5944  0.0373  0.0213
 6706TIP3    H241610   0.558   3.963   4.541  0.9932 -1.7719 -0.1580
 6707TIP3   OH241611   2.876   4.761   1.899 -0.0975  0.2894 -0.2001
 6707TIP3    H141612   2.786   4.762   1.866  0.2425  1.3070 -1.1521
 6707TIP3    H241613   2.905   4.671   1.886 -0.4221  0.3547 -1.4845
 6708TIP3   OH241614   1.989   5.967   5.926  0.3489 -0.3374  0.2648
 6708TIP3    H141615   1.904   6.012   5.929  1.0597  0.9400  2.3043
 6708TIP3    H241616   2.054   6.037   5.932  1.4951 -1.5092  2.1263
 6709TIP3   OH241617   5.650   6.713   0.683  0.1481 -0.1563  0.6475
 6709TIP3    H141618   5.725   6.718   0.743  0.0621 -0.1172  0.7527
 6709TIP3    H241619   5.631   6.804   0.660  1.9156 -0.3080 -1.6083
 6710TIP3   OH241620   5.775   0.869  14.932  0.1636  0.4388  0.1154
 6710TIP3    H141621   5.729   0.915  14.862 -1.3811 -0.9318  0.2027
 6710TIP3    H241622   5.818   0.796  14.888  0.4435  0.4469  0.3746
 6711TIP3   OH241623   6.440   3.758  14.268  0.1256  0.8949  0.5136
 6711TIP3    H141624   6.431   3.760  14.364 -2.1157 -0.0720  0.3557
 6711TIP3    H241625   6.427   3.849  14.241 -0.0155  1.0470  1.0791
 6712TIP3   OH241626   3.381   3.513   4.615 -0.2989 -0.7978 -0.1164
 6712TIP3    H141627   3.371   3.476   4.527 -1.7972 -1.1192  0.1844
 6712TIP3    H241628   3.383   3.607   4.602  0.4949 -0.8705 -0.5853
 6713TIP3   OH241629   5.379   0.771   2.698  0.4011  0.0180  0.4935
 6713TIP3    H141630   5.287   0.745   2.696  0.7639 -1.2265 -1.9264
 6713TIP3    H241631   5.388   0.821   2.779 -2.3081 -0.1574  0.9499
 6714TIP3   OH241632   2.681   5.237   0.440 -0.3150 -0.0266 -0.0530
 6714TIP3    H141633   2.657   5.145   0.451  2.4172 -0.8126 -0.1303
 6714TIP3    H241634   2.598   5.283   0.429 -1.7806 -2.3534  0.9174
 6715TIP3   OH241635   1.099   2.648   4.227  0.0308 -0.1178  0.5419
 6715TIP3    H141636   1.085   2.573   4.168 -0.5788  0.9691 -0.7105
 6715TIP3    H241637   1.149   2.611   4.300  0.4691 -1.5799 -0.4632
 6716TIP3   OH241638   4.577   0.315   1.885 -0.3482  0.1502  0.6800
 6716TIP3    H141639   4.639   0.256   1.841  1.4507  2.4526  0.0465
 6716TIP3    H241640   4.601   0.311   1.977  1.4592  1.8331  0.3023
 6717TIP3   OH241641   6.367   3.849  16.292  0.2549 -0.0446  0.4019
 6717TIP3    H141642   6.435   3.798  16.247  0.1264  0.3308 -0.2276
 6717TIP3    H241643   6.395   3.850  16.384  1.5206  0.7568  0.0279
 6718TIP3   OH241644   4.257   0.385   1.606 -0.3212  0.6157  0.2374
 6718TIP3    H141645   4.181   0.442   1.614 -0.9809 -0.1582 -0.4686
 6718TIP3    H241646   4.256   0.333   1.687 -1.1346 -0.1043 -0.2273
 6719TIP3   OH241647   1.038   3.303  17.080 -0.1988 -0.8441 -0.1888
 6719TIP3    H141648   0.984   3.307  17.159  1.0297 -0.2356  0.6405
 6719TIP3    H241649   1.044   3.393  17.050  0.5201 -0.8744 -0.1568
 6720TIP3   OH241650   2.255   5.140  12.336 -0.1894 -0.3677 -0.3417
 6720TIP3    H141651   2.181   5.123  12.279 -0.2436 -1.1892 -0.0298
 6720TIP3    H241652   2.250   5.072  12.403 -0.9441  1.3819  1.4519
 6721TIP3   OH241653   0.262   2.940   4.229 -0.2591 -0.0469 -0.1768
 6721TIP3    H141654   0.180   2.988   4.214 -0.4930 -0.6026 -0.6928
 6721TIP3    H241655   0.295   2.975   4.311 -1.7242 -0.7836  0.7587
 6722TIP3   OH241656   4.870   2.196  11.092 -0.5028 -0.5861 -0.2408
 6722TIP3    H141657   4.826   2.135  11.033 -0.8606  0.9901 -1.6428
 6722TIP3    H241658   4.827   2.280  11.077  1.0287  0.3647  0.4856
 6723TIP3   OH241659   2.543   4.339  15.657  0.4809  0.1966  0.1910
 6723TIP3    H141660   2.621   4.302  15.616 -0.1276 -1.5304  0.5816
 6723TIP3    H241661   2.546   4.307  15.747 -0.4324  0.5049  0.3314
 6724TIP3   OH241662   6.687   1.151   1.969  0.2024 -0.6318  0.7587
 6724TIP3    H141663   6.672   1.199   2.050 -0.7721 -0.5400  0.5325
 6724TIP3    H241664   6.672   1.059   1.992 -1.8190 -0.4361  0.2827
 6725TIP3   OH241665   0.568   0.528   2.217 -0.2198  0.4786  0.4058
 6725TIP3    H141666   0.599   0.456   2.162  0.5720  0.9152  0.2764
 6725TIP3    H241667   0.483   0.498   2.249  1.2193 -1.6026  2.4171
 6726TIP3   OH241668   6.122   5.069   2.581 -0.2784 -0.1162  0.8525
 6726TIP3    H141669   6.144   5.012   2.508  1.6185  0.2694  1.0899
 6726TIP3    H241670   6.173   5.149   2.565 -0.9340  0.5111  1.8503
 6727TIP3   OH241671   1.390   5.153  16.228 -0.0399  0.3046  0.5748
 6727TIP3    H141672   1.319   5.152  16.164  0.8333 -0.1377 -0.3925
 6727TIP3    H241673   1.385   5.241  16.267  1.1222  1.5673 -2.0254
 6728TIP3   OH241674   4.086   2.868  16.401 -0.3464 -0.1560 -1.0181
 6728TIP3    H141675   4.040   2.924  16.463  0.4357 -0.3039 -0.2882
 6728TIP3    H241676   4.120   2.928  16.335  1.8142  0.4661  0.5858
 6729TIP3   OH241677   1.261   1.186  16.967 -0.1307  0.2913 -0.1248
 6729TIP3    H141678   1.283   1.139  16.887  1.9280  0.4661  0.3171
 6729TIP3    H241679   1.315   1.265  16.964  0.9483 -0.3199  2.0420
 6730TIP3   OH241680   2.806   3.498   5.095  0.5637  0.3580 -0.6718
 6730TIP3    H141681   2.832   3.588   5.114  0.5225  0.2602 -0.1292
 6730TIP3    H241682   2.737   3.505   5.030  0.2716  0.7398 -0.3193
 6731TIP3   OH241683   5.502   2.494  16.015 -0.0605  0.2389  0.5364
 6731TIP3    H141684   5.576   2.433  16.021 -1.4852 -1.7354 -1.3967
 6731TIP3    H241685   5.521   2.547  15.938  1.1257  2.2979  2.1542
 6732TIP3   OH241686   5.923   6.723  12.314 -0.3127  0.3461  0.0479
 6732TIP3    H141687   6.012   6.735  12.347  0.3246  0.2916 -1.5832
 6732TIP3    H241688   5.900   6.633  12.338  0.2839  0.1777 -0.0014
 6733TIP3   OH241689   0.852   2.917   0.218  0.5574 -0.1763 -0.5029
 6733TIP3    H141690   0.757   2.927   0.223  0.6132 -0.7473  3.9887
 6733TIP3    H241691   0.865   2.831   0.179 -0.7204  0.4630 -2.3834
 6734TIP3   OH241692   6.050   2.465  13.575  0.0410 -0.3603  0.3902
 6734TIP3    H141693   6.076   2.453  13.667 -1.1206 -2.3135  0.4957
 6734TIP3    H241694   5.969   2.515  13.580  1.2053  1.5708  0.2950
 6735TIP3   OH241695   3.672   3.006   0.986 -0.2699 -0.1731  0.1513
 6735TIP3    H141696   3.749   2.984   1.040  0.8542  2.2212 -0.3708
 6735TIP3    H241697   3.702   2.995   0.896 -0.9909 -0.5677 -0.0445
 6736TIP3   OH241698   1.319   0.549  10.809 -0.1970 -0.1530  0.5212
 6736TIP3    H141699   1.354   0.587  10.729  2.4500 -0.2730  1.5469
 6736TIP3    H241700   1.246   0.606  10.834 -0.3069  0.5365 -1.3372
 6737TIP3   OH241701   6.373   1.400   4.750  1.0327  0.1818 -0.6444
 6737TIP3    H141702   6.337   1.316   4.720  1.2423  0.8952 -3.0502
 6737TIP3    H241703   6.467   1.383   4.759  0.7792 -0.4296  1.1227
 6738TIP3   OH241704   5.003   2.930  13.554 -0.2312 -0.1537 -0.1209
 6738TIP3    H141705   5.082   2.876  13.560 -1.7369 -2.2712  0.9266
 6738TIP3    H241706   5.013   2.994  13.625  0.7317 -0.1318 -0.2617
 6739TIP3   OH241707   2.201   2.079  14.150  0.1973  0.1994 -0.0982
 6739TIP3    H141708   2.157   2.023  14.086 -0.1086  0.4522 -0.1117
 6739TIP3    H241709   2.263   2.021  14.195 -1.1924 -0.5002  0.9449
 6740TIP3   OH241710   6.576   3.214   1.007  0.0381 -0.6112  0.1341
 6740TIP3    H141711   6.484   3.198   1.030  0.0300  1.2129  1.5041
 6740TIP3    H241712   6.579   3.307   0.986  1.2843 -0.9914 -1.4537
 6741TIP3   OH241713   2.657   3.337   5.872  0.5267 -0.1135  0.1771
 6741TIP3    H141714   2.706   3.259   5.846 -0.1458 -0.5063  0.0592
 6741TIP3    H241715   2.617   3.313   5.955 -1.3938 -0.6787 -0.8550
 6742TIP3   OH241716   6.724   4.148   0.464 -0.5086 -0.7737  0.4744
 6742TIP3    H141717   6.779   4.218   0.500 -2.0615 -0.0543  1.4995
 6742TIP3    H241718   6.729   4.160   0.370 -0.5949  0.5963  0.6323
 6743TIP3   OH241719   1.577   5.253   1.631  0.1385 -0.8576 -0.0344
 6743TIP3    H141720   1.500   5.197   1.627 -1.4277  1.1282  1.5435
 6743TIP3    H241721   1.550   5.334   1.587  2.3864 -1.2810 -2.3347
 6744TIP3   OH241722   6.764   5.806  13.041 -0.0178 -0.8663 -0.5527
 6744TIP3    H141723   6.676   5.769  13.035 -0.7533  1.1358 -2.7163
 6744TIP3    H241724   6.815   5.756  12.977 -0.5034  0.4240 -1.9690
 6745TIP3   OH241725   0.166   2.222   4.066 -0.4934  0.6200 -0.4366
 6745TIP3    H141726   0.083   2.189   4.031 -0.7943  0.7421  0.1592
 6745TIP3    H241727   0.214   2.253   3.989 -0.0598 -1.4925 -1.0760
 6746TIP3   OH241728   3.699   1.846  11.297 -0.5810  0.0101 -0.3199
 6746TIP3    H141729   3.743   1.931  11.286 -0.2943 -0.1054 -0.0651
 6746TIP3    H241730   3.674   1.821  11.208 -1.7417  0.9335 -0.2697
 6747TIP3   OH241731   6.748   4.881  14.440 -0.5078 -0.6254 -0.1109
 6747TIP3    H141732   6.779   4.970  14.457  0.4959 -0.9584 -0.1737
 6747TIP3    H241733   6.699   4.858  14.519 -2.2008  0.5964 -0.7898
 6748TIP3   OH241734   4.664   6.036   4.938  0.0033 -0.6204  0.0471
 6748TIP3    H141735   4.576   6.052   4.972  0.2302 -0.3283  0.4995
 6748TIP3    H241736   4.723   6.063   5.009  0.4452 -1.4400 -0.0029
 6749TIP3   OH241737   6.354   3.190   4.535  0.4432 -0.0785 -0.1607
 6749TIP3    H141738   6.314   3.144   4.462 -0.5601  0.6521 -0.0930
 6749TIP3    H241739   6.308   3.274   4.539  1.5631  0.5306  0.3241
 6750TIP3   OH241740   2.047   0.220  17.135 -0.2798  0.2255  0.2422
 6750TIP3    H141741   1.989   0.156  17.095  0.3129  0.7774 -1.5758
 6750TIP3    H241742   2.131   0.174  17.144 -0.2418  0.2916  0.2355
 6751TIP3   OH241743   5.040   3.676   2.768  0.5482 -0.0170 -0.1782
 6751TIP3    H141744   4.973   3.688   2.701  1.7332 -2.2541 -1.8452
 6751TIP3    H241745   5.122   3.702   2.726  1.2432 -0.9848  0.5493
 6752TIP3   OH241746   6.339   0.992   1.921  0.2363  0.2201 -0.2377
 6752TIP3    H141747   6.286   1.046   1.980 -0.5309 -0.7041 -0.0608
 6752TIP3    H241748   6.274   0.939   1.874  0.8156  1.1906 -2.1560
 6753TIP3   OH241749   4.400   0.430  15.470  0.0615 -0.4812 -0.5948
 6753TIP3    H141750   4.441   0.503  15.424  2.0738 -1.0030  0.3001
 6753TIP3    H241751   4.344   0.388  15.404  0.8356  0.3677 -1.8112
 6754TIP3   OH241752   2.401   4.800   4.252 -0.1677  0.3320 -0.4151
 6754TIP3    H141753   2.335   4.755   4.305  0.7262 -1.7360 -1.0100
 6754TIP3    H241754   2.404   4.888   4.288 -0.6654 -0.5894  2.0146
 6755TIP3   OH241755   2.435   4.732   5.199 -0.1918  0.0238 -0.4835
 6755TIP3    H141756   2.518   4.721   5.153 -1.6160 -0.1355 -3.0818
 6755TIP3    H241757   2.371   4.747   5.130 -2.5417 -1.0526  1.3904
 6756TIP3   OH241758   6.237   4.974  16.395 -0.1303 -0.4144 -0.2125
 6756TIP3    H141759   6.305   4.969  16.328  0.5006 -0.7982  0.4578
 6756TIP3    H241760   6.162   5.013  16.350  0.8174  0.8426 -0.7059
 6757TIP3   OH241761   6.058   5.258  11.895 -0.5156  0.0489 -0.3840
 6757TIP3    H141762   5.979   5.207  11.875 -0.4268 -0.3269  0.1899
 6757TIP3    H241763   6.040   5.345  11.860 -1.4718  0.1565  0.3378
 6758TIP3   OH241764   2.649   6.209  14.036 -1.0717 -0.5217  0.8676
 6758TIP3    H141765   2.711   6.277  14.010 -0.8590 -1.1228 -0.2003
 6758TIP3    H241766   2.654   6.144  13.966 -1.5538 -1.4562  1.6974
 6759TIP3   OH241767   3.367   0.026   5.670 -0.2918 -0.4963 -0.6737
 6759TIP3    H141768   3.382   0.119   5.657 -0.9377 -0.1175  1.1847
 6759TIP3    H241769   3.329   0.019   5.758  1.6878 -2.6975  0.0724
 6760TIP3   OH241770   6.260   1.580  14.274  0.2191 -0.4143  0.3349
 6760TIP3    H141771   6.220   1.499  14.308 -2.2180  0.5087 -0.2306
 6760TIP3    H241772   6.277   1.633  14.352 -0.3315 -0.5224  0.5315
 6761TIP3   OH241773   6.085   6.775  12.702 -0.4631  0.2175  0.1702
 6761TIP3    H141774   6.055   6.859  12.668  0.2718  1.0257  1.4374
 6761TIP3    H241775   6.017   6.713  12.678  0.9905  0.2942 -4.5683
 6762TIP3   OH241776   0.805   5.079  16.046 -0.1126 -0.3452  0.4378
 6762TIP3    H141777   0.795   5.005  16.105 -1.2944 -0.4642  0.0947
 6762TIP3    H241778   0.756   5.055  15.968 -1.1567  1.1181  0.6172
 6763TIP3   OH241779   2.010   3.258  17.098 -0.1619 -0.0698 -0.0585
 6763TIP3    H141780   1.927   3.225  17.134  0.8016 -1.6353  0.7852
 6763TIP3    H241781   2.052   3.303  17.171 -0.8788  1.9613 -0.8648
 6764TIP3   OH241782   2.082   1.022  12.859  0.3259  0.3503  0.3461
 6764TIP3    H141783   2.091   1.090  12.793  0.4806 -0.4147 -0.4279
 6764TIP3    H241784   2.023   1.060  12.925 -0.0578  1.0070 -0.3689
 6765TIP3   OH241785   1.733   1.629   0.136  0.5241  0.2491  0.5836
 6765TIP3    H141786   1.739   1.648   0.043  1.3732  0.4817  0.6808
 6765TIP3    H241787   1.659   1.569   0.144  0.7576 -0.1618 -0.2986
 6766TIP3   OH241788   3.931   2.731   3.829  0.1952  0.0341  0.3871
 6766TIP3    H141789   3.876   2.708   3.903 -0.5515 -1.6316 -0.6756
 6766TIP3    H241790   3.992   2.658   3.820 -0.9509 -0.6866 -1.8119
 6767TIP3   OH241791   2.650   0.004   0.050 -0.2820  0.2697 -0.1815
 6767TIP3    H141792   2.739   0.009   0.015 -0.5812 -1.8246 -1.3195
 6767TIP3    H241793   2.621  -0.085   0.030 -2.0364  0.3959  1.6642
 6768TIP3   OH241794   1.740   4.107  15.280 -0.3134 -0.8594  0.4371
 6768TIP3    H141795   1.666   4.048  15.266  0.4656 -1.8524  0.5032
 6768TIP3    H241796   1.715   4.187  15.233  0.0765 -2.3907 -2.4962
 6769TIP3   OH241797   1.708   3.135   4.199  0.4721 -0.1406  0.5127
 6769TIP3    H141798   1.767   3.195   4.152 -1.0837  1.1766  0.2027
 6769TIP3    H241799   1.653   3.097   4.131 -1.2798  1.1976  1.1398
 6770TIP3   OH241800   0.559   4.154   6.831  0.3330 -0.0813  0.0114
 6770TIP3    H141801   0.520   4.221   6.774 -0.8228 -0.8980 -0.1796
 6770TIP3    H241802   0.485   4.117   6.878  1.0579 -0.7463  0.6316
 6771TIP3   OH241803   3.462   5.093   5.135 -0.4450 -0.3621 -0.1815
 6771TIP3    H141804   3.447   5.016   5.190  0.5675 -0.1575  0.3945
 6771TIP3    H241805   3.544   5.075   5.089 -0.2575  0.3182 -0.1291
 6772TIP3   OH241806   0.838   4.516   4.123  0.6165 -0.0344  0.2204
 6772TIP3    H141807   0.771   4.505   4.190 -0.4664  3.7874 -0.1533
 6772TIP3    H241808   0.790   4.512   4.040  1.2735 -0.0940 -0.1601
 6773TIP3   OH241809   0.618   5.593   5.266  0.1411 -0.2901  0.0327
 6773TIP3    H141810   0.698   5.591   5.213  0.2050 -0.3620  0.1288
 6773TIP3    H241811   0.564   5.522   5.231  0.8145 -1.3124  1.0180
 6774TIP3   OH241812   5.576   5.276  12.353  0.1529 -0.1306 -0.3322
 6774TIP3    H141813   5.547   5.347  12.411 -0.4316 -0.9752  0.4321
 6774TIP3    H241814   5.513   5.276  12.281 -0.0038 -0.0392 -0.1972
 6775TIP3   OH241815   3.342   6.076   0.836  0.5841 -0.5914 -0.2051
 6775TIP3    H141816   3.407   6.057   0.768  0.8724 -1.6298  0.3544
 6775TIP3    H241817   3.393   6.103   0.912  0.2345  1.1344 -0.5672
 6776TIP3   OH241818   2.370   4.658  16.903 -0.0143  0.0257  0.4789
 6776TIP3    H141819   2.349   4.738  16.951 -0.5633 -0.2762  0.7511
 6776TIP3    H241820   2.338   4.674  16.815 -0.4173 -0.0171  0.6169
 6777TIP3   OH241821   5.250   5.520  15.108 -0.0872 -0.4606  0.1118
 6777TIP3    H141822   5.208   5.598  15.072 -0.2775 -1.0376 -0.9204
 6777TIP3    H241823   5.251   5.535  15.202 -0.1002  0.8057 -0.0786
 6778TIP3   OH241824   0.788   2.579  13.565  0.3605 -0.0680  0.0566
 6778TIP3    H141825   0.754   2.581  13.655  0.4815 -0.2279  0.1060
 6778TIP3    H241826   0.816   2.669  13.549  2.8824 -0.6149  1.1641
 6779TIP3   OH241827   1.271   5.323   1.609 -0.3161  0.2946  0.3161
 6779TIP3    H141828   1.227   5.376   1.543 -0.6377  0.7223  0.8634
 6779TIP3    H241829   1.314   5.253   1.560 -1.3868  0.0309 -0.2473
 6780TIP3   OH241830   4.132   1.827   4.137  0.0952  0.0619 -0.2153
 6780TIP3    H141831   4.163   1.827   4.228 -0.8972  0.3213  0.1232
 6780TIP3    H241832   4.091   1.742   4.125 -2.6277  1.1921  0.5791
 6781TIP3   OH241833   1.373   6.026   0.906  0.1464  0.4750  0.0745
 6781TIP3    H141834   1.368   6.099   0.968 -1.5695 -0.0475  0.6035
 6781TIP3    H241835   1.384   5.948   0.962  1.3520  0.2597 -0.4481
 6782TIP3   OH241836   1.153   2.729   2.348 -0.0968  0.4111 -0.4702
 6782TIP3    H141837   1.084   2.713   2.284 -0.4092  0.5601 -0.1754
 6782TIP3    H241838   1.163   2.825   2.349 -1.4195  0.5538  1.0701
 6783TIP3   OH241839   1.941   1.993  13.636 -0.1703 -0.3824  0.5069
 6783TIP3    H141840   1.854   2.010  13.672 -0.0240  0.1694  0.6079
 6783TIP3    H241841   1.959   1.902  13.658  0.1189  0.0718  2.2855
 6784TIP3   OH241842   3.222   1.924  11.434 -0.5073 -0.4911 -0.8969
 6784TIP3    H141843   3.295   1.975  11.398 -0.2379  0.0199  0.3172
 6784TIP3    H241844   3.148   1.945  11.377  0.0287 -0.1210 -1.4665
 6785TIP3   OH241845   1.862   0.634  13.453 -0.4485  0.4804  0.0401
 6785TIP3    H141846   1.916   0.709  13.428 -0.2412  1.3613  3.0116
 6785TIP3    H241847   1.894   0.608  13.539 -1.3964 -2.2135 -0.3829
 6786TIP3   OH241848   1.263   5.094   4.708 -0.8725 -0.3829 -0.1120
 6786TIP3    H141849   1.247   5.139   4.625  0.7203 -0.1820 -0.3273
 6786TIP3    H241850   1.200   5.132   4.769 -1.5553 -0.0066 -1.0391
 6787TIP3   OH241851   6.710   2.849   2.890  0.0878  0.4511 -0.5185
 6787TIP3    H141852   6.689   2.939   2.863 -2.7343 -0.4237 -1.3980
 6787TIP3    H241853   6.684   2.795   2.815 -0.5604 -1.3274  0.9655
 6788TIP3   OH241854   3.141   4.393   6.076 -0.1629  0.0675 -0.1628
 6788TIP3    H141855   3.068   4.385   6.137 -0.7526  0.8878 -0.7496
 6788TIP3    H241856   3.169   4.302   6.060 -3.0003 -0.5036 -2.2654
 6789TIP3   OH241857   2.569   2.264   1.133  0.6969 -0.0016  0.1290
 6789TIP3    H141858   2.543   2.172   1.142 -0.5134  0.1730 -1.4920
 6789TIP3    H241859   2.654   2.269   1.178  1.2169 -2.1275 -0.5530
 6790TIP3   OH241860   3.989   2.271   3.931  0.1062  0.4616  0.4681
 6790TIP3    H141861   4.062   2.238   3.879 -1.1508 -0.8452 -0.4958
 6790TIP3    H241862   4.013   2.362   3.951  1.4607  0.3989 -0.7971
 6791TIP3   OH241863   4.769   3.461  12.537 -0.0002  0.2371 -0.1047
 6791TIP3    H141864   4.760   3.554  12.520  1.9029  0.6235  0.9775
 6791TIP3    H241865   4.760   3.452  12.632 -0.3465 -0.7032 -0.2163
 6792TIP3   OH241866   2.660   4.024   4.713  0.1770  0.6249  0.1614
 6792TIP3    H141867   2.708   3.951   4.752  0.1615  0.6573  0.2408
 6792TIP3    H241868   2.670   4.096   4.777  0.0429  0.6388  0.1669
 6793TIP3   OH241869   0.908   0.398   2.363  0.5615  0.2025  0.1351
 6793TIP3    H141870   0.864   0.451   2.430  0.0701 -0.0244 -0.0064
 6793TIP3    H241871   0.847   0.396   2.290  1.4851  1.2131 -0.6822
 6794TIP3   OH241872   5.562   2.012   2.100 -0.2980 -0.3623  0.1026
 6794TIP3    H141873   5.519   1.937   2.141 -2.6309  0.6423 -0.3936
 6794TIP3    H241874   5.630   2.038   2.162  0.1997 -2.5452  0.5184
 6795TIP3   OH241875   2.779   5.164   2.710  0.2595  0.4309  0.0940
 6795TIP3    H141876   2.685   5.154   2.722  0.1312  0.8095 -0.6048
 6795TIP3    H241877   2.815   5.164   2.799 -0.2920 -0.7786  0.3223
 6796TIP3   OH241878   5.073   6.249  12.220 -0.0425  0.0654 -0.3253
 6796TIP3    H141879   4.991   6.299  12.223  0.3279  0.6387  0.2724
 6796TIP3    H241880   5.136   6.309  12.180 -0.1292 -0.6953 -1.6393
 6797TIP3   OH241881   0.171   5.851   2.854 -0.1268 -0.1281 -0.2235
 6797TIP3    H141882   0.167   5.773   2.800 -2.3168 -0.3682  0.2212
 6797TIP3    H241883   0.235   5.908   2.811 -1.3112 -0.6053 -2.6675
 6798TIP3   OH241884   2.768   6.546  15.332 -0.0869 -0.0737  0.1991
 6798TIP3    H141885   2.705   6.512  15.396  1.0677 -0.1456  1.3068
 6798TIP3    H241886   2.714   6.597  15.271 -1.0485  1.2639  2.0955
 6799TIP3   OH241887   3.131   5.334   1.978  0.3431 -0.1075  0.2936
 6799TIP3    H141888   3.053   5.315   1.927  1.8601 -0.4701 -2.0025
 6799TIP3    H241889   3.144   5.429   1.968  1.3420 -0.3738 -1.0907
 6800TIP3   OH241890   0.734   2.893  16.271 -0.4929 -0.0088  0.3497
 6800TIP3    H141891   0.820   2.857  16.292 -0.2242  0.2788 -0.2278
 6800TIP3    H241892   0.702   2.838  16.199  0.4635  1.6575 -1.3897
 6801TIP3   OH241893   0.820   3.071   3.627 -0.3264 -0.1943  0.0027
 6801TIP3    H141894   0.845   3.001   3.686  0.9387  0.3398  0.1146
 6801TIP3    H241895   0.755   3.122   3.675 -1.1967 -1.2538 -0.0566
 6802TIP3   OH241896   1.412   6.590   2.006  0.1637 -0.4111  0.3218
 6802TIP3    H141897   1.459   6.520   1.962  0.1375 -0.4448  0.3465
 6802TIP3    H241898   1.346   6.545   2.059  1.4337 -0.4999  1.8986
 6803TIP3   OH241899   5.997   3.863   4.042  0.2631 -0.2290  0.3494
 6803TIP3    H141900   6.066   3.853   4.107  0.3149 -0.6811  0.2251
 6803TIP3    H241901   5.917   3.841   4.088  0.2285  0.0667  0.4300
 6804TIP3   OH241902   5.434   1.875  12.687  0.1197  0.1328 -0.2418
 6804TIP3    H141903   5.367   1.818  12.723  0.7393 -0.1449  0.4986
 6804TIP3    H241904   5.459   1.834  12.604  2.2779 -2.0534  1.4053
 6805TIP3   OH241905   4.993   1.261  10.293  0.5688 -0.7802 -0.3153
 6805TIP3    H141906   5.027   1.341  10.333  0.5810 -1.9501  2.0862
 6805TIP3    H241907   5.045   1.191  10.331 -1.8506 -2.2583  0.4246
 6806TIP3   OH241908   3.769   3.502   5.365  0.1095 -0.7767  0.6085
 6806TIP3    H141909   3.742   3.546   5.284  0.2479 -2.6642 -0.4949
 6806TIP3    H241910   3.773   3.572   5.430 -0.9542  0.6143 -0.7844
 6807TIP3   OH241911   3.897   2.459  14.092 -0.0925  0.3432  0.2193
 6807TIP3    H141912   3.870   2.373  14.124  0.8153 -0.2706 -0.6495
 6807TIP3    H241913   3.850   2.469  14.009  0.4188  0.3349 -0.0733
 6808TIP3   OH241914   5.561   5.846  14.586 -0.2898 -0.3502  0.2466
 6808TIP3    H141915   5.554   5.765  14.637 -0.7457  0.8832  2.2084
 6808TIP3    H241916   5.479   5.893  14.604 -1.2409 -0.6509 -3.0587
 6809TIP3   OH241917   1.155   3.443   6.238 -0.1945 -0.3335  0.0438
 6809TIP3    H141918   1.162   3.369   6.179 -1.2727  1.6129 -2.6405
 6809TIP3    H241919   1.076   3.426   6.289 -0.1371 -1.2882 -0.1733
 6810TIP3   OH241920   0.528   3.375   1.782  0.3190  0.4134 -0.0988
 6810TIP3    H141921   0.563   3.374   1.871  1.2051 -0.3258 -0.4387
 6810TIP3    H241922   0.455   3.436   1.785 -0.9213 -1.0896  1.6134
 6811TIP3   OH241923   0.699   5.197   4.964  0.2100 -0.0023 -0.0338
 6811TIP3    H141924   0.624   5.213   4.907  0.1431  0.5186  0.1948
 6811TIP3    H241925   0.737   5.115   4.932  0.1730  0.2898 -0.8260
 6812TIP3   OH241926   2.835   4.621  14.877  0.1813 -0.0300  0.0479
 6812TIP3    H141927   2.884   4.547  14.840 -0.4948  0.3618 -1.6598
 6812TIP3    H241928   2.885   4.698  14.851 -0.2288  0.2467  0.0883
 6813TIP3   OH241929   2.568   5.277  10.759  0.2410  0.5489 -0.0059
 6813TIP3    H141930   2.526   5.223  10.693  1.3342  0.8054 -0.9262
 6813TIP3    H241931   2.545   5.367  10.735  0.4383  0.6290  0.0947
 6814TIP3   OH241932   2.620   1.260   3.805  0.3438  0.0434  0.1276
 6814TIP3    H141933   2.616   1.356   3.808 -0.7316 -0.0206  1.7372
 6814TIP3    H241934   2.687   1.237   3.869  0.1152 -0.2947  0.2461
 6815TIP3   OH241935   1.448   5.110  12.488 -0.1705 -0.0537  0.0353
 6815TIP3    H141936   1.412   5.116  12.399 -0.1101  0.9558  0.0683
 6815TIP3    H241937   1.415   5.027  12.522  0.5837 -0.8912 -1.2711
 6816TIP3   OH241938   3.893   2.873  15.504  0.1271  0.1753  0.4284
 6816TIP3    H141939   3.932   2.866  15.417 -0.0208  0.4166  0.3431
 6816TIP3    H241940   3.812   2.822  15.499  0.2198  0.0192  0.4871
 6817TIP3   OH241941   2.009   1.128   5.654 -0.1381 -0.2185  0.1727
 6817TIP3    H141942   1.993   1.223   5.651  2.1688  0.2529  1.9569
 6817TIP3    H241943   2.002   1.100   5.562 -0.4069  1.7416 -0.4248
 6818TIP3   OH241944   0.207   2.974  15.440 -0.2084  0.1678  0.2168
 6818TIP3    H141945   0.199   2.944  15.530 -1.7975 -2.5900 -0.7768
 6818TIP3    H241946   0.123   3.015  15.420 -1.3463 -2.6944 -1.1543
 6819TIP3   OH241947   3.599   2.135   0.674 -0.3062  0.2489 -0.0651
 6819TIP3    H141948   3.516   2.181   0.690 -1.1810 -0.8257 -1.3584
 6819TIP3    H241949   3.577   2.042   0.684  1.1691  0.0356  1.3396
 6820TIP3   OH241950   2.069   6.801   5.897 -0.3244  0.3729 -0.5668
 6820TIP3    H141951   2.028   6.887   5.908 -1.1612 -0.0333 -0.4784
 6820TIP3    H241952   2.162   6.818   5.906 -0.6285  0.8686  2.1671
 6821TIP3   OH241953   4.521   5.988   4.165  0.5867 -0.8778  0.1150
 6821TIP3    H141954   4.548   5.984   4.256  1.8089 -0.3581 -0.2139
 6821TIP3    H241955   4.500   5.897   4.142  0.4542 -1.0312  0.8485
 6822TIP3   OH241956   0.575   0.316  15.834  0.1355 -0.3792 -0.1858
 6822TIP3    H141957   0.502   0.265  15.869  1.3022 -0.8047  1.6698
 6822TIP3    H241958   0.584   0.390  15.894 -1.2986  1.8797 -2.6372
 6823TIP3   OH241959   1.771   0.492  14.341 -0.2317 -0.3062 -0.1236
 6823TIP3    H141960   1.845   0.476  14.400 -0.1725 -0.4779 -0.2443
 6823TIP3    H241961   1.699   0.443  14.380 -0.3407  0.0502  0.1207
 6824TIP3   OH241962   6.687   2.648   3.777 -0.1667 -0.2006 -0.2219
 6824TIP3    H141963   6.627   2.721   3.795 -0.7428 -0.5463 -0.7174
 6824TIP3    H241964   6.696   2.603   3.861  1.6794  1.5294  0.5483
 6825TIP3   OH241965   2.570   2.542  16.831  0.1432 -0.6467 -0.4081
 6825TIP3    H141966   2.589   2.518  16.922 -1.4050 -0.5543 -0.0424
 6825TIP3    H241967   2.479   2.517  16.818  0.7662 -2.0048 -2.4056
 6826TIP3   OH241968   2.086   4.110   5.661  0.4923  0.3608  0.0350
 6826TIP3    H141969   2.087   4.186   5.603 -0.0699  0.6461  0.3951
 6826TIP3    H241970   2.161   4.123   5.719 -0.7139  1.6357  1.3532
 6827TIP3   OH241971   3.477   2.632  11.805 -0.6242 -0.0570 -0.1942
 6827TIP3    H141972   3.491   2.725  11.790  1.4398 -0.0009  1.6997
 6827TIP3    H241973   3.420   2.629  11.882  0.4286 -0.3421  0.5851
 6828TIP3   OH241974   1.443   4.572  12.869  0.1249 -0.4069 -0.5810
 6828TIP3    H141975   1.478   4.565  12.958 -0.8845  2.2577  0.0590
 6828TIP3    H241976   1.475   4.493  12.824  4.9958  0.7207  0.6307
 6829TIP3   OH241977   0.414   5.800  13.582  0.1586 -0.2224 -0.0873
 6829TIP3    H141978   0.379   5.757  13.660  1.7247  0.4398  0.9831
 6829TIP3    H241979   0.400   5.894  13.598 -0.1023 -0.1228 -0.8851
 6830TIP3   OH241980   3.314   3.438  17.054 -0.1535 -0.5974  0.2485
 6830TIP3    H141981   3.240   3.431  16.994 -0.1008 -1.6823  0.2989
 6830TIP3    H241982   3.320   3.352  17.095  0.0176  0.0272  1.5765
 6831TIP3   OH241983   1.913   6.040  14.901 -0.0735 -0.7445 -0.5492
 6831TIP3    H141984   1.941   6.123  14.941  1.7583 -0.9079 -1.4338
 6831TIP3    H241985   1.834   6.016  14.949 -0.2367  1.1587  0.1944
 6832TIP3   OH241986   1.841   4.489  15.016  0.1411 -0.4815 -0.2556
 6832TIP3    H141987   1.838   4.581  14.992 -0.3936 -0.2521  0.6507
 6832TIP3    H241988   1.898   4.448  14.951  1.4641  0.7391  0.1199
 6833TIP3   OH241989   3.548   1.211   3.729  0.1237 -0.1156 -0.8556
 6833TIP3    H141990   3.525   1.277   3.794  0.2635 -0.9920  0.0929
 6833TIP3    H241991   3.639   1.231   3.706  0.2178 -0.0728 -0.4552
 6834TIP3   OH241992   0.979   4.467  15.073  0.2329 -0.5278  0.0347
 6834TIP3    H141993   0.964   4.516  14.993  2.2689 -0.0674 -0.1040
 6834TIP3    H241994   1.052   4.408  15.052 -0.8443 -2.1842  0.7995
 6835TIP3   OH241995   0.099   6.649  15.669 -0.1659  0.5227  0.7752
 6835TIP3    H141996   0.033   6.634  15.737 -0.3632  1.6960  0.8505
 6835TIP3    H241997   0.140   6.563  15.656  0.2951  0.4097  2.8236
 6836TIP3   OH241998   2.279   1.377  16.389 -0.1587 -0.3869  0.8262
 6836TIP3    H141999   2.192   1.354  16.356 -0.1716  0.4393  0.2577
 6836TIP3    H242000   2.321   1.422  16.316  0.6172 -0.4620  1.2190
 6837TIP3   OH242001   6.627   4.184  12.471 -0.1060 -0.9262  0.5322
 6837TIP3    H142002   6.640   4.241  12.396  0.5491  0.3107  1.5751
 6837TIP3    H242003   6.537   4.153  12.462 -0.6839  0.7761  0.3031
 6838TIP3   OH242004   0.080   2.317   4.312 -0.7811  0.2431 -0.3521
 6838TIP3    H142005   0.108   2.286   4.226 -0.0398  1.2300 -0.4693
 6838TIP3    H242006   0.001   2.369   4.294  1.0929  3.0194 -0.8307
 6839TIP3   OH242007   4.864   2.109   0.294 -0.3032  0.2270  0.0771
 6839TIP3    H142008   4.780   2.065   0.285 -0.5436  0.6389  0.3047
 6839TIP3    H242009   4.860   2.153   0.378 -0.2025  0.9696 -0.3021
 6840TIP3   OH242010   6.720   5.995   4.818  0.0407 -0.8689 -0.5313
 6840TIP3    H142011   6.677   5.914   4.790  1.2801 -1.2835 -1.2524
 6840TIP3    H242012   6.710   6.054   4.743  1.2610 -1.1824 -0.9623
 6841TIP3   OH242013   2.476   0.664   4.458 -0.2228  0.4671  0.4158
 6841TIP3    H142014   2.396   0.685   4.410  0.1789 -0.5260 -0.7135
 6841TIP3    H242015   2.479   0.568   4.459  1.4702  0.4921 -0.4537
 6842TIP3   OH242016   3.155   3.521  16.151 -0.0831 -0.0630  0.0408
 6842TIP3    H142017   3.172   3.598  16.205 -1.6327 -0.5515  1.2708
 6842TIP3    H242018   3.095   3.553  16.083 -1.2282 -0.3175  0.9241
 6843TIP3   OH242019   4.465   6.602  11.783  0.4735 -0.1930 -0.2561
 6843TIP3    H142020   4.478   6.511  11.755 -0.7469 -0.4528 -0.0319
 6843TIP3    H242021   4.386   6.630  11.736  0.1832  0.3679  0.5476
 6844TIP3   OH242022   2.937   2.089  16.335 -0.1967 -0.0883  0.1695
 6844TIP3    H142023   2.982   2.142  16.270 -0.3099 -0.1307  0.0584
 6844TIP3    H242024   3.005   2.034  16.374 -0.2169 -0.4195 -0.2621
 6845TIP3   OH242025   2.156   4.404   3.509 -0.5586  0.2733 -0.0420
 6845TIP3    H142026   2.157   4.447   3.595  0.9902  0.0753  0.0581
 6845TIP3    H242027   2.181   4.473   3.448 -0.4460  0.1147 -0.1765
 6846TIP3   OH242028   6.265   4.789  13.116  0.0803 -0.5398 -0.2250
 6846TIP3    H142029   6.252   4.880  13.089 -0.0061 -0.5446 -0.1990
 6846TIP3    H242030   6.273   4.741  13.033  1.2649 -0.3417 -0.2372
 6847TIP3   OH242031   4.808   6.030  16.016  0.1191 -0.1517  0.3522
 6847TIP3    H142032   4.764   5.985  15.944 -0.6796 -0.6872  1.1693
 6847TIP3    H242033   4.899   6.037  15.988  0.0125 -1.2524 -0.2792
 6848TIP3   OH242034   2.393   2.427  13.979 -0.1069  0.1072 -0.2001
 6848TIP3    H142035   2.445   2.347  13.971 -1.2778 -1.0639  3.1434
 6848TIP3    H242036   2.308   2.398  14.011 -0.7900  2.6307  0.3911
 6849TIP3   OH242037   5.128   4.416   1.480  0.1970 -0.1468  0.5973
 6849TIP3    H142038   5.198   4.355   1.506  1.0867  1.6892  2.6361
 6849TIP3    H242039   5.167   4.469   1.411  0.3799  0.0334  0.8402
 6850TIP3   OH242040   5.759   3.127  12.834 -0.2647 -0.0777  0.3323
 6850TIP3    H142041   5.683   3.115  12.777 -1.8162  1.7057  1.9294
 6850TIP3    H242042   5.833   3.092  12.784 -2.4179 -3.8750 -0.3783
 6851TIP3   OH242043   4.143   4.925  15.765 -0.4182 -0.6736 -0.1071
 6851TIP3    H142044   4.178   5.014  15.763  0.4082 -0.9176  2.3640
 6851TIP3    H242045   4.048   4.937  15.768 -0.3281  0.1020 -0.1658
 6852TIP3   OH242046   1.770   4.911  16.457 -0.4917  0.3718  0.7137
 6852TIP3    H142047   1.727   4.996  16.453  1.1237  1.1470 -1.7657
 6852TIP3    H242048   1.727   4.860  16.389  1.6443  0.7893 -1.0181
 6853TIP3   OH242049   0.150   1.746  14.087 -0.1009 -0.0816 -0.3471
 6853TIP3    H142050   0.096   1.675  14.122  1.1884 -0.4031  1.0464
 6853TIP3    H242051   0.113   1.765  14.001 -0.9737 -1.8890 -0.3845
 6854TIP3   OH242052   5.902   4.175   5.583 -0.2009  0.1696  0.0967
 6854TIP3    H142053   5.930   4.107   5.643  0.2813  0.5711  0.3259
 6854TIP3    H242054   5.879   4.129   5.502 -2.8092 -0.6031  1.2326
 6855TIP3   OH242055   3.539   3.971  12.677 -0.4209 -0.9166 -0.3511
 6855TIP3    H142056   3.515   3.928  12.759 -0.3361 -1.4015 -0.5796
 6855TIP3    H242057   3.587   4.049  12.705  0.4470 -1.5855  0.0555
 6856TIP3   OH242058   0.228   5.374   6.142  0.0617  0.5478 -0.7025
 6856TIP3    H142059   0.171   5.437   6.186 -0.7270  0.5296 -1.6801
 6856TIP3    H242060   0.307   5.423   6.120 -0.0773  0.8876 -0.4386
 6857TIP3   OH242061   4.105   4.636   3.904 -0.1281 -0.0736 -0.8134
 6857TIP3    H142062   4.103   4.580   3.827  1.2663 -1.9285  0.4646
 6857TIP3    H242063   4.115   4.575   3.978 -0.0042  1.7556  0.7130
 6858TIP3   OH242064   4.564   5.097  14.477  0.2084  0.2126 -0.2878
 6858TIP3    H142065   4.607   5.115  14.393 -0.9288 -2.6667 -1.5407
 6858TIP3    H242066   4.479   5.140  14.470  0.1000 -0.0545 -0.6327
 6859TIP3   OH242067   5.564   1.941  16.889 -0.4563  0.1716  0.0729
 6859TIP3    H142068   5.536   2.031  16.905  1.7526  1.3028 -2.1457
 6859TIP3    H242069   5.575   1.936  16.794  0.8765 -2.0124  0.3143
 6860TIP3   OH242070   5.814   0.879   1.349  0.2698 -0.0248  0.1680
 6860TIP3    H142071   5.811   0.784   1.357 -0.5738 -0.1345 -1.3525
 6860TIP3    H242072   5.796   0.910   1.438 -0.5849 -1.2815  0.4597
 6861TIP3   OH242073   2.654   1.914  13.573 -0.0705  0.7421 -0.2344
 6861TIP3    H142074   2.647   1.997  13.620  0.6833  1.3133 -1.1182
 6861TIP3    H242075   2.691   1.853  13.637 -0.0745  1.2294  0.2356
 6862TIP3   OH242076   1.235   2.140   4.496  0.2488 -0.5555  0.0320
 6862TIP3    H142077   1.196   2.197   4.430  0.0263 -0.3607  0.3325
 6862TIP3    H242078   1.249   2.057   4.451  1.1099 -0.0839 -0.5708
 6863TIP3   OH242079   6.552   6.420   0.222  0.3954 -0.0451  0.6192
 6863TIP3    H142080   6.574   6.502   0.268 -1.6643  1.7780 -1.5253
 6863TIP3    H242081   6.621   6.411   0.157 -0.1182  0.7242 -0.0360
 6864TIP3   OH242082   3.834   1.943   1.556  0.2169  0.5351 -0.3641
 6864TIP3    H142083   3.834   1.927   1.651 -3.1528 -0.1771 -0.4212
 6864TIP3    H242084   3.798   2.031   1.546  2.7676  1.5452 -0.9028
 6865TIP3   OH242085   2.331   4.285   4.946 -0.2823  0.1865 -0.2020
 6865TIP3    H142086   2.275   4.208   4.960  0.9103 -0.7037 -0.2925
 6865TIP3    H242087   2.374   4.268   4.862  1.4105  0.0640  0.6733
 6866TIP3   OH242088   6.525   1.410  16.611  0.0173  0.2316  0.0537
 6866TIP3    H142089   6.531   1.361  16.529 -1.4010  1.9891 -1.1378
 6866TIP3    H242090   6.613   1.444  16.626  0.1919  0.2232 -0.9475
 6867TIP3   OH242091   4.783   3.876   4.160 -0.4025 -0.2221 -0.5325
 6867TIP3    H142092   4.784   3.817   4.084  0.7066  1.2253 -1.6510
 6867TIP3    H242093   4.702   3.853   4.205 -2.6110  0.8898 -3.7364
 6868TIP3   OH242094   6.360   3.418  12.921 -0.1211 -0.2051 -0.2024
 6868TIP3    H142095   6.430   3.415  12.986  0.5098 -0.5851 -0.8898
 6868TIP3    H242096   6.320   3.504  12.933  0.9082  0.2957 -0.2570
 6869TIP3   OH242097   5.713   4.760  11.952  0.1275  0.1261  0.4630
 6869TIP3    H142098   5.806   4.770  11.930 -0.0506  2.4291  0.5680
 6869TIP3    H242099   5.704   4.806  12.036 -0.9055 -1.0162  0.9944
 6870TIP3   OH242100   3.145   4.933  12.587  0.0848  0.0221 -0.3520
 6870TIP3    H142101   3.086   4.990  12.636 -2.9209  0.4969 -4.2473
 6870TIP3    H242102   3.213   4.992  12.553  0.1123  0.3126  0.2054
 6871TIP3   OH242103   4.009   4.735  16.953  0.5925 -0.0619  0.5649
 6871TIP3    H142104   4.009   4.699  17.041  0.2120 -0.8330  0.2526
 6871TIP3    H242105   4.101   4.730  16.925  0.6194 -0.3470  0.7044
 6872TIP3   OH242106   3.285   4.141  14.866  0.4131  0.2378  0.4842
 6872TIP3    H142107   3.355   4.077  14.858 -1.4815 -1.5516 -2.3092
 6872TIP3    H242108   3.318   4.219  14.821  1.7099  0.4213  1.7081
 6873TIP3   OH242109   2.479   4.412   5.617 -0.1831 -0.1110 -0.8362
 6873TIP3    H142110   2.557   4.407   5.672  0.0503 -0.0306 -1.1621
 6873TIP3    H242111   2.511   4.442   5.532 -0.7354  1.0382 -0.6460
 6874TIP3   OH242112   0.615   3.831  17.046  0.3672 -0.0158  0.5400
 6874TIP3    H142113   0.586   3.848  16.956 -0.9247  1.8820  1.3005
 6874TIP3    H242114   0.536   3.839  17.099  1.5338  1.1935  2.1373
 6875TIP3   OH242115   0.032   1.087   1.753  0.2067 -0.4021  0.3559
 6875TIP3    H142116   0.039   1.002   1.795  1.2140 -0.0370  0.9397
 6875TIP3    H242117  -0.005   1.144   1.820  0.9875 -0.0272  0.4789
 6876TIP3   OH242118   4.225   4.631  12.614  0.7218 -0.4936  0.0266
 6876TIP3    H142119   4.192   4.541  12.609  1.7275 -0.9299  0.9940
 6876TIP3    H242120   4.279   4.632  12.693 -0.8512  1.4716  1.1326
 6877TIP3   OH242121   3.416   5.315  16.687  0.8247 -0.5363 -0.1695
 6877TIP3    H142122   3.396   5.385  16.624  0.7913 -0.2554  0.1517
 6877TIP3    H242123   3.503   5.337  16.719 -0.1838  0.7655  1.8087
 6878TIP3   OH242124   4.588   4.519  16.961  0.2708 -0.1877 -0.1293
 6878TIP3    H142125   4.656   4.532  16.896  1.2549 -0.7756  0.7591
 6878TIP3    H242126   4.538   4.444  16.929  1.4186 -1.1592  0.3325
 6879TIP3   OH242127   6.695   6.225  13.907 -0.1281  0.2131 -0.9297
 6879TIP3    H142128   6.652   6.253  13.988  0.7980  0.3648 -0.4872
 6879TIP3    H242129   6.733   6.140  13.927  0.5462  0.4829 -1.0409
 6880TIP3   OH242130   0.142   5.735   4.906 -0.5765 -0.3515  0.3205
 6880TIP3    H142131   0.125   5.686   4.826  0.1789 -2.6525  1.5096
 6880TIP3    H242132   0.203   5.803   4.881  0.0692 -1.3801 -0.9687
 6881TIP3   OH242133   5.192   2.165  10.990  0.2751 -0.3254 -0.0422
 6881TIP3    H142134   5.153   2.222  10.923 -0.8950 -2.7818 -1.5246
 6881TIP3    H242135   5.168   2.206  11.073 -1.7182  0.6164 -1.0375
 6882TIP3   OH242136   0.517   6.525  16.560 -0.0017 -0.7600  0.2136
 6882TIP3    H142137   0.502   6.431  16.553  0.4574 -0.7258 -1.6477
 6882TIP3    H242138   0.610   6.534  16.579 -0.4194 -0.7263  2.2642
 6883TIP3   OH242139   5.276   1.644  16.922 -0.7835  0.1037 -0.3167
 6883TIP3    H142140   5.236   1.618  16.839 -0.7660 -0.7244 -0.0707
 6883TIP3    H242141   5.325   1.567  16.950 -0.4562  0.5177  0.2609
 6884TIP3   OH242142   5.119   2.458  11.839  0.3091 -0.8352  0.0959
 6884TIP3    H142143   5.030   2.425  11.851  0.3679 -0.4211  1.8940
 6884TIP3    H242144   5.174   2.397  11.889  1.0152 -0.9419 -0.7897
 6885TIP3   OH242145   3.496   0.966  14.835  0.5837 -0.0063 -0.7305
 6885TIP3    H142146   3.454   0.898  14.781  2.5901 -0.9838 -1.1251
 6885TIP3    H242147   3.574   0.991  14.784  2.1373 -0.4445  1.3798
 6886TIP3   OH242148   2.709   1.797  12.663  0.2439  0.5384 -0.2119
 6886TIP3    H142149   2.793   1.753  12.652  0.2943  0.6489 -0.2732
 6886TIP3    H242150   2.730   1.877  12.710  0.2506  0.8278 -0.7024
 6887TIP3   OH242151   4.565   1.132  15.547 -0.1223 -0.1010 -0.8378
 6887TIP3    H142152   4.499   1.132  15.478  1.5132 -0.8143 -2.4334
 6887TIP3    H242153   4.569   1.223  15.576 -0.0280  0.4357 -2.4893
 6888TIP3   OH242154   5.053   5.229  17.289 -0.1192  0.4191 -0.1580
 6888TIP3    H142155   5.140   5.198  17.312 -0.6042  0.5536  1.9258
 6888TIP3    H242156   5.028   5.176  17.213  0.3913 -1.9867  1.3370
 6889TIP3   OH242157   3.934   0.109   0.315  0.5976  0.0224 -0.5239
 6889TIP3    H142158   3.861   0.078   0.262  1.3458 -4.2780  0.7522
 6889TIP3    H242159   3.897   0.119   0.403  0.3845  2.9500 -0.8935
 6890TIP3   OH242160   1.809   5.076  11.177 -0.3605  0.0658  0.2399
 6890TIP3    H142161   1.900   5.103  11.164 -0.7420  0.8654 -0.8267
 6890TIP3    H242162   1.781   5.045  11.092 -0.2375 -2.8770  1.2302
 6891TIP3   OH242163   4.704   0.731   4.057 -0.2999 -0.5944  0.1868
 6891TIP3    H142164   4.663   0.748   4.141  1.4154 -0.5869  1.0410
 6891TIP3    H242165   4.697   0.814   4.010 -2.1883 -0.8928 -0.1091
 6892TIP3   OH242166   0.849   3.393  11.451 -0.1983  0.5466  0.3958
 6892TIP3    H142167   0.776   3.335  11.433 -1.2458  2.0331 -0.1861
 6892TIP3    H242168   0.811   3.466  11.499  1.1102  0.7475  1.1636
 6893TIP3   OH242169   1.588   3.479   0.126  0.3708 -0.1591  0.0806
 6893TIP3    H142170   1.617   3.563   0.089 -1.2670 -0.5024 -2.1419
 6893TIP3    H242171   1.506   3.500   0.171 -0.1075 -0.5764 -0.5863
 6894TIP3   OH242172   5.716   5.774  13.482 -0.1478  0.2937  0.0487
 6894TIP3    H142173   5.645   5.734  13.532  0.5104  1.6868  2.1509
 6894TIP3    H242174   5.675   5.849  13.437 -0.6168 -0.6376 -1.1116
 6895TIP3   OH242175   2.000   6.492  12.233  0.2689  0.3271  1.0852
 6895TIP3    H142176   2.090   6.511  12.204  0.3408 -2.5892 -0.8144
 6895TIP3    H242177   1.945   6.518  12.159 -0.3156  0.6652  1.6362
 6896TIP3   OH242178   4.236   1.825  10.951  0.4353  0.3407  0.4002
 6896TIP3    H142179   4.320   1.850  10.990  0.2300  1.8180 -0.0839
 6896TIP3    H242180   4.223   1.887  10.879  0.1564 -1.4858 -1.1771
 6897TIP3   OH242181   0.399   0.564   1.935  0.4544 -0.0520  0.2483
 6897TIP3    H142182   0.422   0.643   1.985  4.3112 -1.0801  0.3178
 6897TIP3    H242183   0.371   0.596   1.850  1.1228  1.4532  0.5809
 6898TIP3   OH242184   3.389   5.312  17.136 -0.4281  0.7530 -0.0685
 6898TIP3    H142185   3.428   5.348  17.057 -0.3306  0.4604 -0.1547
 6898TIP3    H242186   3.463   5.298  17.196 -0.2522 -0.8777 -0.6515
 6899TIP3   OH242187   2.289   0.124  17.155 -0.0026 -0.5884  0.4196
 6899TIP3    H142188   2.337   0.090  17.230 -0.7089 -1.7999  0.3242
 6899TIP3    H242189   2.318   0.071  17.081 -0.1674 -0.1562  0.0401
 6900TIP3   OH242190   5.005   0.050  12.303  0.5601 -0.2982 -0.0152
 6900TIP3    H142191   4.974   0.004  12.381  0.9795  0.0986  0.3843
 6900TIP3    H242192   5.094   0.018  12.289  0.2882 -0.7761 -0.6495
 6901TIP3   OH242193   0.234   4.142   3.709 -0.5114  0.1561  0.1172
 6901TIP3    H142194   0.224   4.059   3.756 -1.3675  0.0531 -0.2286
 6901TIP3    H242195   0.287   4.120   3.632 -0.8157 -0.0942 -0.0236
 6902TIP3   OH242196   4.138   5.451   2.585  0.0070 -0.2836  0.0027
 6902TIP3    H142197   4.217   5.434   2.638 -0.7382 -1.9899  0.6228
 6902TIP3    H242198   4.168   5.442   2.495  0.7915  0.3207  0.1921
 6903TIP3   OH242199   3.537   4.014  16.402  0.0949 -0.0691  0.0540
 6903TIP3    H142200   3.600   4.046  16.467 -0.0850 -2.3957  1.4326
 6903TIP3    H242201   3.488   4.093  16.376  1.9901  1.3678  0.7002
 6904TIP3   OH242202   6.787   5.780  15.147 -0.1404 -0.9249 -0.0575
 6904TIP3    H142203   6.851   5.820  15.088 -2.3140  0.3784 -1.6346
 6904TIP3    H242204   6.788   5.687  15.124 -1.2082 -0.3839 -2.4820
 6905TIP3   OH242205   2.801   5.724   4.607 -0.3676 -0.3610  0.1642
 6905TIP3    H142206   2.721   5.689   4.570  0.5254 -1.3196 -0.9096
 6905TIP3    H242207   2.801   5.817   4.584 -1.3600 -0.2750  0.5229
 6906TIP3   OH242208   1.930   3.582   2.901  0.3070  0.2990  0.1978
 6906TIP3    H142209   1.949   3.505   2.847  1.2937 -0.0299  1.0160
 6906TIP3    H242210   1.835   3.577   2.917  0.1453 -0.0384 -0.8202
 6907TIP3   OH242211   1.008   0.536   5.511 -0.0940 -0.0950 -0.1857
 6907TIP3    H142212   1.002   0.459   5.454 -1.0108 -1.4822  1.7344
 6907TIP3    H242213   1.065   0.596   5.463 -0.3625 -1.4553 -2.2928
 6908TIP3   OH242214   3.698   4.277  10.799 -0.3579  0.0177  0.1232
 6908TIP3    H142215   3.655   4.354  10.761 -0.7237  0.4390  1.3653
 6908TIP3    H242216   3.786   4.278  10.762 -0.4293  0.9138 -0.0344
 6909TIP3   OH242217   4.094   2.136  12.550  0.0354 -0.1437 -0.0450
 6909TIP3    H142218   4.163   2.192  12.515  2.1065 -1.2605  2.0328
 6909TIP3    H242219   4.064   2.182  12.629 -1.9699  0.5760 -1.2139
 6910TIP3   OH242220   1.623   2.989  13.818 -0.0469  0.2704  0.1250
 6910TIP3    H142221   1.663   2.956  13.898  0.9496 -1.7104 -1.1246
 6910TIP3    H242222   1.695   3.029  13.770  0.1338 -1.7291 -1.3426
 6911TIP3   OH242223   5.781   6.007  14.207  0.2615  0.3835 -0.2141
 6911TIP3    H142224   5.823   5.991  14.292 -0.5900 -0.6030  0.0246
 6911TIP3    H242225   5.787   6.101  14.195 -1.4901  0.7917  1.9282
 6912TIP3   OH242226   0.209   2.936  10.709  0.2995  0.0396  0.4613
 6912TIP3    H142227   0.178   3.026  10.696 -0.1958 -0.2924 -0.7164
 6912TIP3    H242228   0.301   2.946  10.734  0.7214  0.8251 -1.2969
 6913TIP3   OH242229   1.506   3.984   6.456  0.4106  0.4890  0.3797
 6913TIP3    H142230   1.420   4.017   6.480  0.3388 -0.7188  1.8666
 6913TIP3    H242231   1.564   4.059   6.466 -0.3148  1.0716  0.2864
 6914TIP3   OH242232   6.134   5.750  13.902  0.8120  0.0822  0.2402
 6914TIP3    H142233   6.071   5.810  13.943 -0.4563 -1.6517  0.9260
 6914TIP3    H242234   6.122   5.762  13.808 -2.9573 -2.5258  0.2655
 6915TIP3   OH242235   0.956   0.564  13.160  0.4044  0.1877 -0.2753
 6915TIP3    H142236   0.908   0.644  13.183 -2.0674 -1.3295  0.0212
 6915TIP3    H242237   1.011   0.547  13.237  0.9334  1.5878 -0.3332
 6916TIP3   OH242238   5.000   1.899  12.233 -0.3321  0.3239 -0.3501
 6916TIP3    H142239   5.083   1.909  12.187  0.3389  1.0033  0.9735
 6916TIP3    H242240   4.999   1.971  12.296 -1.9390  0.3363 -0.3796
 6917TIP3   OH242241   6.224   5.363   0.653  0.3735 -0.7339  0.4895
 6917TIP3    H142242   6.239   5.402   0.567 -0.1969 -1.4287  0.0801
 6917TIP3    H242243   6.226   5.269   0.638 -0.0538 -0.8554  1.1871
 6918TIP3   OH242244   1.662   5.915   1.427  0.8126  1.0543  0.1312
 6918TIP3    H142245   1.685   5.984   1.366 -0.2255  1.6629  0.4217
 6918TIP3    H242246   1.568   5.906   1.419  1.1123 -1.3663 -0.9887
 6919TIP3   OH242247   4.450   5.730  16.491  0.3999  0.1235  0.0492
 6919TIP3    H142248   4.542   5.750  16.475  0.3936  0.3137  0.2527
 6919TIP3    H242249   4.440   5.639  16.463  0.8109 -0.1226  0.6944
 6920TIP3   OH242250   4.780   5.218   2.399 -0.5628  0.5424  0.3424
 6920TIP3    H142251   4.690   5.184   2.405 -1.2153  1.8695 -1.3897
 6920TIP3    H242252   4.771   5.311   2.418  0.9239  0.1686  3.1312
 6921TIP3   OH242253   5.070   0.952  11.822  0.0027 -0.3006  0.5146
 6921TIP3    H142254   5.049   1.043  11.846  2.0271 -0.3908  2.9063
 6921TIP3    H242255   5.071   0.952  11.726 -1.7438  1.7658  0.4506
 6922TIP3   OH242256   2.329   4.604  13.345  0.1512 -0.1416  0.0990
 6922TIP3    H142257   2.253   4.633  13.396 -0.3447  0.0848 -0.7693
 6922TIP3    H242258   2.382   4.684  13.335 -1.3265  0.5491 -2.4887
 6923TIP3   OH242259   4.817   0.223  12.154 -0.5389  0.5780  0.3856
 6923TIP3    H142260   4.791   0.242  12.244 -1.2455  0.1867  0.2662
 6923TIP3    H242261   4.891   0.163  12.163 -1.4282 -0.4942  0.6988
 6924TIP3   OH242262   4.713   5.339  15.767  0.4330  0.4252  0.3354
 6924TIP3    H142263   4.695   5.426  15.803 -0.3003 -0.2225  1.5478
 6924TIP3    H242264   4.674   5.341  15.680  0.0152  1.1575  0.5329
 6925TIP3   OH242265   2.531   5.992  15.573 -0.5696  0.1060 -0.4147
 6925TIP3    H142266   2.547   5.898  15.579  0.2633  0.3831  2.5062
 6925TIP3    H242267   2.585   6.030  15.642 -2.2537  2.5456 -0.3761
 6926TIP3   OH242268   3.251   1.107  11.550 -0.1333  0.0488  0.3646
 6926TIP3    H142269   3.309   1.180  11.573  0.7090 -0.2209 -0.8324
 6926TIP3    H242270   3.311   1.037  11.523 -0.9867 -0.5376 -0.0179
 6927TIP3   OH242271   3.689   5.355   2.221  0.4608  0.1757  0.2330
 6927TIP3    H142272   3.705   5.403   2.140 -0.0196 -0.4633 -0.2454
 6927TIP3    H242273   3.742   5.275   2.212  0.6038  0.2197  0.6596
 6928TIP3   OH242274   0.350   0.459  14.422  0.0324 -0.4957 -0.2767
 6928TIP3    H142275   0.383   0.429  14.337 -1.1598  1.1228 -1.3355
 6928TIP3    H242276   0.423   0.509  14.460  0.4252 -0.8872 -0.5047
 6929TIP3   OH242277   1.180   5.661  11.899  0.3112 -0.1046 -0.3438
 6929TIP3    H142278   1.202   5.726  11.966 -0.6184 -1.0067  0.8523
 6929TIP3    H242279   1.145   5.713  11.826 -1.4306  0.6920  1.0036
 6930TIP3   OH242280   2.377   2.075  13.795 -0.2645 -0.5548 -0.2875
 6930TIP3    H142281   2.460   2.091  13.750  1.5718 -2.8420  2.1395
 6930TIP3    H242282   2.390   2.108  13.884 -2.2602 -0.2048 -0.0845
 6931TIP3   OH242283   0.536   4.775  13.254  0.1848 -0.5381 -0.3796
 6931TIP3    H142284   0.478   4.705  13.285  1.5752 -1.5481 -0.0335
 6931TIP3    H242285   0.489   4.856  13.277 -0.9346 -1.3293  0.1965
 6932TIP3   OH242286   0.465   3.662  12.967 -0.1345 -0.0477  0.0161
 6932TIP3    H142287   0.423   3.745  12.990  0.9158  0.4475  0.2163
 6932TIP3    H242288   0.467   3.613  13.049  1.5599  0.7905  0.4947
 6933TIP3   OH242289   1.105   3.067   0.198 -0.6345 -0.0886  0.1086
 6933TIP3    H142290   1.174   3.000   0.201  0.4672  1.0432  0.2877
 6933TIP3    H242291   1.024   3.017   0.192  0.1053 -1.4829  1.4010
 6934TIP3   OH242292   6.813   5.136   5.310  0.8214  0.3027 -0.0505
 6934TIP3    H142293   6.762   5.060   5.282 -2.6944  2.1593  0.9534
 6934TIP3    H242294   6.890   5.135   5.254  1.1231 -4.2147  0.2593
 6935TIP3   OH242295   1.280   2.417   3.689  0.3657  0.0381  1.1683
 6935TIP3    H142296   1.375   2.412   3.680  0.2487  0.9744 -0.6840
 6935TIP3    H242297   1.246   2.359   3.621 -0.3924 -1.0134  2.4254
 6936TIP3   OH242298   3.081   2.960  14.898  0.0452  0.1219  0.3876
 6936TIP3    H142299   3.064   2.878  14.946 -1.7357  0.4092  0.2608
 6936TIP3    H242300   3.129   3.014  14.961  0.1520 -0.5569  0.8984
 6937TIP3   OH242301   6.594   4.734  15.912 -0.5132 -0.0706  0.0794
 6937TIP3    H142302   6.551   4.729  15.827  0.7153 -0.2335 -0.5562
 6937TIP3    H242303   6.529   4.705  15.975 -0.9206 -1.5091 -0.9877
 6938TIP3   OH242304   5.116   0.690   2.690 -0.2346  0.4330  0.4129
 6938TIP3    H142305   5.044   0.676   2.628  0.3758  1.2809 -0.5086
 6938TIP3    H242306   5.080   0.663   2.775 -0.8533 -1.4419 -0.4171
 6939TIP3   OH242307   1.251   4.288  11.402 -0.0999  0.0904  0.1720
 6939TIP3    H142308   1.296   4.368  11.430  0.5403 -1.3499  3.5367
 6939TIP3    H242309   1.322   4.227  11.383 -0.5972 -0.9745  1.7041
 6940TIP3   OH242310   5.510   5.434  12.580 -0.5194 -0.4392 -0.2307
 6940TIP3    H142311   5.451   5.498  12.620  1.0128  0.8227  0.0692
 6940TIP3    H242312   5.547   5.385  12.653 -0.8586 -0.9326 -0.3877
 6941TIP3   OH242313   6.283   0.363  15.457  0.0582  0.4850 -0.1772
 6941TIP3    H142314   6.310   0.357  15.365 -0.4448  1.3355 -0.3816
 6941TIP3    H242315   6.189   0.376  15.454 -0.3624 -2.1567  0.5302
 6942TIP3   OH242316   3.753   3.060  11.827 -0.6074  0.1468 -0.0490
 6942TIP3    H142317   3.805   3.127  11.783  0.7120 -1.9635 -1.8526
 6942TIP3    H242318   3.771   3.072  11.920 -0.7105  2.5305 -0.3280
 6943TIP3   OH242319   4.898   0.742  11.887  0.6021 -0.5300  0.5019
 6943TIP3    H142320   4.969   0.679  11.903  2.3292  0.3789 -3.1088
 6943TIP3    H242321   4.938   0.827  11.906 -0.1933 -0.1449  0.4466
 6944TIP3   OH242322   4.103   5.326   5.881  0.3295 -0.2811  0.4175
 6944TIP3    H142323   4.079   5.236   5.904 -1.6217  0.1205  0.0216
 6944TIP3    H242324   4.044   5.380   5.932  0.1884  0.7353 -0.7984
 6945TIP3   OH242325   6.149   1.748   3.884 -0.5325 -0.5603  0.1236
 6945TIP3    H142326   6.229   1.705   3.915 -0.1535 -0.0582 -0.1470
 6945TIP3    H242327   6.093   1.677   3.854 -0.4143 -0.9610  0.8452
 6946TIP3   OH242328   3.329   2.037   0.177  0.6151  0.3791  0.0176
 6946TIP3    H142329   3.275   2.105   0.137 -0.6933  1.4731  3.4225
 6946TIP3    H242330   3.408   2.082   0.205  1.0697 -0.1420 -0.4173
 6947TIP3   OH242331   6.139   4.366  16.596 -0.0914 -0.4971  0.1412
 6947TIP3    H142332   6.196   4.363  16.520  0.1272 -1.7165  0.3468
 6947TIP3    H242333   6.063   4.417  16.567 -0.1660 -1.2488 -0.9971
 6948TIP3   OH242334   0.659   5.167  15.328 -0.6517  0.4692  0.2462
 6948TIP3    H142335   0.692   5.253  15.301 -0.8393 -0.1504 -2.0824
 6948TIP3    H242336   0.580   5.186  15.378 -0.7453  1.6554 -0.3357
 6949TIP3   OH242337   5.452   1.204   2.503  0.2453 -0.2711 -0.5394
 6949TIP3    H142338   5.541   1.170   2.498  0.1053 -0.7316  0.0992
 6949TIP3    H242339   5.429   1.222   2.412  1.1862  0.3803 -0.6635
 6950TIP3   OH242340   3.360   1.903   5.779 -0.1186 -0.2644  0.0975
 6950TIP3    H142341   3.413   1.981   5.761  2.7405 -2.3259 -0.6239
 6950TIP3    H242342   3.290   1.935   5.837 -0.4493  3.3225 -2.1160
 6951TIP3   OH242343   3.235   4.874   4.515 -0.0198  0.3364 -0.2559
 6951TIP3    H142344   3.224   4.937   4.586 -0.1731  1.9644 -1.6788
 6951TIP3    H242345   3.328   4.849   4.518 -0.2442 -0.3626  1.1134
 6952TIP3   OH242346   6.238   6.432  14.716  0.4346 -0.4920  0.3980
 6952TIP3    H142347   6.267   6.480  14.639 -1.6189 -0.2118 -0.2435
 6952TIP3    H242348   6.198   6.498  14.772  0.5356 -0.9387  1.0120
 6953TIP3   OH242349   0.200   1.469  17.183 -0.1577 -0.5617 -0.2543
 6953TIP3    H142350   0.115   1.504  17.154  0.3350  0.4089 -0.5477
 6953TIP3    H242351   0.259   1.487  17.109  0.2643 -1.3633 -0.1075
 6954TIP3   OH242352   1.015   3.218   1.721  0.2266 -0.0965 -0.1746
 6954TIP3    H142353   1.010   3.254   1.810 -0.3526  0.5022 -0.4448
 6954TIP3    H242354   1.034   3.293   1.666  1.9709 -0.6882 -0.4107
 6955TIP3   OH242355   3.494   1.692  11.408  0.1060  0.1206 -0.1170
 6955TIP3    H142356   3.527   1.779  11.387  2.1733 -0.4248  0.6962
 6955TIP3    H242357   3.568   1.649  11.452 -0.9220 -1.9883 -0.4096
 6956TIP3   OH242358   5.561   4.947  13.277 -0.2122 -1.0336  0.7077
 6956TIP3    H142359   5.534   4.856  13.288 -0.9704 -1.0848 -1.4211
 6956TIP3    H242360   5.632   4.944  13.213  0.0826 -0.1647  0.9803
 6957TIP3   OH242361   6.051   4.573  15.083 -0.0331 -0.1003  0.8209
 6957TIP3    H142362   6.142   4.573  15.113 -0.2871  0.9226  1.6081
 6957TIP3    H242363   6.044   4.495  15.027  0.8489 -1.1959  2.2058
 6958TIP3   OH242364   0.325   1.947   0.675  0.0316  0.4628  0.0371
 6958TIP3    H142365   0.363   1.949   0.588 -1.2760 -0.4126 -0.5592
 6958TIP3    H242366   0.293   1.858   0.686  1.3774  0.1580  1.9395
 6959TIP3   OH242367   1.370   1.233   2.148 -0.1351 -0.5116  0.4956
 6959TIP3    H142368   1.426   1.196   2.216 -0.8929 -0.8196  0.9477
 6959TIP3    H242369   1.323   1.304   2.191 -1.7309 -1.6727  0.6859
 6960TIP3   OH242370   6.348   5.056   6.053  0.1469 -0.2646 -0.0527
 6960TIP3    H142371   6.321   5.094   5.969  0.8211  0.1743 -0.0752
 6960TIP3    H242372   6.286   5.091   6.117 -0.6444 -0.9445 -0.4274
 6961TIP3   OH242373   5.288   2.604  14.282 -0.7161 -0.3798 -0.6439
 6961TIP3    H142374   5.251   2.682  14.243 -1.4621 -0.7564 -0.6884
 6961TIP3    H242375   5.221   2.572  14.343  0.7777  0.7339  1.6887
 6962TIP3   OH242376   1.883   3.432  13.248  0.3422  0.4082  1.2306
 6962TIP3    H142377   1.803   3.433  13.301 -0.1345  0.0964  0.5378
 6962TIP3    H242378   1.852   3.449  13.159  1.0290  0.1151  0.9348
 6963TIP3   OH242379   0.478   5.367   5.604 -0.7255 -0.5814 -0.1072
 6963TIP3    H142380   0.487   5.288   5.658 -0.8976 -0.9766 -0.6472
 6963TIP3    H242381   0.406   5.415   5.643 -0.2813 -0.4323  0.5393
 6964TIP3   OH242382   4.291   4.722  16.764  0.0159 -0.1549  0.1244
 6964TIP3    H142383   4.314   4.634  16.732 -0.4559 -0.4677  0.6395
 6964TIP3    H242384   4.375   4.769  16.766  0.3116 -0.6765  0.0978
 6965TIP3   OH242385   5.618   1.318  11.985 -0.0398  0.7140 -0.1935
 6965TIP3    H142386   5.525   1.330  12.005 -0.0212 -1.6908  1.6449
 6965TIP3    H242387   5.655   1.283  12.067  2.0468 -0.2753 -1.5248
 6966TIP3   OH242388   5.086   6.291   2.200 -0.0252 -0.6793  0.2641
 6966TIP3    H142389   5.060   6.216   2.253 -1.3373 -0.5073 -0.1010
 6966TIP3    H242390   5.103   6.254   2.113  1.5376 -0.8731  0.6369
 6967TIP3   OH242391   0.777   3.626  12.235  0.7650  0.1198 -0.3991
 6967TIP3    H142392   0.763   3.692  12.303  0.8059  0.1210 -0.3930
 6967TIP3    H242393   0.700   3.633  12.179  0.2882 -0.5105  0.1639
 6968TIP3   OH242394   5.720   5.780   1.551 -0.8232  0.1965  0.3335
 6968TIP3    H142395   5.630   5.797   1.580 -1.3003 -2.6327  0.6189
 6968TIP3    H242396   5.711   5.762   1.457 -0.6384 -0.5808  0.4617
 6969TIP3   OH242397   2.403   1.650  15.968  0.3337  0.2764 -0.3099
 6969TIP3    H142398   2.390   1.735  16.010 -0.8481 -1.5236  3.2330
 6969TIP3    H242399   2.337   1.648  15.898  1.0650  2.6246 -1.1275
 6970TIP3   OH242400   5.745   1.364   1.052  0.8508 -0.7649 -0.0697
 6970TIP3    H142401   5.716   1.272   1.048 -3.0087  0.2606  1.6170
 6970TIP3    H242402   5.731   1.396   0.963  1.0719 -1.4911 -0.3724
 6971TIP3   OH242403   1.445   5.801   2.963 -0.2452 -0.1238 -0.1919
 6971TIP3    H142404   1.373   5.852   3.000  0.5846  1.7220 -1.0660
 6971TIP3    H242405   1.492   5.767   3.039 -0.3360  1.1121  0.4401
 6972TIP3   OH242406   4.355   2.794  16.540  0.1234  0.2699 -0.1991
 6972TIP3    H142407   4.395   2.778  16.626 -1.0507  1.4993  0.5821
 6972TIP3    H242408   4.339   2.889  16.538  2.5583  0.7013 -2.8375
 6973TIP3   OH242409   3.566   3.452  10.959 -0.1194  0.4253 -0.0653
 6973TIP3    H142410   3.650   3.412  10.979 -0.1368 -0.0848 -1.0073
 6973TIP3    H242411   3.514   3.439  11.038  1.4591  2.8646  1.4552
 6974TIP3   OH242412   2.661   5.156   1.203  0.0209  0.7538 -0.3305
 6974TIP3    H142413   2.716   5.084   1.173  2.2221  2.7489 -1.2687
 6974TIP3    H242414   2.572   5.131   1.177  1.0049 -0.7371 -2.3927
 6975TIP3   OH242415   5.330   2.616   1.052  0.0195 -0.2899 -0.0341
 6975TIP3    H142416   5.272   2.677   1.008  0.3922  0.3760  0.3883
 6975TIP3    H242417   5.360   2.663   1.130 -0.3810 -1.3312  0.7652
 6976TIP3   OH242418   6.249   2.368   5.771  0.1401 -0.4192 -0.2155
 6976TIP3    H142419   6.182   2.301   5.759  0.1026 -0.5434  0.6397
 6976TIP3    H242420   6.283   2.353   5.859 -0.9977  1.6913  0.6318
 6977TIP3   OH242421   1.522   1.520  11.732 -0.6305  0.1356 -0.0228
 6977TIP3    H142422   1.560   1.473  11.658  0.3099 -2.0279  1.7859
 6977TIP3    H242423   1.483   1.451  11.787 -0.5733  1.6064  1.9222
 6978TIP3   OH242424   2.581   1.340  16.074  0.2962 -0.1208 -0.1067
 6978TIP3    H142425   2.650   1.281  16.106  0.1769  0.4276  1.1739
 6978TIP3    H242426   2.546   1.382  16.153  2.4403  3.9868 -1.2192
 6979TIP3   OH242427   1.645   5.436  10.397 -0.0009 -0.0132  0.3465
 6979TIP3    H142428   1.607   5.351  10.375 -2.6747  1.0227  0.7733
 6979TIP3    H242429   1.577   5.499  10.375  1.9216  2.0436  0.0917
 6980TIP3   OH242430   5.488   2.753  13.450  0.1403  0.0084 -0.3274
 6980TIP3    H142431   5.443   2.786  13.528 -0.4159 -1.3564 -0.0481
 6980TIP3    H242432   5.508   2.662  13.472 -0.2253 -0.4525 -1.8592
 6981TIP3   OH242433   1.719   0.573   0.949 -0.1523 -0.6262  0.1468
 6981TIP3    H142434   1.726   0.637   0.878  1.1687 -2.5250 -1.4923
 6981TIP3    H242435   1.625   0.568   0.967 -0.2327  2.2712  0.8347
 6982TIP3   OH242436   3.176   5.451  17.247 -0.4126 -0.0977  0.1494
 6982TIP3    H142437   3.247   5.420  17.191 -0.6292 -1.8771  0.8172
 6982TIP3    H242438   3.158   5.378  17.305 -0.4397  1.5923  2.3194
 6983TIP3   OH242439   3.082   6.051  14.325 -0.4167 -0.3268 -0.2109
 6983TIP3    H142440   3.079   6.055  14.420  0.3405  0.3813 -0.2040
 6983TIP3    H242441   3.170   6.019  14.305 -0.5186 -0.3308 -0.6681
 6984TIP3   OH242442   3.434   4.783  16.123 -0.2064 -0.1017  0.0381
 6984TIP3    H142443   3.444   4.691  16.100  0.7034 -0.0989  0.4112
 6984TIP3    H242444   3.345   4.805  16.095 -1.6883 -1.9960  3.0362
 6985TIP3   OH242445   6.314   5.396  12.568 -0.2169  0.4376  0.4290
 6985TIP3    H142446   6.303   5.477  12.618 -1.2060 -0.2295  1.3171
 6985TIP3    H242447   6.243   5.397  12.505 -0.4525  0.0850  0.6878
 6986TIP3   OH242448   5.649   3.947  13.044  0.5160  0.0602 -0.7904
 6986TIP3    H142449   5.657   4.043  13.050  1.1251 -0.1064  1.2402
 6986TIP3    H242450   5.562   3.928  13.078  0.6959 -0.1836 -0.4740
 6987TIP3   OH242451   5.177   1.723  13.371  0.0004  0.3115  0.4555
 6987TIP3    H142452   5.207   1.684  13.289  0.3132 -1.1392  1.2548
 6987TIP3    H242453   5.083   1.735  13.358  0.1777  0.8100 -0.4055
 6988TIP3   OH242454   5.568   4.191  15.685 -0.1494  0.0316  0.3446
 6988TIP3    H142455   5.537   4.215  15.772  0.8963  0.3108  0.6562
 6988TIP3    H242456   5.636   4.256  15.665 -1.3365  0.8246 -1.2758
 6989TIP3   OH242457   4.382   0.730  16.865 -0.2111  0.0676 -0.4204
 6989TIP3    H142458   4.322   0.799  16.837 -0.3881  0.0255 -0.1476
 6989TIP3    H242459   4.394   0.676  16.787  0.8558  1.0601 -0.9768
 6990TIP3   OH242460   6.579   3.528   1.541  0.1145 -0.1741 -0.7169
 6990TIP3    H142461   6.510   3.556   1.600 -0.1051  0.4606 -1.2721
 6990TIP3    H242462   6.559   3.436   1.522 -0.0461 -0.2553 -0.1380
 6991TIP3   OH242463   1.431   4.704  13.496 -0.1092  0.1669  0.0586
 6991TIP3    H142464   1.408   4.664  13.579  0.5913 -0.6937 -0.1572
 6991TIP3    H242465   1.417   4.798  13.510  0.4590  0.0756  1.2906
 6992TIP3   OH242466   5.604   4.126   5.886  0.4623  0.3103 -0.1204
 6992TIP3    H142467   5.591   4.124   5.981  0.4345 -1.5447 -0.1446
 6992TIP3    H242468   5.652   4.045   5.866 -1.2457 -0.3047 -1.9220
 6993TIP3   OH242469   5.013   2.154  14.632  0.7444  0.1181  0.0752
 6993TIP3    H142470   5.058   2.095  14.692  1.0974 -0.1731 -0.4732
 6993TIP3    H242471   4.978   2.097  14.564 -0.6038  0.3170  0.5817
 6994TIP3   OH242472   0.587   5.771  15.936  0.4157  0.2992 -0.3669
 6994TIP3    H142473   0.666   5.801  15.979 -0.6638  0.6790  1.3730
 6994TIP3    H242474   0.533   5.849  15.926 -1.9795 -0.7818  3.2994
 6995TIP3   OH242475   2.632   5.874  16.564 -0.4645 -0.6279  0.0830
 6995TIP3    H142476   2.623   5.924  16.483 -2.1923 -1.1968 -0.1046
 6995TIP3    H242477   2.719   5.834  16.558 -0.3756 -0.2746 -1.2662
 6996TIP3   OH242478   5.530   2.685   5.548 -0.1662  0.7334 -0.0201
 6996TIP3    H142479   5.455   2.636   5.514 -0.8825  0.8268  1.3995
 6996TIP3    H242480   5.593   2.617   5.573 -0.3919  0.5978  0.1826
 6997TIP3   OH242481   0.082   3.377  12.938 -0.1697 -0.0447  0.6537
 6997TIP3    H142482   0.063   3.285  12.954 -0.5156  0.0546  0.8163
 6997TIP3    H242483   0.008   3.409  12.886  0.7725 -0.2778 -0.8727
 6998TIP3   OH242484   2.023   0.939  13.764 -0.0148  0.0582  0.4931
 6998TIP3    H142485   2.088   0.904  13.825 -0.3368  0.2397  0.9467
 6998TIP3    H242486   1.948   0.881  13.773  0.5025 -0.8503 -0.9042
 6999TIP3   OH242487   2.574   5.510   3.381 -0.1747  0.3788 -0.1402
 6999TIP3    H142488   2.587   5.555   3.464 -0.3094  2.3969 -1.1746
 6999TIP3    H242489   2.629   5.432   3.386  0.7686  1.1297  1.3453
 7000TIP3   OH242490   2.094   3.543  12.772 -0.7751  0.9193  0.4434
 7000TIP3    H142491   2.182   3.527  12.736 -1.2969  0.0235 -0.4734
 7000TIP3    H242492   2.035   3.527  12.698 -1.7484  0.9911  1.1924
 7001TIP3   OH242493   2.266   6.548   5.411  0.7554  0.0972 -0.1008
 7001TIP3    H142494   2.242   6.605   5.338  0.3829 -0.6433 -0.5695
 7001TIP3    H242495   2.327   6.485   5.374 -0.2809 -0.9653 -0.0575
 7002TIP3   OH242496   2.838   5.347   3.730 -0.1216  0.7079 -0.1426
 7002TIP3    H142497   2.860   5.298   3.652  0.1332  0.2174  0.2387
 7002TIP3    H242498   2.917   5.344   3.784 -0.1472  1.4133 -0.0543
 7003TIP3   OH242499   2.770   5.876  13.785 -0.8090 -0.0489  0.1753
 7003TIP3    H142500   2.815   5.919  13.712  0.8323  0.3896  1.4238
 7003TIP3    H242501   2.687   5.924  13.793 -0.6716  0.3963 -0.9059
 7004TIP3   OH242502   6.612   0.741  11.292  0.5043 -0.1696  0.2723
 7004TIP3    H142503   6.613   0.837  11.294  1.8274 -0.1051 -1.9838
 7004TIP3    H242504   6.554   0.719  11.219 -0.8043 -1.1272  1.5811
 7005TIP3   OH242505   0.823   0.032   2.309 -0.4870  0.4138 -0.1796
 7005TIP3    H142506   0.885  -0.003   2.372 -0.7321  2.2058  1.0925
 7005TIP3    H242507   0.873   0.039   2.227  0.4932  0.2067  0.3974
 7006TIP3   OH242508   1.014   1.740   4.949 -0.1705 -0.0755 -0.0576
 7006TIP3    H142509   0.976   1.691   4.876  1.5380 -1.1380 -0.2701
 7006TIP3    H242510   1.109   1.733   4.935  0.1338  1.2432  1.2697
 7007TIP3   OH242511   4.045   3.556   4.228  0.5835 -0.5389  0.0577
 7007TIP3    H142512   4.066   3.571   4.135 -1.2850 -0.7146 -0.4172
 7007TIP3    H242513   4.026   3.463   4.234 -0.6128 -0.2876  0.3324
 7008TIP3   OH242514   3.089   3.449  12.261 -0.3673 -0.3451  0.3137
 7008TIP3    H142515   3.135   3.368  12.236  0.1773 -0.3449  1.2864
 7008TIP3    H242516   3.011   3.418  12.307 -1.4037 -0.3468 -1.3992
 7009TIP3   OH242517   4.810   6.201   3.543  0.0569 -0.4034  0.3844
 7009TIP3    H142518   4.842   6.242   3.463 -0.5413 -0.7166 -0.0196
 7009TIP3    H242519   4.744   6.261   3.576  0.2189 -0.3315  0.5788
 7010TIP3   OH242520   3.697   6.816   1.553  0.4738  0.0461  0.0542
 7010TIP3    H142521   3.788   6.836   1.573 -0.1431  0.6933  2.3529
 7010TIP3    H242522   3.688   6.722   1.569  0.1432  0.4404  2.3032
 7011TIP3   OH242523   1.144   4.742  16.382 -0.4093  0.0832  0.3068
 7011TIP3    H142524   1.213   4.689  16.422  0.8310  1.2860 -0.1848
 7011TIP3    H242525   1.190   4.794  16.316 -2.1259 -0.5747 -1.4555
 7012TIP3   OH242526   3.372   3.994   5.293  0.1133 -0.0544  0.4850
 7012TIP3    H142527   3.394   3.965   5.381 -1.0355 -0.3646  0.6877
 7012TIP3    H242528   3.379   4.089   5.296 -1.8692  0.0894  1.4962
 7013TIP3   OH242529   6.670   2.707  11.716  0.2697 -0.2415  0.0254
 7013TIP3    H142530   6.676   2.722  11.622  0.8180 -1.0371 -0.0660
 7013TIP3    H242531   6.723   2.777  11.754  2.3351 -1.5461 -0.3840
 7014TIP3   OH242532   2.311   5.250  15.784 -0.2286  0.6819  0.1471
 7014TIP3    H142533   2.260   5.249  15.866 -0.8456  2.8894 -0.1746
 7014TIP3    H242534   2.305   5.160  15.752 -0.7223 -0.0158  2.0693
 7015TIP3   OH242535   4.940   5.273  15.457 -0.3496 -0.3623 -0.7331
 7015TIP3    H142536   4.930   5.333  15.531 -2.7922 -0.7273 -0.7300
 7015TIP3    H242537   4.867   5.292  15.400 -1.1825 -3.2930 -0.7470
 7016TIP3   OH242538   2.309   0.741  14.718  0.4317 -0.0373  0.0314
 7016TIP3    H142539   2.262   0.710  14.640  0.2798 -0.2306  0.1980
 7016TIP3    H242540   2.242   0.742  14.787 -0.2479  3.2699 -0.5838
 7017TIP3   OH242541   0.659   6.709   5.782 -0.3231 -0.1764  0.4342
 7017TIP3    H142542   0.696   6.759   5.856 -0.3536 -1.7818  1.5695
 7017TIP3    H242543   0.565   6.706   5.800 -0.7308  1.9404 -1.2430
 7018TIP3   OH242544   6.683   5.667  12.551 -0.2559  0.3798 -0.2643
 7018TIP3    H142545   6.764   5.702  12.514 -0.4004  0.9056 -0.0862
 7018TIP3    H242546   6.700   5.574  12.563 -0.1456  0.2229 -1.5199
 7019TIP3   OH242547   3.572   1.545   2.326  0.1314  0.2526 -0.2287
 7019TIP3    H142548   3.531   1.621   2.368 -0.2395 -1.0102  1.7529
 7019TIP3    H242549   3.572   1.566   2.233 -2.5758  1.4654  0.0005
 7020TIP3   OH242550   1.294   4.915  17.193  0.1412  0.3924  0.4663
 7020TIP3    H142551   1.342   4.903  17.275 -0.7554  0.5204  1.0135
 7020TIP3    H242552   1.315   4.836  17.142  1.4571  0.7504  0.4207
 7021TIP3   OH242553   3.600   5.967   5.242 -0.0278  0.1777  0.6118
 7021TIP3    H142554   3.594   5.893   5.181 -0.4263 -0.7292  1.7293
 7021TIP3    H242555   3.693   5.977   5.258  0.1251  0.8513 -0.6587
 7022TIP3   OH242556   3.608   1.241  12.691 -0.4588  0.3247 -0.3585
 7022TIP3    H142557   3.550   1.165  12.692  0.8172 -0.6681 -0.2603
 7022TIP3    H242558   3.602   1.276  12.780 -0.3186 -0.2487 -0.1152
 7023TIP3   OH242559   2.687   1.496   4.770 -0.8348 -0.1023  0.2087
 7023TIP3    H142560   2.592   1.510   4.765 -0.5680  1.1046 -1.8314
 7023TIP3    H242561   2.725   1.569   4.721  1.0032 -2.7235 -2.4304
 7024TIP3   OH242562   2.650   5.664  11.428  0.0230  0.8278 -0.3369
 7024TIP3    H142563   2.621   5.628  11.344 -2.6627  1.1892  0.4201
 7024TIP3    H242564   2.718   5.603  11.457 -0.5108 -0.4864 -1.7682
 7025TIP3   OH242565   6.113   3.462  11.624 -0.5415  0.2902 -0.6996
 7025TIP3    H142566   6.147   3.426  11.542 -1.3973  0.8507 -1.3046
 7025TIP3    H242567   6.171   3.536  11.643  0.3743 -0.5498 -0.1720
 7026TIP3   OH242568   5.884   1.480  15.094 -0.0237  0.1281 -0.0750
 7026TIP3    H142569   5.909   1.572  15.088  0.7408 -0.0552  0.2051
 7026TIP3    H242570   5.876   1.451  15.003 -1.2193  0.7247 -0.1581
 7027TIP3   OH242571   6.351   6.704   6.269  0.1198 -0.5213  0.0623
 7027TIP3    H142572   6.373   6.733   6.357  0.9709 -1.4370  0.1658
 7027TIP3    H242573   6.275   6.647   6.281  0.5876 -1.1113  0.2908
 7028TIP3   OH242574   1.874   0.154  12.303  0.0760  0.6106  0.4349
 7028TIP3    H142575   1.877   0.195  12.390 -0.4053  1.7027 -0.0483
 7028TIP3    H242576   1.875   0.228  12.242  1.3829 -0.1800 -0.5198
 7029TIP3   OH242577   0.138   4.774   1.244 -0.2994 -0.0363 -0.1940
 7029TIP3    H142578   0.151   4.764   1.338 -2.3445 -1.0880  0.0003
 7029TIP3    H242579   0.109   4.865   1.234  1.7521  0.6608 -0.0468
 7030TIP3   OH242580   1.672   0.027   4.647 -0.1433 -0.3662 -0.0723
 7030TIP3    H142581   1.764   0.052   4.659 -0.4153  0.2333  0.8455
 7030TIP3    H242582   1.673  -0.035   4.574  0.8656  0.4256 -0.7472
 7031TIP3   OH242583   3.106   3.437   5.243 -0.0781 -0.2585 -0.1805
 7031TIP3    H142584   3.128   3.399   5.328 -0.3234 -1.2671 -0.5656
 7031TIP3    H242585   3.169   3.509   5.232  0.1806 -0.3455  0.6891
 7032TIP3   OH242586   6.715   4.432  12.347  0.0331 -0.3903 -0.1615
 7032TIP3    H142587   6.723   4.475  12.262 -1.0801  1.5373  0.6691
 7032TIP3    H242588   6.799   4.448  12.390 -0.1719  0.4951 -0.0799
 7033TIP3   OH242589   4.130   0.750  15.835 -0.1921 -0.3079 -0.0508
 7033TIP3    H142590   4.157   0.747  15.927  0.6055  0.3593 -0.2569
 7033TIP3    H242591   4.036   0.732  15.837 -0.1451 -0.4943  0.8754
 7034TIP3   OH242592   1.289   4.047   2.960 -0.1013 -0.3959  0.5776
 7034TIP3    H142593   1.242   4.012   2.884 -0.9284 -0.7343  1.2349
 7034TIP3    H242594   1.313   4.136   2.934 -1.0058 -0.2612  0.1941
 7035TIP3   OH242595   6.721   3.227   5.478 -0.0829  0.6558  0.3959
 7035TIP3    H142596   6.682   3.309   5.449 -2.2689 -0.3257  0.4622
 7035TIP3    H242597   6.711   3.167   5.404 -0.6844 -0.2506  1.1981
 7036TIP3   OH242598   1.359   2.816  15.792 -0.2016  0.2502  0.0908
 7036TIP3    H142599   1.315   2.732  15.807  0.4997  0.1496  1.6971
 7036TIP3    H242600   1.289   2.875  15.765 -0.8022 -0.7041 -0.4716
 7037TIP3   OH242601   1.473   6.166  14.373 -0.0810  0.3427  0.3248
 7037TIP3    H142602   1.397   6.222  14.361  1.4586  2.4981  0.1547
 7037TIP3    H242603   1.468   6.103  14.301 -0.3245  2.1224 -1.2802
 7038TIP3   OH242604   4.767   5.742  12.819  0.4267 -0.0367 -0.0548
 7038TIP3    H142605   4.821   5.680  12.868  1.4378  0.4123 -0.5923
 7038TIP3    H242606   4.695   5.689  12.784  1.3908 -0.9565 -0.6729
 7039TIP3   OH242607   1.374   0.589   1.175  0.6361  0.2887  0.5644
 7039TIP3    H142608   1.339   0.648   1.109  3.0618  0.7430 -0.3346
 7039TIP3    H242609   1.307   0.588   1.244 -0.9311  1.4649 -0.9185
 7040TIP3   OH242610   1.725   5.563  16.704  0.0614 -0.0077 -0.0488
 7040TIP3    H142611   1.722   5.611  16.621  0.5311  0.3766  0.1521
 7040TIP3    H242612   1.688   5.624  16.768 -0.9785 -0.5731 -0.1046
 7041TIP3   OH242613   3.848   3.747   4.299  0.2675  0.2520 -0.4105
 7041TIP3    H142614   3.770   3.694   4.313  0.5051  0.5468  2.2710
 7041TIP3    H242615   3.919   3.684   4.292  0.0578  0.0693 -0.9084
 7042TIP3   OH242616   3.458   5.638   0.568 -0.2998  0.7170 -0.5265
 7042TIP3    H142617   3.409   5.637   0.650  1.2801  1.0492  0.4332
 7042TIP3    H242618   3.546   5.666   0.593  0.8513 -1.5124 -1.9755
 7043TIP3   OH242619   1.432   4.064   1.047 -0.1118  0.1482  0.0448
 7043TIP3    H142620   1.516   4.067   1.091 -0.5435 -1.4276  1.0328
 7043TIP3    H242621   1.370   4.036   1.114 -1.5529  1.9354 -0.5066
 7044TIP3   OH242622   2.717   3.121  12.771  0.1729  0.3484  0.4625
 7044TIP3    H142623   2.754   3.073  12.845 -2.1371 -0.7686  0.9345
 7044TIP3    H242624   2.657   3.183  12.810 -1.1401 -0.3097 -0.4617
 7045TIP3   OH242625   3.987   5.451   0.096 -0.1080  0.2096  0.1542
 7045TIP3    H142626   4.016   5.489   0.179  2.1672  0.6413 -0.8005
 7045TIP3    H242627   3.902   5.492   0.079 -1.0545 -0.6171  2.7397
 7046TIP3   OH242628   2.876   5.946   0.294  0.2121  0.1569 -0.3782
 7046TIP3    H142629   2.863   6.004   0.368  1.8281 -0.1724  0.1845
 7046TIP3    H242630   2.809   5.878   0.304  0.1589  0.3441  0.5314
 7047TIP3   OH242631   3.032   3.669   2.979 -0.5673  0.3079  0.3537
 7047TIP3    H142632   3.090   3.735   2.942 -0.0048 -1.1378 -1.4446
 7047TIP3    H242633   2.978   3.641   2.906 -1.6885 -0.2856  1.3926
 7048TIP3   OH242634   5.447   5.512   1.331  0.1342 -0.2286  0.0349
 7048TIP3    H142635   5.440   5.423   1.364 -0.4671  0.4013  1.6939
 7048TIP3    H242636   5.360   5.550   1.346  0.4632  0.7110 -0.3838
 7049TIP3   OH242637   3.079   5.451   4.554  0.1487  0.3156 -0.1472
 7049TIP3    H142638   3.070   5.400   4.473  2.2387  1.1134 -0.9310
 7049TIP3    H242639   3.082   5.385   4.624 -0.9783 -0.4183 -0.7901
 7050TIP3   OH242640   3.446   5.978  16.217  0.3440 -0.1333  0.0621
 7050TIP3    H142641   3.484   5.963  16.304 -0.2458  1.3786  0.5890
 7050TIP3    H242642   3.356   5.946  16.224 -0.8477  3.2640  1.1222
 7051TIP3   OH242643   2.880   2.539  17.279  0.0132  0.0779 -0.0690
 7051TIP3    H142644   2.852   2.588  17.357 -0.5765 -1.6074  0.7962
 7051TIP3    H242645   2.972   2.516  17.297  0.1306  0.4116 -0.2418
 7052TIP3   OH242646   5.970   0.090   3.549 -0.0990 -0.2466  0.1769
 7052TIP3    H142647   6.054   0.078   3.503  0.5311 -0.7112  1.4453
 7052TIP3    H242648   5.904   0.085   3.479  0.9474  0.4703 -0.8804
 7053TIP3   OH242649   3.489   5.806  13.561 -0.2401  0.2725 -0.5693
 7053TIP3    H142650   3.559   5.787  13.624 -1.6549 -0.4793  0.8140
 7053TIP3    H242651   3.505   5.747  13.488  0.7665  0.3475 -0.4187
 7054TIP3   OH242652   1.195   5.191  11.713  0.3320 -0.2611 -0.5421
 7054TIP3    H142653   1.242   5.273  11.728 -0.5353 -0.4386  3.5884
 7054TIP3    H242654   1.262   5.129  11.686  0.9836  1.7702 -3.8801
 7055TIP3   OH242655   3.923   6.768   2.445  0.1258  0.0591  0.6449
 7055TIP3    H142656   3.841   6.752   2.491 -0.0638  1.8607  0.9593
 7055TIP3    H242657   3.906   6.738   2.356 -0.7166 -0.0407  0.8304
 7056TIP3   OH242658   0.556   6.491   1.936 -0.1320  0.4952  0.4125
 7056TIP3    H142659   0.579   6.542   2.014  1.1135  0.5520  0.0043
 7056TIP3    H242660   0.523   6.557   1.874  2.1181  0.9224 -0.3667
 7057TIP3   OH242661   5.721   3.035   5.075 -0.2742 -0.1080 -0.2433
 7057TIP3    H142662   5.749   2.995   5.157 -0.8293 -1.8584 -0.8870
 7057TIP3    H242663   5.735   3.129   5.088  0.3298 -0.4325  1.5731
 7058TIP3   OH242664   5.512   3.951  16.553  0.3778 -0.0206  0.1058
 7058TIP3    H142665   5.516   3.871  16.501 -0.1326 -0.7366  1.1522
 7058TIP3    H242666   5.602   3.966  16.581  0.4594 -0.2869 -0.0116
 7059TIP3   OH242667   0.753   1.794   3.682  0.0783 -0.9379  0.0265
 7059TIP3    H142668   0.666   1.777   3.648 -0.6641  0.9462  0.8664
 7059TIP3    H242669   0.748   1.772   3.775  0.6657 -1.3797 -0.0409
 7060TIP3   OH242670   0.050   0.597  16.669 -0.6487  0.4777  0.2714
 7060TIP3    H142671   0.011   0.656  16.604 -1.1424 -0.2749 -0.1323
 7060TIP3    H242672   0.139   0.582  16.637 -1.1693 -0.5886 -0.7332
 7061TIP3   OH242673   0.668   6.452   2.369 -0.1555  0.4378 -0.5532
 7061TIP3    H142674   0.583   6.412   2.387 -0.7878  1.4854 -1.1690
 7061TIP3    H242675   0.713   6.387   2.314 -1.9198  1.3281 -3.1935
 7062TIP3   OH242676   6.453   4.766  15.673  0.1951 -0.0906 -0.4468
 7062TIP3    H142677   6.468   4.772  15.578 -0.4155 -2.8705 -0.7720
 7062TIP3    H242678   6.358   4.768  15.682  0.1747 -1.9218 -0.0998
 7063TIP3   OH242679   5.330   5.840   1.825  0.6072  0.8708  0.2301
 7063TIP3    H142680   5.399   5.775   1.815  0.8497  0.8485  1.8860
 7063TIP3    H242681   5.260   5.794   1.872 -0.0115  1.2537 -0.3123
 7064TIP3   OH242682   4.235   1.489  14.306  0.1456 -0.1013 -0.5642
 7064TIP3    H142683   4.303   1.459  14.366  0.1935  0.3841 -0.3778
 7064TIP3    H242684   4.272   1.473  14.219  0.9012  1.0363 -0.4690
 7065TIP3   OH242685   3.833   1.068  13.370  0.7119 -0.2635  0.0387
 7065TIP3    H142686   3.865   1.037  13.285  0.0605 -1.1298  0.1096
 7065TIP3    H242687   3.776   0.999  13.401 -0.9952  1.1136  0.0691
 7066TIP3   OH242688   1.413   5.750  16.481 -0.1460 -0.3832  0.8758
 7066TIP3    H142689   1.433   5.832  16.526  0.1752  1.6155 -2.7305
 7066TIP3    H242690   1.326   5.762  16.444  0.9779 -0.4880 -2.0115
 7067TIP3   OH242691   6.623   0.860  13.638  0.1247  0.2913  0.3689
 7067TIP3    H142692   6.539   0.828  13.671 -0.1632  1.9969  1.3472
 7067TIP3    H242693   6.672   0.885  13.717  1.8533 -1.3847 -0.1419
 7068TIP3   OH242694   4.108   2.181  11.186 -1.3384 -0.0816  0.2575
 7068TIP3    H142695   4.131   2.101  11.233 -0.8835 -0.1157 -0.0223
 7068TIP3    H242696   4.190   2.229  11.178 -1.9395  1.2619  2.0137
 7069TIP3   OH242697   5.742   0.933  14.416 -0.1841 -0.5364  0.5378
 7069TIP3    H142698   5.715   1.011  14.463  0.1044  0.7287 -1.3500
 7069TIP3    H242699   5.674   0.918  14.351  1.3827  0.1166 -1.3171
 7070TIP3   OH242700   4.524   6.289   4.098 -0.1735 -0.3022  0.2980
 7070TIP3    H142701   4.540   6.195   4.099 -0.3393 -0.3331 -0.1399
 7070TIP3    H242702   4.495   6.309   4.187 -1.0661 -0.8254  0.1284
 7071TIP3   OH242703   1.407   5.408  16.396 -0.0071 -0.2198 -0.0679
 7071TIP3    H142704   1.333   5.399  16.457  0.5356  0.4745  0.7122
 7071TIP3    H242705   1.451   5.488  16.425 -0.2566  0.6084 -1.9469
 7072TIP3   OH242706   6.282   2.647  12.495  0.1483 -0.1064  0.1112
 7072TIP3    H142707   6.376   2.636  12.485 -0.0500 -0.6775 -1.2931
 7072TIP3    H242708   6.247   2.637  12.407 -1.5802 -3.6513  1.1018
 7073TIP3   OH242709   5.138   0.707  15.246  0.3801 -0.6658  0.6194
 7073TIP3    H142710   5.141   0.793  15.287  1.8811 -1.3361  1.9656
 7073TIP3    H242711   5.125   0.646  15.319  0.7029 -1.6952 -0.1573
 7074TIP3   OH242712   5.137   0.660   1.394  0.0146  0.3351  0.4533
 7074TIP3    H142713   5.224   0.700   1.389  0.9117 -1.4955  1.0714
 7074TIP3    H242714   5.127   0.634   1.486 -1.6131  1.4119  0.6148
 7075TIP3   OH242715   4.147   6.313   1.672 -0.1615 -0.0677  0.4330
 7075TIP3    H142716   4.118   6.351   1.754 -0.9814 -0.7313  0.4551
 7075TIP3    H242717   4.237   6.344   1.662 -0.7665  1.7733  0.4960
 7076TIP3   OH242718   3.709   0.469  11.932  0.2352  0.0886 -0.8016
 7076TIP3    H142719   3.734   0.377  11.927 -0.3961 -0.3502  2.9634
 7076TIP3    H242720   3.792   0.516  11.944  0.4568 -0.0801 -1.6541
 7077TIP3   OH242721   4.159   3.990   1.179 -0.0573  0.2707  0.2764
 7077TIP3    H142722   4.216   4.054   1.222 -0.8055  0.7945  0.4894
 7077TIP3    H242723   4.190   3.987   1.088 -0.2558  1.2035  0.1748
 7078TIP3   OH242724   5.405   4.680   0.479  0.0029  0.1836  0.3571
 7078TIP3    H142725   5.310   4.681   0.493  0.2716  1.7106  2.1795
 7078TIP3    H242726   5.426   4.768   0.448  0.6908 -0.4715 -1.0614
 7079TIP3   OH242727   6.154   4.303   5.650 -0.6331 -0.3500 -0.0050
 7079TIP3    H142728   6.077   4.313   5.593 -2.6280 -2.3606  2.2399
 7079TIP3    H242729   6.154   4.382   5.703  0.4953  0.9398 -1.8567
 7080TIP3   OH242730   2.103   3.190   4.187 -0.0008 -0.4236 -0.1252
 7080TIP3    H142731   2.035   3.202   4.253  0.0383  3.0411 -0.6246
 7080TIP3    H242732   2.178   3.153   4.235  0.2389  2.5933  1.9515
 7081TIP3   OH242733   0.141   6.671  12.680 -0.1873  0.7973 -0.0658
 7081TIP3    H142734   0.095   6.728  12.619 -0.2413  1.0909  0.2451
 7081TIP3    H242735   0.185   6.607  12.625 -0.6537  0.7476 -0.3850
 7082TIP3   OH242736   2.667   1.888   4.292  0.5657 -0.5809  0.2301
 7082TIP3    H142737   2.608   1.963   4.305 -0.1180 -1.1313  0.3064
 7082TIP3    H242738   2.735   1.900   4.357  0.0167 -0.4599  0.7872
 7083TIP3   OH242739   3.126   0.802   5.838  0.0124 -0.6604 -0.7908
 7083TIP3    H142740   3.213   0.761   5.836  0.6710  0.7172 -1.5039
 7083TIP3    H242741   3.143   0.892   5.865 -1.0825 -0.1179 -1.8711
 7084TIP3   OH242742   5.858   6.724  15.194 -0.1504 -0.5590  0.3597
 7084TIP3    H142743   5.788   6.790  15.195 -1.9593 -2.3743 -1.7045
 7084TIP3    H242744   5.818   6.646  15.234  2.2773 -0.2220  3.7043
 7085TIP3   OH242745   1.185   6.782  11.829 -0.6704  0.2230 -0.3823
 7085TIP3    H142746   1.185   6.811  11.920  0.5420 -0.3058 -0.1931
 7085TIP3    H242747   1.114   6.830  11.787 -3.4905 -1.9980  1.6186
 7086TIP3   OH242748   6.083   5.463  12.460  0.2239  0.2630 -0.2467
 7086TIP3    H142749   6.001   5.422  12.432  0.2060 -0.2652  0.5619
 7086TIP3    H242750   6.056   5.534  12.518  0.2647  1.2885 -1.4724
 7087TIP3   OH242751   1.504   0.225   2.955  0.1924  0.4215  0.2921
 7087TIP3    H142752   1.551   0.217   2.872 -1.1220  2.4098 -0.6962
 7087TIP3    H242753   1.534   0.309   2.992 -2.0087  1.3949 -0.0359
 7088TIP3   OH242754   1.238   3.433  15.282 -0.3519 -0.3200  0.8209
 7088TIP3    H142755   1.168   3.368  15.282 -0.4303 -0.2337  0.6515
 7088TIP3    H242756   1.205   3.504  15.337 -0.0524 -0.6551  1.4497
 7089TIP3   OH242757   3.537   1.302  15.292 -0.0940 -0.2550 -0.1543
 7089TIP3    H142758   3.558   1.211  15.312  2.9125  0.5313  0.6125
 7089TIP3    H242759   3.542   1.307  15.196 -0.7346 -1.0114 -0.2247
 7090TIP3   OH242760   1.941   2.150   2.119  0.3747  0.0931  0.1605
 7090TIP3    H142761   1.965   2.243   2.121 -1.1514  0.5037 -0.1565
 7090TIP3    H242762   1.950   2.121   2.210  0.9756  0.5196  0.2370
 7091TIP3   OH242763   2.757   5.170  16.949 -0.1882 -1.1065  0.0008
 7091TIP3    H142764   2.714   5.252  16.926 -0.9776 -1.5729 -0.2028
 7091TIP3    H242765   2.849   5.184  16.928 -0.2685 -0.1576  0.2876
 7092TIP3   OH242766   2.661   6.138   6.446  0.2109 -0.4821 -0.0574
 7092TIP3    H142767   2.706   6.084   6.381 -0.8562 -2.0576  0.5146
 7092TIP3    H242768   2.661   6.226   6.407  0.9794 -1.0884 -1.4709
 7093TIP3   OH242769   1.174   6.557   2.368 -0.5029  0.3369 -0.2223
 7093TIP3    H142770   1.118   6.541   2.444 -1.6333  0.9605 -0.9135
 7093TIP3    H242771   1.257   6.587   2.405  0.2442 -2.9664  0.9255
 7094TIP3   OH242772   3.050   6.581   2.627  0.2009 -0.0454 -0.3875
 7094TIP3    H142773   2.976   6.589   2.567 -0.3887  0.7355  0.4339
 7094TIP3    H242774   3.014   6.605   2.713  0.4210 -3.4398  0.7316
 7095TIP3   OH242775   4.932   4.752   1.303 -0.0429  0.2354  0.2698
 7095TIP3    H142776   5.008   4.805   1.327 -0.3689  1.1193 -0.6036
 7095TIP3    H242777   4.891   4.729   1.386  0.6590  0.5229  0.6992
 7096TIP3   OH242778   6.463   5.403  16.082  0.2762 -0.0260  0.8646
 7096TIP3    H142779   6.541   5.376  16.032  0.2459  0.5387  0.5180
 7096TIP3    H242780   6.415   5.321  16.096 -0.6891  0.0543 -1.6680
 7097TIP3   OH242781   2.764   6.211  14.935 -0.0272  0.5327  0.3252
 7097TIP3    H142782   2.705   6.148  14.977  0.9526 -1.0411 -0.6018
 7097TIP3    H242783   2.802   6.260  15.008 -1.5225  0.7194  1.0011
 7098TIP3   OH242784   1.118   5.168  13.848  0.0317 -0.3500 -0.1950
 7098TIP3    H142785   1.199   5.216  13.864 -1.0212  0.8700  1.6179
 7098TIP3    H242786   1.140   5.108  13.776  1.8385  1.6634 -1.3800
 7099TIP3   OH242787   4.865   4.526  14.999  0.1872  0.3083 -0.3099
 7099TIP3    H142788   4.953   4.497  14.974 -0.1590  0.8075 -2.1786
 7099TIP3    H242789   4.827   4.450  15.043  1.1029 -0.3236 -0.5880
 7100TIP3   OH242790   2.838   0.046  13.889  0.5001  0.3046  0.1306
 7100TIP3    H142791   2.828   0.123  13.944 -2.0274 -0.7093  1.1697
 7100TIP3    H242792   2.881   0.078  13.810  1.9757  2.2327  1.6698
 7101TIP3   OH242793   6.503   3.839   3.799 -0.1835  0.3122  0.2232
 7101TIP3    H142794   6.490   3.805   3.887 -1.2567 -0.4789 -0.2259
 7101TIP3    H242795   6.457   3.923   3.798 -0.0085  0.4103  0.4669
 7102TIP3   OH242796   6.616   0.006   0.375  0.2139 -0.2985 -0.0099
 7102TIP3    H142797   6.669  -0.028   0.303 -0.9606  0.9566 -1.4823
 7102TIP3    H242798   6.620  -0.063   0.441  2.2000 -0.9959 -0.8101
 7103TIP3   OH242799   3.482   3.300  11.194 -0.3606  0.6820  0.6307
 7103TIP3    H142800   3.392   3.322  11.173 -0.6011  0.1322  1.0890
 7103TIP3    H242801   3.479   3.210  11.226 -0.1319  1.7415  3.8270
 7104TIP3   OH242802   1.170   1.784  13.052  0.0487 -0.4525  0.2985
 7104TIP3    H142803   1.110   1.859  13.042  1.5329  0.5860 -0.9577
 7104TIP3    H242804   1.236   1.815  13.114  0.2464 -0.9926  0.3555
 7105TIP3   OH242805   0.089   1.184   4.373 -0.2072  0.5712  0.3673
 7105TIP3    H142806   0.093   1.244   4.448  0.6464  1.6824 -0.5571
 7105TIP3    H242807   0.074   1.241   4.298  3.0080 -0.0817 -0.8484
 7106TIP3   OH242808   1.563   1.432  14.836  0.6433 -0.0854  0.3552
 7106TIP3    H142809   1.544   1.468  14.749  0.0253  0.6898  0.8017
 7106TIP3    H242810   1.552   1.506  14.895 -2.1367 -1.3353  1.4716
 7107TIP3   OH242811   2.759   3.051  16.114  0.1156  0.4972 -0.7201
 7107TIP3    H142812   2.719   3.110  16.050 -0.0254 -0.0492 -1.1481
 7107TIP3    H242813   2.711   3.067  16.195 -0.5197  0.3381 -1.0599
 7108TIP3   OH242814   6.798   4.142   3.311  0.4036 -0.5003 -0.0994
 7108TIP3    H142815   6.784   4.235   3.327 -1.8942 -0.7304 -0.5598
 7108TIP3    H242816   6.881   4.137   3.265 -1.0067  1.6308 -2.9879
 7109TIP3   OH242817   5.136   3.060  15.098  0.2173  0.3575 -0.3071
 7109TIP3    H142818   5.085   2.981  15.080 -1.6907  1.8385 -1.6607
 7109TIP3    H242819   5.209   3.030  15.152 -0.0289 -2.4408 -1.4475
 7110TIP3   OH242820   5.997   5.154  12.599  0.0538 -1.1293  0.3111
 7110TIP3    H142821   5.917   5.181  12.555  0.8588 -1.4780 -1.4214
 7110TIP3    H242822   6.005   5.214  12.673 -0.6811  0.3083 -0.7425
 7111TIP3   OH242823   0.746   6.203  12.196  0.0805  0.2705 -0.1406
 7111TIP3    H142824   0.800   6.282  12.189 -0.2188  0.4938  0.0889
 7111TIP3    H242825   0.659   6.235  12.217 -0.3812 -0.0189 -1.5788
 7112TIP3   OH242826   1.994   6.011   2.374  0.3383 -0.3016 -0.0700
 7112TIP3    H142827   1.990   6.107   2.379 -0.1533 -0.3920  1.4126
 7112TIP3    H242828   2.021   5.983   2.461 -0.3590 -1.5525 -0.2424
 7113TIP3   OH242829   0.672   2.843  16.792  0.0121  0.1465  0.1400
 7113TIP3    H142830   0.678   2.809  16.703 -1.4728 -0.1207  0.1293
 7113TIP3    H242831   0.687   2.767  16.849  0.3171  0.1957  0.1290
 7114TIP3   OH242832   1.237   2.435  11.279 -0.3035  0.0942  0.1769
 7114TIP3    H142833   1.204   2.525  11.275  0.0331  0.1773 -1.0737
 7114TIP3    H242834   1.326   2.444  11.313  0.1735  0.3756 -1.0995
 7115TIP3   OH242835   0.152   3.235   4.843 -0.3132 -0.1989  0.2215
 7115TIP3    H142836   0.209   3.239   4.920  0.5507 -0.9377 -0.3694
 7115TIP3    H242837   0.209   3.261   4.770 -1.1662  0.6511 -0.1557
 7116TIP3   OH242838   2.125   3.259   0.912 -0.1403 -0.1646  0.3937
 7116TIP3    H142839   2.049   3.315   0.892  0.6379  0.5392 -0.6558
 7116TIP3    H242840   2.093   3.170   0.899 -1.0657  0.0782  0.9282
 7117TIP3   OH242841   6.499   5.950   4.221 -0.7071  0.5187 -0.1352
 7117TIP3    H142842   6.522   6.032   4.265  0.6311 -0.1922  0.5446
 7117TIP3    H242843   6.521   5.964   4.129 -0.3624  0.8762  0.0021
 7118TIP3   OH242844   1.556   2.689   1.023 -0.4385  0.5755  0.0821
 7118TIP3    H142845   1.601   2.723   0.946 -0.4098  1.2002  0.3699
 7118TIP3    H242846   1.464   2.682   0.997 -0.3474  0.3048 -0.1677
 7119TIP3   OH242847   5.293   3.501   3.204 -0.8699  0.1463 -0.5631
 7119TIP3    H142848   5.244   3.420   3.221 -1.5903  0.5437 -0.7241
 7119TIP3    H242849   5.236   3.571   3.236  1.0755  0.4251  2.4414
 7120TIP3   OH242850   0.370   5.805  11.745  0.6070  0.1991  0.5135
 7120TIP3    H142851   0.466   5.800  11.738  0.4070 -1.0750 -1.5627
 7120TIP3    H242852   0.342   5.845  11.663 -0.7670 -0.9366  0.4172
 7121TIP3   OH242853   1.207   0.721   5.418 -0.3232  0.1091 -0.0460
 7121TIP3    H142854   1.302   0.726   5.407 -0.1093 -1.2769  1.0354
 7121TIP3    H242855   1.174   0.801   5.378  1.3936  1.1883  0.6510
 7122TIP3   OH242856   0.577   3.502   1.376  0.1398  0.2672  0.1546
 7122TIP3    H142857   0.591   3.506   1.470  0.1323  0.3815  0.1506
 7122TIP3    H242858   0.551   3.591   1.351 -1.0432 -0.0395  0.2412
 7123TIP3   OH242859   4.398   2.837  13.135  0.4240 -0.3414 -0.0669
 7123TIP3    H142860   4.406   2.742  13.149 -0.4778 -0.3689  0.2882
 7123TIP3    H242861   4.309   2.858  13.162  0.9245  0.7816  0.7248
 7124TIP3   OH242862   2.666   4.345   4.008  0.5069  0.3674 -0.9807
 7124TIP3    H142863   2.708   4.267   3.971 -1.0582 -0.8288 -0.2382
 7124TIP3    H242864   2.736   4.410   4.009  2.7177 -1.9409  1.3257
 7125TIP3   OH242865   4.807   0.931   5.161 -0.0547  0.2860  0.0681
 7125TIP3    H142866   4.812   1.019   5.199  0.1243 -0.4809  1.8454
 7125TIP3    H242867   4.722   0.897   5.188  0.8075 -0.9407  1.3138
 7126TIP3   OH242868   4.271   3.172  11.488  0.5507  0.0174 -0.1121
 7126TIP3    H142869   4.350   3.176  11.542  1.0932 -0.3548 -0.8701
 7126TIP3    H242870   4.263   3.080  11.463  0.0528  0.1085 -0.2975
 7127TIP3   OH242871   5.757   3.145  16.786 -0.2728 -0.6571  0.4744
 7127TIP3    H142872   5.757   3.234  16.823  0.1737 -1.3774  2.2713
 7127TIP3    H242873   5.674   3.139  16.739 -0.1620  0.8251  0.0644
 7128TIP3   OH242874   6.706   3.902  13.747  0.3096  0.7453  0.1363
 7128TIP3    H142875   6.612   3.905  13.766  0.3655 -0.8224  0.6842
 7128TIP3    H242876   6.713   3.847  13.669  1.0622 -2.1130  2.1551
 7129TIP3   OH242877   5.633   1.492   0.806  0.2218  0.3500  0.0326
 7129TIP3    H142878   5.605   1.581   0.783  2.4087  0.7250 -1.3311
 7129TIP3    H242879   5.686   1.464   0.731 -0.7471 -2.2707  0.2750
 7130TIP3   OH242880   3.302   4.590  12.229  0.1523  0.1533 -0.3216
 7130TIP3    H142881   3.323   4.659  12.167  1.8567  1.6639  1.8536
 7130TIP3    H242882   3.385   4.567  12.270 -1.1159  0.3414  2.5415
 7131TIP3   OH242883   5.612   3.188   0.203 -0.2524  0.0047  0.1596
 7131TIP3    H142884   5.702   3.166   0.230 -0.3172 -0.7517 -0.2227
 7131TIP3    H242885   5.610   3.169   0.109 -0.7324  0.2850  0.1144
 7132TIP3   OH242886   2.939   3.295  13.474 -0.0313 -0.5428 -0.0740
 7132TIP3    H142887   2.958   3.205  13.446 -0.8236 -1.0339  0.9141
 7132TIP3    H242888   2.999   3.349  13.423  0.3670 -1.6226 -0.7804
 7133TIP3   OH242889   2.080   5.092  11.079  0.2246  0.3277  0.0930
 7133TIP3    H142890   2.044   5.083  10.991  1.1178 -1.2589 -0.1374
 7133TIP3    H242891   2.144   5.163  11.072  0.2791  0.2154 -0.5485
 7134TIP3   OH242892   2.621   4.667  17.014  0.4844  0.7009 -0.3621
 7134TIP3    H142893   2.549   4.666  16.951 -0.5494  1.5115  0.7913
 7134TIP3    H242894   2.679   4.597  16.985 -0.4394  0.4703 -1.6886
 7135TIP3   OH242895   6.116   3.315   0.938 -0.5750  0.0012  0.0306
 7135TIP3    H142896   6.212   3.319   0.934 -0.5426 -1.6069 -1.2615
 7135TIP3    H242897   6.094   3.229   0.902 -2.3354 -1.0574  3.4523
 7136TIP3   OH242898   0.435   3.829  13.596 -0.6084 -0.4596  0.0246
 7136TIP3    H142899   0.396   3.802  13.513 -0.1611  0.5419 -0.5120
 7136TIP3    H242900   0.361   3.860  13.648 -0.8079 -0.4989 -0.2348
 7137TIP3   OH242901   5.043   5.838   2.093 -0.1633 -0.7769  0.1197
 7137TIP3    H142902   5.052   5.767   2.030 -1.0012 -0.7517 -0.0284
 7137TIP3    H242903   5.008   5.911   2.041 -0.5588 -0.6623  0.5483
 7138TIP3   OH242904   5.399   1.221   4.299 -0.3169 -0.3674  0.0853
 7138TIP3    H142905   5.318   1.172   4.289 -2.0091  2.6816 -1.7652
 7138TIP3    H242906   5.372   1.305   4.336  1.8771  0.9808 -1.2608
 7139TIP3   OH242907   5.319   2.241   1.547 -0.1471 -0.5760  0.5832
 7139TIP3    H142908   5.321   2.329   1.510 -3.1868 -0.6529  0.0923
 7139TIP3    H242909   5.338   2.183   1.473  0.1306 -0.4175  0.5317
 7140TIP3   OH242910   4.411   2.912  15.883 -0.2376  0.2419  0.4269
 7140TIP3    H142911   4.385   2.901  15.974  2.4783 -1.3308  1.0921
 7140TIP3    H242912   4.375   2.835  15.839  1.3041 -0.8107  0.9213
 7141TIP3   OH242913   2.833   2.651   0.240  0.1688 -0.4579 -0.2254
 7141TIP3    H142914   2.759   2.707   0.261  0.9308  0.2708  0.5508
 7141TIP3    H242915   2.896   2.667   0.310  1.5840 -0.1160 -1.5446
 7142TIP3   OH242916   5.387   2.388  10.923 -0.6117 -0.1946 -0.5436
 7142TIP3    H142917   5.401   2.465  10.866  2.5262  0.0171  0.4327
 7142TIP3    H242918   5.327   2.419  10.991 -0.8037  0.8604 -1.1815
 7143TIP3   OH242919   6.337   4.370   5.931 -0.1653  0.3002  0.0081
 7143TIP3    H142920   6.282   4.356   6.008  0.6518  0.9565  0.7294
 7143TIP3    H242921   6.348   4.284   5.893 -0.5926 -0.0320  0.6256
 7144TIP3   OH242922   4.387   0.219  14.361 -0.6254  0.3694  0.1146
 7144TIP3    H142923   4.403   0.277  14.436 -2.3674  0.4533  0.4272
 7144TIP3    H242924   4.440   0.141  14.380 -0.0303  0.9247  0.7902
 7145TIP3   OH242925   4.745   5.926  15.765  0.1318 -0.4823 -0.3241
 7145TIP3    H142926   4.674   5.885  15.715  0.6993  0.3036 -1.8049
 7145TIP3    H242927   4.810   5.856  15.775 -0.1242 -0.7349 -0.4182
 7146TIP3   OH242928   0.831   6.250  13.312  0.6324 -0.4934 -0.1090
 7146TIP3    H142929   0.813   6.191  13.239  1.5756 -0.1835 -0.5955
 7146TIP3    H242930   0.771   6.323  13.299  0.1611 -0.8741 -0.0659
 7147TIP3   OH242931   0.433   6.095   1.027  0.5916  0.2743 -0.0042
 7147TIP3    H142932   0.505   6.144   0.988  0.7428  1.8196  2.1035
 7147TIP3    H242933   0.362   6.159   1.036  0.6948  0.0987  2.5061
 7148TIP3   OH242934   0.958   2.976  16.843 -0.0177 -1.2987 -0.0077
 7148TIP3    H142935   0.955   3.059  16.796  1.5746 -0.5441  1.1801
 7148TIP3    H242936   0.874   2.971  16.889 -0.0751 -0.2902  0.0101
 7149TIP3   OH242937   0.545   5.629   2.516 -0.0147 -0.6624 -0.3218
 7149TIP3    H142938   0.549   5.566   2.444 -0.6093  0.0489 -0.9731
 7149TIP3    H242939   0.591   5.706   2.483 -0.8412 -0.1036 -0.1667
 7150TIP3   OH242940   2.482   0.672  10.791 -0.7868  0.1403  0.6850
 7150TIP3    H142941   2.460   0.727  10.716  0.7035  0.2653  0.3264
 7150TIP3    H242942   2.417   0.602  10.790 -2.0227  1.2673  0.4890
 7151TIP3   OH242943   1.522   0.985  12.936 -0.3866 -0.3247  0.0267
 7151TIP3    H142944   1.570   0.982  13.018  1.0181  3.0837 -0.5595
 7151TIP3    H242945   1.584   0.951  12.871 -0.7891 -1.1678  0.0818
 7152TIP3   OH242946   1.534   3.491   4.708  0.4291 -0.7317  0.5398
 7152TIP3    H142947   1.520   3.409   4.661  0.2488  0.1078 -0.9221
 7152TIP3    H242948   1.627   3.511   4.695  0.0417  0.3043 -0.8632
 7153TIP3   OH242949   0.507   3.715   5.107 -0.7311 -0.1489  0.5431
 7153TIP3    H142950   0.589   3.699   5.153  0.8662  0.3892 -1.9941
 7153TIP3    H242951   0.496   3.810   5.109  0.3000  0.0491 -1.6768
 7154TIP3   OH242952   2.923   5.791  13.129  0.4658  0.3483  0.3630
 7154TIP3    H142953   2.986   5.770  13.061 -1.6315  2.5400 -2.3414
 7154TIP3    H242954   2.883   5.707  13.151  2.7451 -0.7183  0.5673
 7155TIP3   OH242955   1.710   5.719  13.340  0.0312 -0.3771  0.1408
 7155TIP3    H142956   1.678   5.808  13.350  0.7687 -0.1890  0.8682
 7155TIP3    H242957   1.724   5.709  13.245  1.1080  0.6912  0.1807
 7156TIP3   OH242958   6.428   4.119   3.973  0.0144  0.2567  0.1552
 7156TIP3    H142959   6.444   4.141   3.881 -0.6807  2.1455  0.4716
 7156TIP3    H242960   6.332   4.116   3.980  0.0652  0.2510  0.8632
 7157TIP3   OH242961   2.525   3.539  14.631 -0.4973 -0.5809 -0.4603
 7157TIP3    H142962   2.533   3.472  14.699 -0.3610 -0.1035 -0.0086
 7157TIP3    H242963   2.473   3.608  14.670 -0.5164 -0.3540 -0.8794
 7158TIP3   OH242964   5.413   1.350   1.764 -0.1209  0.5771 -0.4378
 7158TIP3    H142965   5.449   1.262   1.774 -0.4325  0.6535  1.6262
 7158TIP3    H242966   5.423   1.390   1.851 -0.8792  2.2236 -1.0875
 7159TIP3   OH242967   3.508   0.266   0.281  0.1779 -0.7931  0.2840
 7159TIP3    H142968   3.487   0.207   0.353 -2.3112  0.0621  0.3081
 7159TIP3    H242969   3.472   0.350   0.308  1.5571  0.1869 -0.8150
 7160TIP3   OH242970   3.321   5.529   0.341 -0.2194  0.2741  0.1440
 7160TIP3    H142971   3.385   5.562   0.405  1.0594 -0.3195 -0.8000
 7160TIP3    H242972   3.318   5.435   0.356 -0.4245  0.2251 -0.2053
 7161TIP3   OH242973   5.680   3.914  14.889  0.3280  0.3835  0.7483
 7161TIP3    H142974   5.688   3.983  14.954 -1.4522  1.2680  0.0815
 7161TIP3    H242975   5.663   3.960  14.807 -1.6031 -0.8395  0.4121
 7162TIP3   OH242976   2.198   5.343  11.132  0.0002  0.5616  0.5228
 7162TIP3    H142977   2.128   5.399  11.165 -0.2398 -0.0368  1.0341
 7162TIP3    H242978   2.242   5.310  11.210 -0.4001 -0.6374  0.2464
 7163TIP3   OH242979   6.512   1.152   1.047 -0.7528  0.2988 -0.3616
 7163TIP3    H142980   6.427   1.123   1.080 -0.8439  1.9607  0.9376
 7163TIP3    H242981   6.539   1.084   0.985 -2.1436 -1.2020  0.6533
 7164TIP3   OH242982   2.375   3.698  13.790 -0.8748  0.9254 -0.0302
 7164TIP3    H142983   2.453   3.703  13.736  0.1108  1.7908  1.4456
 7164TIP3    H242984   2.346   3.607  13.783 -1.5042  1.2952 -2.9875
 7165TIP3   OH242985   6.776   3.221   0.348  0.1251 -1.1655  0.0519
 7165TIP3    H142986   6.767   3.175   0.432 -0.1530 -0.2251  0.5509
 7165TIP3    H242987   6.737   3.307   0.364 -0.2509 -1.1025 -1.1536
 7166TIP3   OH242988   0.126   5.379  12.604 -0.0973  0.6704 -0.3541
 7166TIP3    H142989   0.203   5.379  12.547  0.1220 -2.7233 -0.1917
 7166TIP3    H242990   0.052   5.393  12.544  0.1561 -2.6021 -1.5767
 7167TIP3   OH242991   5.458   4.467   4.430  0.5702 -0.3773  0.2293
 7167TIP3    H142992   5.506   4.502   4.355  0.0773  0.7602  0.4231
 7167TIP3    H242993   5.482   4.375   4.434  0.1258 -0.5811 -1.6808
 7168TIP3   OH242994   0.266   2.103   2.561 -0.0794 -0.0253 -0.7956
 7168TIP3    H142995   0.243   2.056   2.641 -0.1573  1.1699 -0.1038
 7168TIP3    H242996   0.360   2.091   2.551  0.3295  1.6990  0.7242
 7169TIP3   OH242997   2.197   4.839   4.533  0.3050 -0.5479 -0.1514
 7169TIP3    H142998   2.173   4.849   4.625 -0.6347 -0.2264 -0.4236
 7169TIP3    H242999   2.117   4.861   4.485  0.4890 -1.7093 -1.0137
 7170TIP3   OH243000   2.159   1.723   2.136  0.4576  0.3477 -0.1162
 7170TIP3    H143001   2.102   1.702   2.210  0.2779  1.7893  0.1662
 7170TIP3    H243002   2.144   1.652   2.073 -2.0751  0.9969 -0.2946
 7171TIP3   OH243003   3.332   1.698   1.069  0.2946 -0.5754 -0.6885
 7171TIP3    H143004   3.282   1.769   1.027 -0.7455 -1.4641 -0.9642
 7171TIP3    H243005   3.358   1.734   1.154 -0.5647 -0.0061 -0.6646
 7172TIP3   OH243006   4.743   6.811  15.229  0.5600  0.3383  0.0257
 7172TIP3    H143007   4.752   6.868  15.306 -0.3973 -0.7541  0.9561
 7172TIP3    H243008   4.684   6.859  15.171  0.4178  0.6718  0.4416
 7173TIP3   OH243009   4.130   5.648  13.740  0.2612 -0.4816  0.3329
 7173TIP3    H143010   4.111   5.739  13.764  0.9086  0.2016 -1.5766
 7173TIP3    H243011   4.092   5.638  13.653  0.4978 -1.9379  0.3878
 7174TIP3   OH243012   2.119   5.016   3.195  0.2585 -0.4507  0.0130
 7174TIP3    H143013   2.138   5.072   3.120  1.0526  0.1615  0.6689
 7174TIP3    H243014   2.074   4.940   3.157  2.0198 -0.8905 -1.2927
 7175TIP3   OH243015   1.185   2.050   5.049 -0.4286 -0.2847 -0.5327
 7175TIP3    H143016   1.097   2.024   5.023 -0.3671 -0.2309 -0.7942
 7175TIP3    H243017   1.173   2.130   5.100 -0.5688 -0.5181 -0.2013
 7176TIP3   OH243018   2.159   6.512  12.596  0.4276 -0.7602 -0.1739
 7176TIP3    H143019   2.080   6.496  12.648  0.7134  1.7062  1.0793
 7176TIP3    H243020   2.179   6.605  12.610  2.6420 -0.9561 -1.7527
 7177TIP3   OH243021   3.347   3.558  15.381 -0.1761  0.4562  0.4759
 7177TIP3    H143022   3.343   3.577  15.288 -1.1469 -1.0734  0.1915
 7177TIP3    H243023   3.398   3.630  15.418  1.2729  0.4221 -1.4028
 7178TIP3   OH243024   6.551   4.366   3.917  0.1788  0.3627  0.5195
 7178TIP3    H143025   6.624   4.305   3.909 -0.7396 -0.9858  2.0414
 7178TIP3    H243026   6.486   4.319   3.969 -2.4755  0.8987 -2.1531
 7179TIP3   OH243027   6.424   3.304  17.008 -0.4037 -0.4851  0.3086
 7179TIP3    H143028   6.461   3.273  16.925 -0.2571  0.0367  0.1773
 7179TIP3    H243029   6.484   3.372  17.037  0.2159 -1.4972  1.4706
 7180TIP3   OH243030   5.369   4.410  12.262  0.5252  0.3714 -0.1020
 7180TIP3    H143031   5.342   4.454  12.182 -0.0751  0.4331  0.1319
 7180TIP3    H243032   5.382   4.482  12.325  2.8652  0.4968 -0.6706
 7181TIP3   OH243033   2.514   3.992  12.079  0.1531 -0.7752 -0.1296
 7181TIP3    H143034   2.565   4.039  12.145 -1.8966  0.3241  0.7155
 7181TIP3    H243035   2.480   4.060  12.022 -0.4336 -1.4906 -0.6392
 7182TIP3   OH243036   3.719   0.726  16.636  0.3338 -0.0568  0.1930
 7182TIP3    H143037   3.752   0.717  16.725  0.1183  0.8486  0.3704
 7182TIP3    H243038   3.728   0.639  16.598  1.0069 -0.3012  0.8977
 7183TIP3   OH243039   1.852   6.755   3.693 -0.0627 -0.1046  0.3284
 7183TIP3    H143040   1.935   6.799   3.676  0.0594  0.2625  1.8261
 7183TIP3    H243041   1.852   6.739   3.787 -0.3870 -2.7384 -0.0661
 7184TIP3   OH243042   0.950   5.091   0.399 -0.1529 -0.8275 -0.1495
 7184TIP3    H143043   0.897   5.014   0.379  0.8710 -1.8833  1.0797
 7184TIP3    H243044   1.036   5.071   0.362 -0.2763  0.3955 -1.1577
 7185TIP3   OH243045   1.387   1.069  11.859  0.4671 -0.1322 -0.5893
 7185TIP3    H143046   1.405   1.003  11.925  0.4098  0.0361 -0.4055
 7185TIP3    H243047   1.297   1.053  11.831  0.4820 -0.1861 -0.6041
 7186TIP3   OH243048   5.844   1.135   3.448  0.1516  0.3749 -0.3003
 7186TIP3    H143049   5.763   1.135   3.499  0.6493 -0.2868  0.5065
 7186TIP3    H243050   5.880   1.047   3.462  1.3046  0.8707 -0.1578
 7187TIP3   OH243051   3.744   2.742  16.972  0.2398  0.1892 -0.1539
 7187TIP3    H143052   3.726   2.654  17.006  0.0998  0.6629  1.0238
 7187TIP3    H243053   3.774   2.791  17.049  1.1667  0.9291 -0.9817
 7188TIP3   OH243054   5.781   2.628  17.070 -0.1365  0.3002  0.2566
 7188TIP3    H143055   5.718   2.617  16.999 -0.9545 -2.8358  1.3682
 7188TIP3    H243056   5.866   2.637  17.027 -0.9757  1.5554 -1.1729
 7189TIP3   OH243057   3.889   4.012  15.585  0.1240 -0.7093 -0.6829
 7189TIP3    H143058   3.974   3.973  15.566  1.1265  0.7358  0.6834
 7189TIP3    H243059   3.910   4.103  15.609 -1.7972 -0.3828 -0.1923
 7190TIP3   OH243060   0.644   1.759   3.947  0.8775  0.3208  0.2719
 7190TIP3    H143061   0.549   1.749   3.943  0.7870  1.3509 -0.3432
 7190TIP3    H243062   0.677   1.672   3.968 -0.2082 -0.0256  0.5326
 7191TIP3   OH243063   6.534   1.646   1.999  0.5882 -0.0607 -0.6629
 7191TIP3    H143064   6.520   1.717   1.936 -2.1313 -0.0702 -0.1106
 7191TIP3    H243065   6.503   1.567   1.953 -1.1961 -0.1011  0.5640
 7192TIP3   OH243066   6.094   0.778  13.891 -0.3813  0.2675  0.2590
 7192TIP3    H143067   6.028   0.712  13.915  0.0504 -0.0826  0.4861
 7192TIP3    H243068   6.168   0.760  13.948  0.6876 -0.6298 -1.3663
 7193TIP3   OH243069   0.275   5.432   2.417  0.6738  0.4783  0.2681
 7193TIP3    H143070   0.325   5.362   2.375 -2.7487 -1.5373 -0.5595
 7193TIP3    H243071   0.304   5.512   2.373  2.3513 -0.7658 -0.9328
 7194TIP3   OH243072   5.794   4.618   1.073  0.6870  0.0044 -0.2648
 7194TIP3    H143073   5.729   4.563   1.117  0.4331 -0.1816 -0.8560
 7194TIP3    H243074   5.762   4.707   1.085  1.0203  0.0158  0.5729
 7195TIP3   OH243075   0.816   3.091   5.469  0.2787  0.1915  0.4746
 7195TIP3    H143076   0.823   3.169   5.413 -1.0388 -1.0450 -1.5046
 7195TIP3    H243077   0.729   3.056   5.450  1.0188 -2.0143  0.9617
 7196TIP3   OH243078   1.496   3.099  15.223  0.1983 -0.0462  0.1141
 7196TIP3    H143079   1.448   3.049  15.289 -2.3181  3.7045  1.2458
 7196TIP3    H243080   1.430   3.122  15.158  1.3068  1.8073 -0.3798
 7197TIP3   OH243081   0.422   6.202   5.246 -0.5322  0.0837 -0.1887
 7197TIP3    H143082   0.488   6.161   5.189  1.0042  0.0734  1.5448
 7197TIP3    H243083   0.383   6.129   5.294 -2.4451 -0.0021 -1.8079
 7198TIP3   OH243084   3.349   5.962   2.874  0.0894  0.1629 -0.3482
 7198TIP3    H143085   3.405   6.022   2.826 -0.4277  0.3812 -0.6812
 7198TIP3    H243086   3.365   5.877   2.833 -0.6858  0.4258 -1.2072
 7199TIP3   OH243087   2.952   4.095  13.041  0.2426  0.3886  0.0141
 7199TIP3    H143088   2.919   4.009  13.014 -1.2424  0.9420  0.0416
 7199TIP3    H243089   3.036   4.076  13.083  0.3848 -0.9532 -0.8274
 7200TIP3   OH243090   1.097   5.428   0.316  0.6886 -0.2269  0.6552
 7200TIP3    H143091   1.047   5.483   0.376  2.3025  0.4206  1.4207
 7200TIP3    H243092   1.095   5.341   0.356 -0.9510 -0.5179 -0.0126
 7201TIP3   OH243093   5.842   2.689   6.617  0.3003 -0.1891  0.4510
 7201TIP3    H143094   5.779   2.696   6.688 -0.2340 -2.5519  0.2367
 7201TIP3    H243095   5.792   2.654   6.543  1.9115 -2.4470  0.3927
 7202TIP3   OH243096   3.611   3.963  16.099  0.1337 -0.6522  0.5339
 7202TIP3    H143097   3.599   3.975  16.193  1.6334  1.2149  0.5217
 7202TIP3    H243098   3.670   3.888  16.091  2.6746  1.1954  1.2544
 7203TIP3   OH243099   0.826   5.673  16.389 -0.7180 -0.2278 -0.3027
 7203TIP3    H143100   0.812   5.630  16.305 -2.3372 -0.3887  0.0266
 7203TIP3    H243101   0.817   5.602  16.454  1.0954 -0.2180 -0.0217
 7204TIP3   OH243102   2.577   2.113  11.333  0.7565 -0.2464 -0.2546
 7204TIP3    H143103   2.625   2.166  11.397 -0.3630 -0.6773  0.9714
 7204TIP3    H243104   2.636   2.041  11.313  1.4713  0.3660 -0.3828
 7205TIP3   OH243105   1.783   0.264  15.402 -0.0669 -0.1218 -0.4501
 7205TIP3    H143106   1.788   0.177  15.439 -1.2135  0.3430  0.8545
 7205TIP3    H243107   1.846   0.264  15.330  0.2087 -1.8904 -0.2203
 7206TIP3   OH243108   0.300   0.506   2.268 -0.3393  0.0686 -0.3818
 7206TIP3    H143109   0.263   0.476   2.185  0.5353 -1.2650 -0.3057
 7206TIP3    H243110   0.280   0.436   2.329  0.8720  0.0873  0.0439
 7207TIP3   OH243111   0.470   4.727  13.590 -0.4387 -0.3736 -0.4147
 7207TIP3    H143112   0.550   4.718  13.643 -0.4411  3.7653  0.4856
 7207TIP3    H243113   0.417   4.651  13.614  0.9494 -0.3236  3.1587
 7208TIP3   OH243114   0.971   6.639  16.818 -0.9203 -0.6278  0.4074
 7208TIP3    H143115   0.900   6.684  16.863 -0.2019  0.2849  0.6486
 7208TIP3    H243116   1.050   6.663  16.867 -0.2579 -0.4645 -0.7003
 7209TIP3   OH243117   2.848   4.601   1.454 -0.1222  0.3146  0.4504
 7209TIP3    H143118   2.781   4.559   1.508 -0.6993 -1.0952 -1.3337
 7209TIP3    H243119   2.881   4.672   1.509 -3.0366  1.0222  1.3878
 7210TIP3   OH243120   5.879   0.279  11.542 -0.0761 -0.2593 -0.1770
 7210TIP3    H143121   5.924   0.220  11.603  1.7641  1.1590 -0.1049
 7210TIP3    H243122   5.830   0.339  11.599  1.3028  0.7999 -0.0905
 7211TIP3   OH243123   6.138   4.815   0.551  0.2362 -0.2641  0.7670
 7211TIP3    H143124   6.125   4.868   0.473  0.2681  0.8350  1.4962
 7211TIP3    H243125   6.066   4.752   0.549  0.0070  0.0109  0.0596
 7212TIP3   OH243126   1.225   5.655   6.061  0.6461 -0.1651  0.6478
 7212TIP3    H143127   1.191   5.592   5.997 -0.2634  0.3536  0.6088
 7212TIP3    H243128   1.206   5.616   6.146  0.1991 -0.0087  0.6216
 7213TIP3   OH243129   1.646   4.012  12.345 -0.0149 -0.1812  0.6010
 7213TIP3    H143130   1.726   4.046  12.305 -0.4453  0.1112 -0.0309
 7213TIP3    H243131   1.585   4.086  12.344 -0.6574 -0.7020  0.0534
 7214TIP3   OH243132   4.802   0.837  17.133  0.1650 -0.4180  0.3124
 7214TIP3    H143133   4.727   0.812  17.080 -0.5530  0.7979  0.7311
 7214TIP3    H243134   4.764   0.868  17.216  1.0521  1.1177  0.1793
 7215TIP3   OH243135   3.097   4.772   5.619 -0.3812  0.0533  0.1048
 7215TIP3    H143136   3.159   4.702   5.596 -0.1149  0.0267  0.8894
 7215TIP3    H243137   3.113   4.841   5.554  0.0050 -0.2291 -0.1019
 7216TIP3   OH243138   5.974   4.117  13.037  0.0963  0.7059 -0.2190
 7216TIP3    H143139   6.069   4.107  13.039  0.1342  1.1202  0.1023
 7216TIP3    H243140   5.948   4.085  12.950  0.5316  0.6372 -0.3232
 7217TIP3   OH243141   0.736   1.219   4.970 -0.4078 -0.0887  0.4531
 7217TIP3    H143142   0.794   1.205   5.045  1.5610 -0.4511 -1.0856
 7217TIP3    H243143   0.751   1.310   4.945 -1.3672  0.1526  0.7374
 7218TIP3   OH243144   5.680   4.514   0.270 -0.1575 -0.4506  0.2575
 7218TIP3    H143145   5.628   4.564   0.332  0.9556  0.1992  0.6915
 7218TIP3    H243146   5.763   4.562   0.264 -0.3643 -0.3073 -1.9921
 7219TIP3   OH243147   0.784   0.614   1.343 -0.2690 -0.0747  0.0442
 7219TIP3    H143148   0.717   0.672   1.381  0.6290  1.4593 -0.6636
 7219TIP3    H243149   0.760   0.609   1.250  0.2022 -0.0742 -0.0751
 7220TIP3   OH243150   4.098   1.892   0.253  1.1453 -0.6449  0.1861
 7220TIP3    H143151   4.124   1.835   0.325  0.0681  0.1337  1.2130
 7220TIP3    H243152   4.180   1.923   0.216  1.7191 -1.6878  0.5576
 7221TIP3   OH243153   4.118   3.151   5.485 -0.5239  0.0264 -0.4071
 7221TIP3    H143154   4.081   3.070   5.520 -1.0074  0.9047  1.1062
 7221TIP3    H243155   4.091   3.151   5.393 -0.5521 -1.4992 -0.4215
 7222TIP3   OH243156   3.954   4.948   4.263 -0.0677  0.6326  0.4696
 7222TIP3    H143157   4.028   4.887   4.269 -0.2794  0.2059 -1.0649
 7222TIP3    H243158   3.914   4.944   4.350  0.4769 -0.7135  0.6878
 7223TIP3   OH243159   5.836   5.791   4.008  0.8067 -0.0063 -0.2082
 7223TIP3    H143160   5.825   5.856   4.077 -0.0900  0.9190 -1.1986
 7223TIP3    H243161   5.922   5.751   4.025  0.4254 -0.0611  1.6419
 7224TIP3   OH243162   4.935   0.500  12.105 -0.7222  0.6059  0.1815
 7224TIP3    H143163   5.010   0.510  12.163  0.1062  0.4784 -0.8485
 7224TIP3    H243164   4.953   0.420  12.055 -3.0006 -1.1449  2.0370
 7225TIP3   OH243165   3.877   0.504  11.607 -0.0849 -0.3199 -0.2293
 7225TIP3    H143166   3.908   0.592  11.585  0.7773 -0.6185 -0.2182
 7225TIP3    H243167   3.849   0.510  11.698  0.5652 -0.2155 -0.0346
 7226TIP3   OH243168   2.749   0.835  15.173 -0.1980  0.4385 -0.1191
 7226TIP3    H143169   2.670   0.814  15.223  1.9021 -2.0587  2.3131
 7226TIP3    H243170   2.791   0.906  15.223  0.1718  0.2977 -0.2266
 7227TIP3   OH243171   3.455   5.323   0.153 -0.4015  0.0703  0.2222
 7227TIP3    H143172   3.514   5.397   0.165 -1.3591  0.8191  0.4061
 7227TIP3    H243173   3.411   5.313   0.238 -2.5686  1.3270 -0.7109
 7228TIP3   OH243174   0.927   1.847   4.511 -0.0214 -0.6902 -0.4439
 7228TIP3    H143175   0.980   1.883   4.582 -2.3768 -0.0996  1.0804
 7228TIP3    H243176   0.883   1.771   4.551 -0.7044 -0.8649 -1.5293
 7229TIP3   OH243177   3.678   1.471   0.160 -0.3350  0.0064  0.1159
 7229TIP3    H143178   3.628   1.395   0.132 -0.7151  0.1403  0.4163
 7229TIP3    H243179   3.669   1.534   0.089 -4.3344  1.7556  2.0061
 7230TIP3   OH243180   2.293   3.891  12.467 -0.6635  0.1878  0.4160
 7230TIP3    H143181   2.270   3.934  12.384 -0.9709 -1.6075 -0.4475
 7230TIP3    H243182   2.290   3.798  12.447  2.3411 -0.2194  1.6547
 7231TIP3   OH243183   3.340   0.163   0.511  0.0681  0.0559 -0.7194
 7231TIP3    H143184   3.295   0.079   0.515 -1.5570  0.9381 -0.0165
 7231TIP3    H243185   3.415   0.153   0.569  0.9420 -1.5187 -2.1132
 7232TIP3   OH243186   6.526   2.226  15.284 -0.0199 -0.3410 -0.2408
 7232TIP3    H143187   6.607   2.207  15.238  0.6457  0.8654  0.3947
 7232TIP3    H243188   6.500   2.143  15.324  0.7227 -0.8039 -0.7283
 7233TIP3   OH243189   2.919   3.887   1.023  0.3274  0.0033 -0.0567
 7233TIP3    H143190   2.922   3.978   1.052  0.2396 -0.3682  1.1490
 7233TIP3    H243191   2.962   3.838   1.093  0.0696 -0.9226 -0.5360
 7234TIP3   OH243192   5.666   6.664   1.778 -0.1262  0.0910  0.3877
 7234TIP3    H143193   5.723   6.588   1.794 -0.4085  0.0590  1.2309
 7234TIP3    H243194   5.613   6.671   1.857 -1.3912  0.0419 -0.4484
 7235TIP3   OH243195   3.964   4.710  12.244  0.2586 -0.0458  0.0943
 7235TIP3    H143196   4.049   4.715  12.200  0.4955  1.4142  0.6796
 7235TIP3    H243197   3.978   4.751  12.329 -0.7420 -0.8575  0.6681
 7236TIP3   OH243198   0.672   5.670  14.435 -0.2389 -0.3395  0.5385
 7236TIP3    H143199   0.703   5.636  14.351  0.1338  2.3250 -0.4399
 7236TIP3    H243200   0.749   5.713  14.473 -1.6698  3.0046 -0.1751
 7237TIP3   OH243201   2.274   0.742   4.303  0.0377 -0.1885  0.5079
 7237TIP3    H143202   2.214   0.770   4.373  0.6893  0.1052  0.9513
 7237TIP3    H243203   2.218   0.695   4.241 -0.9362  1.4323  0.1422
 7238TIP3   OH243204   0.498   2.366  15.997 -0.4760  0.0853  1.0055
 7238TIP3    H143205   0.514   2.298  16.062 -0.6245 -1.3571 -0.4240
 7238TIP3    H243206   0.421   2.413  16.030  1.3099  1.4244  3.4355
 7239TIP3   OH243207   6.556   3.062  12.095  0.4355  0.6868 -0.5369
 7239TIP3    H143208   6.616   3.103  12.033 -0.7673 -0.3984 -2.4999
 7239TIP3    H243209   6.469   3.093  12.068 -0.1611 -0.3045  0.2161
 7240TIP3   OH243210   3.187   6.054   2.582 -0.0814 -0.5379  0.0907
 7240TIP3    H143211   3.189   6.150   2.581 -0.0313 -0.5364  0.2669
 7240TIP3    H243212   3.120   6.032   2.647  0.3241 -0.6257  0.4777
 7241TIP3   OH243213   1.644   0.946  11.717 -0.2334  0.2111  0.4637
 7241TIP3    H143214   1.585   1.018  11.696  0.0430 -0.0294 -1.1782
 7241TIP3    H243215   1.592   0.887  11.772 -0.6070  1.4051  1.4282
 7242TIP3   OH243216   5.245   4.475   2.755 -0.4986  0.2463  0.6004
 7242TIP3    H143217   5.228   4.382   2.770 -0.0341  0.1956  0.8138
 7242TIP3    H243218   5.297   4.503   2.830  1.1058  0.1893 -0.4591
 7243TIP3   OH243219   5.304   1.004   2.337 -0.5543  0.2406  0.1392
 7243TIP3    H143220   5.250   0.927   2.355  0.2181 -0.7233 -1.5173
 7243TIP3    H243221   5.393   0.977   2.363 -0.1351  0.2670 -1.2439
 7244TIP3   OH243222   6.553   4.386  15.418 -0.1251  0.0301 -0.1093
 7244TIP3    H143223   6.579   4.419  15.504 -0.6317  0.1944 -0.0166
 7244TIP3    H243224   6.575   4.293  15.420 -0.1884  0.0213  0.2194
 7245TIP3   OH243225   2.671   5.747  11.711 -0.0144  0.0105 -0.5220
 7245TIP3    H143226   2.668   5.653  11.694  1.6245 -0.5100  1.8286
 7245TIP3    H243227   2.745   5.779  11.659 -0.0445 -0.1406 -0.6580
 7246TIP3   OH243228   0.309   2.980   0.352  0.3567 -0.3236 -0.0579
 7246TIP3    H143229   0.320   3.039   0.278  0.3880 -0.4885 -0.1856
 7246TIP3    H243230   0.278   3.036   0.423  0.2105 -0.1863 -0.2299
 7247TIP3   OH243231   0.538   1.854   1.087 -0.0843 -0.2143  0.9027
 7247TIP3    H143232   0.496   1.826   1.006 -0.4805  0.4123  0.8900
 7247TIP3    H243233   0.496   1.802   1.155 -1.3325  0.8467  0.9648
 7248TIP3   OH243234   3.664   6.244   3.556  0.4015  0.1282 -0.2938
 7248TIP3    H143235   3.629   6.332   3.571  1.4587  0.1408  2.3612
 7248TIP3    H243236   3.757   6.257   3.539  0.8705 -0.5690  1.6323
 7249TIP3   OH243237   2.110   4.141  17.241 -0.3619 -0.3685 -0.0034
 7249TIP3    H143238   2.119   4.197  17.164 -1.1373 -2.3199 -1.5352
 7249TIP3    H243239   2.198   4.134  17.276 -0.0699  0.8534 -0.4686
 7250TIP3   OH243240   4.355   4.962  14.872 -0.1405  0.7255  0.3989
 7250TIP3    H143241   4.370   4.942  14.964  0.2798  2.7232  0.7765
 7250TIP3    H243242   4.435   5.007  14.843  0.2312 -0.9103 -1.2669
 7251TIP3   OH243243   0.899   2.166   1.078 -0.1860 -0.2928  0.0719
 7251TIP3    H143244   0.868   2.082   1.110 -0.2336 -0.2653  0.0971
 7251TIP3    H243245   0.872   2.229   1.144 -0.2463 -0.2425 -0.0003
 7252TIP3   OH243246   5.720   2.939   6.272 -0.5817  0.0959  0.1653
 7252TIP3    H143247   5.647   2.995   6.296  0.6339  0.6445  2.7405
 7252TIP3    H243248   5.793   2.971   6.324  0.4050 -3.2062  0.9373
 7253TIP3   OH243249   4.419   4.577  17.283  0.6175 -0.5151 -0.1803
 7253TIP3    H143250   4.464   4.496  17.307 -0.2364 -0.7925  0.5185
 7253TIP3    H243251   4.440   4.590  17.190  1.3051 -1.1736 -0.1205
 7254TIP3   OH243252   4.253   6.158   4.219  0.9252  0.0218 -0.4558
 7254TIP3    H143253   4.336   6.138   4.262  0.6243  0.1267  0.1650
 7254TIP3    H243254   4.269   6.239   4.171  0.7060  0.9020  0.9551
 7255TIP3   OH243255   1.475   4.135  11.418  0.1874 -0.1303 -0.3463
 7255TIP3    H143256   1.555   4.086  11.399  0.8656  1.0603 -0.6436
 7255TIP3    H243257   1.502   4.202  11.481 -0.1985  1.3665 -1.7489
 7256TIP3   OH243258   1.232   2.075  14.931  0.1768 -0.2712  0.3382
 7256TIP3    H143259   1.242   2.164  14.898 -1.4562  0.7288  2.4012
 7256TIP3    H243260   1.142   2.052  14.910 -0.2256 -0.4154  2.0768
 7257TIP3   OH243261   0.074   1.137  12.099 -0.8187  0.3600  0.1379
 7257TIP3    H143262   0.144   1.123  12.036 -0.4702  1.6585  0.2254
 7257TIP3    H243263  -0.007   1.128  12.048 -0.6473 -1.8808  0.1833
 7258TIP3   OH243264   6.806   1.968  15.091 -0.0911 -0.1879 -0.3535
 7258TIP3    H143265   6.788   1.888  15.142 -1.4324  1.5838  2.0570
 7258TIP3    H243266   6.796   1.941  15.000  1.1190 -3.1637  0.3409
 7259TIP3   OH243267   1.912   3.882   5.749  0.0581  0.7514 -0.0176
 7259TIP3    H143268   1.942   3.966   5.713 -1.8584  1.4358 -0.0522
 7259TIP3    H243269   1.970   3.866   5.823  0.2196  2.2946  0.2165
 7260TIP3   OH243270   0.577   6.456  13.240 -0.1076 -0.7105  0.2934
 7260TIP3    H143271   0.552   6.399  13.313 -1.8745  0.7766  0.8799
 7260TIP3    H243272   0.497   6.464  13.187  0.0802  1.2836  0.2771
 7261TIP3   OH243273   4.144   6.800  15.941  0.0856  0.1196  0.2226
 7261TIP3    H143274   4.109   6.872  15.888  2.7437  2.1174  1.0599
 7261TIP3    H243275   4.227   6.777  15.898  0.2665 -1.0557  1.1725
 7262TIP3   OH243276   5.207   3.970  15.494 -0.4612  0.2930 -0.4990
 7262TIP3    H143277   5.262   4.031  15.445  0.2375 -0.6006 -0.8268
 7262TIP3    H243278   5.246   3.968  15.581 -0.6513  0.5252 -0.4075
 7263TIP3   OH243279   4.625   0.868   0.957 -0.0838  0.4130 -0.2968
 7263TIP3    H143280   4.541   0.832   0.929  0.5075 -0.3500 -1.1146
 7263TIP3    H243281   4.613   0.886   1.050 -1.1431  0.2924 -0.3979
 7264TIP3   OH243282   5.083   2.425   4.021  0.2220  0.3591  0.4400
 7264TIP3    H143283   5.072   2.377   4.102  1.7514 -1.7772 -0.5853
 7264TIP3    H243284   5.170   2.465   4.028  0.8341 -0.7633 -0.6013
 7265TIP3   OH243285   0.360   6.332  11.904 -0.3641  0.3194  0.5139
 7265TIP3    H143286   0.335   6.243  11.880 -0.3030  0.5350 -0.3695
 7265TIP3    H243287   0.287   6.364  11.957 -0.8148  0.0589  0.0603
 7266TIP3   OH243288   3.445   4.942   2.048 -0.4982 -0.1863 -0.0777
 7266TIP3    H143289   3.370   4.981   2.003 -0.5594  0.5475  0.6442
 7266TIP3    H243290   3.519   4.960   1.991 -0.6332  0.4161 -0.0638
 7267TIP3   OH243291   1.876   0.548   4.542 -0.3953 -0.2477 -0.3433
 7267TIP3    H143292   1.936   0.614   4.576  1.0357 -1.3226 -0.7258
 7267TIP3    H243293   1.828   0.593   4.472  1.0199  0.2373 -1.0403
 7268TIP3   OH243294   2.321   4.235   0.758 -0.0518  0.2412 -0.5154
 7268TIP3    H143295   2.402   4.184   0.744  0.0493  0.2600 -0.0068
 7268TIP3    H243296   2.309   4.234   0.852 -1.0633 -0.4026 -0.6476
 7269TIP3   OH243297   3.393   1.433   0.583  0.1125  0.2894  0.1772
 7269TIP3    H143298   3.479   1.424   0.542  0.5014 -0.8734  1.2201
 7269TIP3    H243299   3.376   1.527   0.583  1.2339  0.4994 -0.3297
 7270TIP3   OH243300   2.771   5.890  15.261 -0.4598 -0.5687  0.1003
 7270TIP3    H143301   2.861   5.891  15.295 -0.1739  0.3035 -0.6565
 7270TIP3    H243302   2.717   5.873  15.338  0.3576 -1.2226  0.5473
 7271TIP3   OH243303   5.149   4.622  14.905  0.6456 -0.2158 -0.6775
 7271TIP3    H143304   5.088   4.681  14.862 -1.1591 -1.6121 -0.0690
 7271TIP3    H243305   5.166   4.554  14.840  1.1165 -0.1445 -0.6338
 7272TIP3   OH243306   6.207   4.857   1.037  0.4634 -0.1445 -0.1061
 7272TIP3    H143307   6.292   4.874   1.078  0.7196  0.1192 -0.7405
 7272TIP3    H243308   6.173   4.780   1.083 -0.0196  1.1349  1.7672
 7273TIP3   OH243309   5.887   5.830  15.877 -0.1471  0.4104 -0.2960
 7273TIP3    H143310   5.885   5.891  15.950 -0.2772 -0.5306  0.4995
 7273TIP3    H243311   5.912   5.746  15.916  0.1411 -0.0246 -1.3862
 7274TIP3   OH243312   4.826   0.322  11.162 -0.3024 -0.6152 -0.3815
 7274TIP3    H143313   4.822   0.416  11.177 -2.3503 -0.5305 -1.2798
 7274TIP3    H243314   4.787   0.283  11.240  2.7127 -0.8469  1.0487
 7275TIP3   OH243315   2.698   5.244  12.548 -0.2058 -0.0121  0.1558
 7275TIP3    H143316   2.633   5.180  12.576 -1.0947  0.6134 -0.4540
 7275TIP3    H243317   2.653   5.329  12.555  1.6284  0.7854  3.0172
 7276TIP3   OH243318   2.753   5.424   4.892  0.2452  0.0744 -0.3602
 7276TIP3    H143319   2.827   5.485   4.892  1.1057 -0.9400 -0.9848
 7276TIP3    H243320   2.736   5.408   4.985  0.8844  0.2339 -0.2068
 7277TIP3   OH243321   6.307   6.494   5.838 -0.0893 -0.3593 -0.3581
 7277TIP3    H143322   6.220   6.470   5.868 -0.1372 -0.6766 -0.7470
 7277TIP3    H243323   6.310   6.467   5.746 -0.2707  1.4831 -0.9188
 7278TIP3   OH243324   0.590   2.303  13.361  0.3004 -0.1820 -0.0383
 7278TIP3    H143325   0.548   2.368  13.305  1.2768  2.3530  2.0410
 7278TIP3    H243326   0.679   2.337  13.374  0.6817 -1.6962  1.4835
 7279TIP3   OH243327   3.115   0.834  15.417 -0.1742  0.1397  0.0343
 7279TIP3    H143328   3.073   0.770  15.360 -0.9514  1.9257 -1.4582
 7279TIP3    H243329   3.105   0.798  15.505 -2.2668 -0.8567 -0.5830
 7280TIP3   OH243330   2.317   4.604  11.735  0.8584  0.1653  0.0429
 7280TIP3    H143331   2.249   4.672  11.738 -0.0289 -0.7067  0.3312
 7280TIP3    H243332   2.319   4.569  11.824 -0.8103 -2.1789 -0.7808
 7281TIP3   OH243333   5.252   5.762  16.294 -0.0422 -0.6895 -0.1168
 7281TIP3    H143334   5.304   5.829  16.339 -0.2986 -3.0937  4.0843
 7281TIP3    H243335   5.316   5.711  16.244  0.8243 -0.2011  0.4775
 7282TIP3   OH243336   1.426   1.657   3.428 -0.3384 -0.2438 -0.0619
 7282TIP3    H143337   1.367   1.713   3.477  1.5305  1.6804  0.0764
 7282TIP3    H243338   1.505   1.710   3.416  1.8955 -3.1834  0.9602
 7283TIP3   OH243339   5.582   1.722  17.069  0.3107 -0.1891 -0.0535
 7283TIP3    H143340   5.490   1.723  17.043  0.0013  0.4301  1.0055
 7283TIP3    H243341   5.619   1.801  17.029 -0.0452  0.4936  0.9363
 7284TIP3   OH243342   2.396   3.687   6.415 -0.1180 -0.0958 -0.1813
 7284TIP3    H143343   2.447   3.694   6.496  0.3716 -0.9110 -0.4189
 7284TIP3    H243344   2.389   3.777   6.384 -2.5308  0.6024  2.1368
 7285TIP3   OH243345   4.604   6.689   2.221  0.4011 -0.3317 -0.2138
 7285TIP3    H143346   4.556   6.695   2.139  0.5010 -1.1754 -0.3345
 7285TIP3    H243347   4.650   6.605   2.217  1.9359  0.4865 -0.1238
 7286TIP3   OH243348   4.182   3.705  16.389 -0.3685  0.1965  0.2180
 7286TIP3    H143349   4.137   3.763  16.450 -0.3145  1.2531 -0.7300
 7286TIP3    H243350   4.175   3.749  16.304 -0.1876 -1.1065 -0.4884
 7287TIP3   OH243351   5.550   4.449  16.455 -0.3365 -0.3639  0.0324
 7287TIP3    H143352   5.641   4.440  16.482 -0.7111 -0.6904  1.2626
 7287TIP3    H243353   5.551   4.514  16.385  0.8020 -0.1704  0.2196
 7288TIP3   OH243354   5.297   2.002  11.194  0.1197  0.0263 -0.2942
 7288TIP3    H143355   5.265   2.050  11.117 -0.4547  0.8540  0.4528
 7288TIP3    H243356   5.312   2.070  11.260 -2.2419 -0.9376  1.3203
 7289TIP3   OH243357   6.021   6.190  13.498  1.1481 -0.1758 -0.5066
 7289TIP3    H143358   6.106   6.224  13.527  1.9171 -2.6172  0.2954
 7289TIP3    H243359   6.006   6.114  13.555 -0.9228 -0.5831 -1.5661
 7290TIP3   OH243360   0.148   4.271   4.604  0.3459 -0.6097 -0.1835
 7290TIP3    H143361   0.070   4.225   4.571 -0.2453  0.0641  0.2466
 7290TIP3    H243362   0.218   4.246   4.544 -0.4630 -0.3091 -1.2616
 7291TIP3   OH243363   0.824   0.797   0.138  0.1199  0.3854 -0.8011
 7291TIP3    H143364   0.811   0.793   0.233 -1.4066 -1.8041 -1.0798
 7291TIP3    H243365   0.800   0.887   0.115  0.7560  1.0191  0.8969
 7292TIP3   OH243366   1.927   6.514   2.810 -0.6914  0.0733  0.1003
 7292TIP3    H143367   1.974   6.448   2.862 -0.2682  0.8961  0.7645
 7292TIP3    H243368   1.980   6.525   2.731 -0.2356  0.3562  0.4467
 7293TIP3   OH243369   2.048   3.994   5.392 -0.0998 -0.1812 -0.1106
 7293TIP3    H143370   2.085   3.911   5.363  0.1502 -1.0881  2.6863
 7293TIP3    H243371   2.069   3.999   5.485 -0.4725  2.8298 -0.1259
 7294TIP3   OH243372   2.510   0.040  16.655  0.6643 -0.3188 -0.1722
 7294TIP3    H143373   2.466   0.096  16.591 -1.5177 -0.5517  1.0679
 7294TIP3    H243374   2.501   0.087  16.738  0.6199 -1.5297  0.5149
 7295TIP3   OH243375   5.314   5.827   0.286  0.1434 -0.1167 -0.6648
 7295TIP3    H143376   5.342   5.735   0.289  0.4877  0.0555  2.3806
 7295TIP3    H243377   5.383   5.875   0.331  0.3201  1.7790 -2.8788
 7296TIP3   OH243378   0.419   3.977  13.280  0.2123 -0.0153  0.0773
 7296TIP3    H143379   0.417   4.053  13.222  0.0159 -0.0270  0.0704
 7296TIP3    H243380   0.506   3.939  13.266  1.3576  1.7569  2.0543
 7297TIP3   OH243381   4.583   4.163  16.563  0.5101 -0.1397  0.2423
 7297TIP3    H143382   4.500   4.211  16.567 -0.0213 -1.0695  0.4566
 7297TIP3    H243383   4.605   4.145  16.654 -0.4644 -2.3014  0.0630
 7298TIP3   OH243384   1.940   1.930  16.446 -0.2944 -0.0957  0.2958
 7298TIP3    H143385   2.005   1.861  16.449  1.6646  1.7374  1.3484
 7298TIP3    H243386   1.859   1.886  16.420  1.0470 -2.6339  0.2888
 7299TIP3   OH243387   6.053   1.087   0.475  0.2842 -0.0412 -0.1566
 7299TIP3    H143388   6.047   1.110   0.382 -0.2439  2.7976  0.5464
 7299TIP3    H243389   5.982   1.136   0.517  1.7910  0.3332  2.0449
 7300TIP3   OH243390   5.914   6.107   2.576  0.1075  0.0948 -0.2261
 7300TIP3    H143391   5.874   6.023   2.598  1.0767 -0.3279 -0.0589
 7300TIP3    H243392   5.960   6.133   2.656  0.4092  0.4363 -0.5103
 7301TIP3   OH243393   6.762   0.894  16.034  0.0289 -0.5679  0.3167
 7301TIP3    H143394   6.830   0.829  16.020  0.7853 -0.1970  2.1750
 7301TIP3    H243395   6.753   0.900  16.129 -0.4460  1.6049  0.1696
 7302TIP3   OH243396   4.531   4.475  16.547 -0.0673 -0.3331  0.1060
 7302TIP3    H143397   4.476   4.501  16.473  0.8128 -1.0454 -0.8168
 7302TIP3    H243398   4.482   4.406  16.590  0.0738 -0.9436 -0.6961
 7303TIP3   OH243399   0.936   6.222   1.817  0.2434  0.2469  0.0490
 7303TIP3    H143400   0.980   6.227   1.732  0.0315 -0.6504 -0.1196
 7303TIP3    H243401   0.853   6.268   1.805  0.5747  0.8323  0.0034
 7304TIP3   OH243402   1.974   4.617   2.953 -0.6141  1.1609 -0.1139
 7304TIP3    H143403   1.917   4.607   2.878  0.9818  0.5879 -1.2795
 7304TIP3    H243404   2.002   4.528   2.974  1.8053  1.6358 -1.1435
 7305TIP3   OH243405   2.940   1.895  12.125  0.4408  0.1009 -0.5413
 7305TIP3    H143406   2.897   1.885  12.210  1.5480  2.2124  0.3255
 7305TIP3    H243407   2.868   1.906  12.063 -0.3476  0.1152  0.3598
 7306TIP3   OH243408   0.739   5.351   5.881 -0.2934 -0.2622  0.0187
 7306TIP3    H143409   0.696   5.267   5.894  2.5070 -1.4801  1.7443
 7306TIP3    H243410   0.671   5.416   5.900 -2.0142 -2.1044  0.3251
 7307TIP3   OH243411   1.619   0.349   4.004 -0.5102 -0.0584  0.3980
 7307TIP3    H143412   1.600   0.286   3.934  0.6493 -1.6159  1.4593
 7307TIP3    H243413   1.712   0.370   3.993 -0.7099  0.8974  0.5095
 7308TIP3   OH243414   5.649   4.446   5.559 -0.3216  0.1687  0.1296
 7308TIP3    H143415   5.667   4.391   5.635  0.7712 -0.8346 -0.8376
 7308TIP3    H243416   5.736   4.467   5.524 -0.8706 -3.6297 -3.8504
 7309TIP3   OH243417   3.844   0.354   0.806 -0.4924 -0.4827  0.2348
 7309TIP3    H143418   3.888   0.429   0.766  1.1293 -2.4182 -1.7044
 7309TIP3    H243419   3.888   0.343   0.890 -1.0153  0.9466  0.7241
 7310TIP3   OH243420   3.821   6.319  14.746  0.3935 -0.1406 -0.5853
 7310TIP3    H143421   3.863   6.255  14.688  1.2792 -0.1373  0.0521
 7310TIP3    H243422   3.743   6.347  14.697  0.4121 -1.1300 -1.1987
 7311TIP3   OH243423   4.612   1.574   4.551  0.7538 -0.1363 -0.0584
 7311TIP3    H143424   4.704   1.592   4.535  0.7144 -0.2507 -0.4213
 7311TIP3    H243425   4.596   1.603   4.641  0.8294  1.0887 -0.4367
 7312TIP3   OH243426   5.350   0.128   0.580 -0.0737 -0.7155  0.0600
 7312TIP3    H143427   5.295   0.050   0.585  1.3962 -2.0064 -2.5414
 7312TIP3    H243428   5.315   0.187   0.646 -1.1296 -3.6240  2.1735
 7313TIP3   OH243429   2.945   4.732  12.487  0.4066  0.1448 -0.2770
 7313TIP3    H143430   3.025   4.760  12.531  0.4073  0.2609 -0.3509
 7313TIP3    H243431   2.976   4.675  12.416  0.3890 -0.2467  0.0294
 7314TIP3   OH243432   4.817   4.381   1.313 -0.7998  0.4139 -0.0168
 7314TIP3    H143433   4.806   4.285   1.310  2.1404  0.0863 -1.0538
 7314TIP3    H243434   4.871   4.396   1.391 -1.0063  1.2304 -0.0286
 7315TIP3   OH243435   5.776   0.139   5.547  0.0927  0.3332 -0.2587
 7315TIP3    H143436   5.797   0.232   5.538  1.0881  0.3802  2.1717
 7315TIP3    H243437   5.735   0.133   5.634  1.3434 -1.7113  0.2055
 7316TIP3   OH243438   0.749   0.598   5.934  0.1358 -0.1753 -0.0309
 7316TIP3    H143439   0.797   0.681   5.944 -1.1489  0.5553  0.2122
 7316TIP3    H243440   0.801   0.534   5.982  2.9254 -0.2432 -2.9792
 7317TIP3   OH243441   0.551   5.442   2.283 -0.6972 -0.2088  0.4076
 7317TIP3    H143442   0.513   5.430   2.196 -1.2979  1.4825  0.4248
 7317TIP3    H243443   0.624   5.380   2.286 -1.8350 -1.6336 -0.5960
 7318TIP3   OH243444   1.044   2.110   0.113  0.0760 -1.1059  0.2177
 7318TIP3    H143445   1.090   2.139   0.192 -0.4852  0.2851  0.0498
 7318TIP3    H243446   1.107   2.055   0.067  1.6765  0.9143 -0.0924
 7319TIP3   OH243447   4.672   2.061  15.325  0.8493 -0.1979  0.8893
 7319TIP3    H143448   4.616   1.993  15.364  0.8765 -0.6042  0.2321
 7319TIP3    H243449   4.746   2.067  15.385  0.0955  0.3581  1.7754
 7320TIP3   OH243450   2.413   1.181   4.901 -0.0445 -0.1663  0.1979
 7320TIP3    H143451   2.357   1.107   4.926 -1.6619  0.8361 -0.3691
 7320TIP3    H243452   2.396   1.247   4.968  2.3483 -0.7292  1.4186
 7321TIP3   OH243453   1.101   4.457  13.083  0.1059 -0.4025 -0.8812
 7321TIP3    H143454   1.154   4.511  13.142  0.2976  2.1380 -3.2737
 7321TIP3    H243455   1.011   4.468  13.115  0.4183 -0.4637  0.0150
 7322TIP3   OH243456   2.364   6.426  10.991  0.4269 -0.3866 -0.3283
 7322TIP3    H143457   2.434   6.488  10.971  0.4022 -0.2478  0.0028
 7322TIP3    H243458   2.394   6.343  10.956  0.0416  0.0129 -1.6248
 7323TIP3   OH243459   3.271   5.867   6.554 -0.1162 -0.4900 -0.6806
 7323TIP3    H143460   3.323   5.871   6.634  0.5732 -1.2217 -1.0938
 7323TIP3    H243461   3.334   5.847   6.485 -0.4614  1.4971 -1.6371
 7324TIP3   OH243462   3.884   3.695   5.017  0.1866 -0.0471 -0.8278
 7324TIP3    H143463   3.899   3.766   5.079  0.3833  1.6697 -2.8261
 7324TIP3    H243464   3.938   3.623   5.051 -1.3195  0.1376  2.1467
 7325TIP3   OH243465   0.413   5.811   0.991 -0.2650 -0.3622 -0.4332
 7325TIP3    H143466   0.345   5.873   1.018 -1.8639 -2.4153  0.4053
 7325TIP3    H243467   0.495   5.855   1.012 -1.1936  3.1584 -3.5569
 7326TIP3   OH243468   1.973   5.238   5.542 -0.3607  0.1794  0.0764
 7326TIP3    H143469   2.024   5.176   5.490 -1.9327 -2.1539  1.2287
 7326TIP3    H243470   2.014   5.238   5.628 -0.2440  0.9054  0.0230
 7327TIP3   OH243471   1.807   6.215  14.586 -0.1728  0.2384 -0.1764
 7327TIP3    H143472   1.714   6.234  14.597 -0.3924 -0.8425 -0.1587
 7327TIP3    H243473   1.851   6.297  14.611 -1.0694  0.4683  0.6853
 7328TIP3   OH243474   5.531   0.423   2.495 -0.2263 -0.1956 -0.7796
 7328TIP3    H143475   5.533   0.349   2.556  0.4495  0.9111  0.5632
 7328TIP3    H243476   5.622   0.451   2.488 -0.7881  2.1808  0.8259
 7329TIP3   OH243477   6.656   1.100  10.833  0.0642 -0.2457 -0.5666
 7329TIP3    H143478   6.620   1.136  10.752 -0.1787  1.3968  0.2688
 7329TIP3    H243479   6.711   1.170  10.868  2.5015 -1.9786 -0.7819
 7330TIP3   OH243480   5.572   4.013   2.732  0.3635  0.0676 -0.2528
 7330TIP3    H143481   5.541   4.005   2.642 -0.0864  1.0236 -0.1858
 7330TIP3    H243482   5.587   3.923   2.761 -1.9160 -0.3993 -0.4405
 7331TIP3   OH243483   1.438   2.148  15.165 -0.4182 -0.0292 -0.1591
 7331TIP3    H143484   1.393   2.120  15.245 -1.6015  0.2338 -0.7309
 7331TIP3    H243485   1.477   2.067  15.131  0.7040 -0.0312  1.0367
 7332TIP3   OH243486   5.892   3.159  11.269  0.2281 -0.1803 -0.5195
 7332TIP3    H143487   5.862   3.200  11.188 -0.4855 -0.0501 -0.1922
 7332TIP3    H243488   5.838   3.080  11.277 -1.0781  0.8263  0.8425
 7333TIP3   OH243489   4.857   6.330   4.297  0.3240 -0.4297  0.5743
 7333TIP3    H143490   4.849   6.279   4.377  2.0437 -2.8710 -0.7640
 7333TIP3    H243491   4.911   6.406   4.322  1.0861 -1.3220  1.6695
 7334TIP3   OH243492   6.513   4.165   1.553 -0.4447 -0.2968 -0.1458
 7334TIP3    H143493   6.505   4.210   1.638  1.3852  3.1442 -1.6842
 7334TIP3    H243494   6.435   4.193   1.504  0.6005  1.1370 -1.0377
 7335TIP3   OH243495   4.933   2.269  14.193 -0.1319 -0.2108  0.1157
 7335TIP3    H143496   4.881   2.327  14.249  1.0687 -1.3615  2.4900
 7335TIP3    H243497   5.022   2.303  14.200  0.2713 -1.2587  0.1002
 7336TIP3   OH243498   3.552   6.214  11.304 -0.7087 -0.2733 -0.2474
 7336TIP3    H143499   3.634   6.164  11.295 -0.2636  0.5552 -0.9085
 7336TIP3    H243500   3.551   6.271  11.228 -2.3693 -0.9121 -0.7153
 7337TIP3   OH243501   2.951   4.500  12.854 -0.6710 -0.0011 -0.1426
 7337TIP3    H143502   2.944   4.405  12.842  0.5888 -0.1284  0.0559
 7337TIP3    H243503   2.900   4.518  12.933 -0.8990 -0.5167 -0.1686
 7338TIP3   OH243504   0.398   6.324   4.973 -0.4630 -1.4267  0.2974
 7338TIP3    H143505   0.305   6.333   4.990 -0.2473  0.3686  0.6609
 7338TIP3    H243506   0.438   6.312   5.059 -0.4438 -3.2157  0.0575
 7339TIP3   OH243507   1.357   2.574  14.564  0.0342  0.3729 -0.2749
 7339TIP3    H143508   1.324   2.661  14.587 -1.6269  0.4768 -2.8675
 7339TIP3    H243509   1.278   2.521  14.552  0.9663 -0.8629 -1.0830
 7340TIP3   OH243510   2.079   6.691  15.106 -0.1642 -0.3719 -0.5494
 7340TIP3    H143511   2.069   6.781  15.138 -0.5229 -0.3697 -0.6638
 7340TIP3    H243512   2.080   6.637  15.185  0.1370 -0.2623 -0.4738
 7341TIP3   OH243513   0.523   3.443   0.044 -0.7500  0.7690 -0.4182
 7341TIP3    H143514   0.431   3.456   0.021 -1.3336 -0.3999  1.1645
 7341TIP3    H243515   0.527   3.462   0.138  0.3201 -0.6440 -0.1729
 7342TIP3   OH243516   3.345   6.244  16.330 -0.4193 -0.1975 -0.4735
 7342TIP3    H143517   3.266   6.221  16.280 -1.5444  0.3071  1.0318
 7342TIP3    H243518   3.348   6.179  16.401 -0.0989  0.4547  0.1115
 7343TIP3   OH243519   1.533   1.657  14.963  0.2116 -0.0522  0.3504
 7343TIP3    H143520   1.513   1.741  14.920  2.3018 -0.4107 -1.4256
 7343TIP3    H243521   1.578   1.682  15.044 -1.6098  0.5703  1.2107
 7344TIP3   OH243522   4.110   0.935   0.674 -0.1897 -0.8018  0.2670
 7344TIP3    H143523   4.095   1.026   0.648 -2.1570 -0.8793  1.0854
 7344TIP3    H243524   4.139   0.940   0.765  0.0337 -0.9819  0.2072
 7345TIP3   OH243525   2.632   5.467  13.420  0.0623 -0.0349  0.2445
 7345TIP3    H143526   2.619   5.484  13.513 -0.4819 -2.7898  0.7124
 7345TIP3    H243527   2.621   5.372  13.411  2.0529 -0.0804 -2.3093
 7346TIP3   OH243528   5.210   0.222   2.913  0.0033 -0.6567  0.0712
 7346TIP3    H143529   5.175   0.290   2.971  2.2501  0.5955  0.0310
 7346TIP3    H243530   5.294   0.257   2.883  0.7915 -3.0790 -0.6793
 7347TIP3   OH243531   5.610   3.370  17.097  0.1582 -0.2318 -0.0298
 7347TIP3    H143532   5.651   3.391  17.014  0.7534 -0.1921  0.2694
 7347TIP3    H243533   5.596   3.275  17.093  0.8662 -0.3460  0.1238
 7348TIP3   OH243534   0.196   4.538   6.396 -0.5644  0.1124 -0.1023
 7348TIP3    H143535   0.174   4.446   6.409 -0.1212 -0.3101 -2.1892
 7348TIP3    H243536   0.234   4.565   6.479  0.1181 -1.8254  0.2417
 7349TIP3   OH243537   1.551   6.716  11.457  0.4356 -0.1045  0.7635
 7349TIP3    H143538   1.569   6.685  11.368  0.2210  0.0386  0.6677
 7349TIP3    H243539   1.487   6.786  11.445 -0.2527 -0.6735  1.1034
 7350TIP3   OH243540   6.390   5.957   0.367 -0.0419 -0.0841  0.0456
 7350TIP3    H143541   6.444   5.882   0.393  0.1671 -0.4047 -1.2797
 7350TIP3    H243542   6.439   5.998   0.296 -1.7441 -0.6427 -1.4865
 7351TIP3   OH243543   1.266   4.944   2.670  0.0824  0.0058 -0.0006
 7351TIP3    H143544   1.177   4.980   2.673  0.3900  0.7364  0.8399
 7351TIP3    H243545   1.320   5.011   2.714  0.8287 -1.0321  0.6924
 7352TIP3   OH243546   5.921   2.096  13.430  0.3420  0.5619 -0.1114
 7352TIP3    H143547   6.000   2.148  13.417  1.4477 -0.6732  1.5115
 7352TIP3    H243548   5.950   2.005  13.421 -0.7368  0.0696  1.1749
 7353TIP3   OH243549   2.164   1.714  12.397 -0.2591 -0.5030 -0.6003
 7353TIP3    H143550   2.231   1.781  12.408  1.5401 -1.9740 -2.1723
 7353TIP3    H243551   2.088   1.747  12.444  1.5952  1.1743  1.2847
 7354TIP3   OH243552   2.773   2.973   3.384  0.0480 -0.4210 -0.1180
 7354TIP3    H143553   2.865   2.969   3.410 -0.1554  0.5297  0.7537
 7354TIP3    H243554   2.745   3.062   3.404 -0.2961  0.2004 -3.0487
 7355TIP3   OH243555   0.772   0.621   4.242 -0.2013  0.3291 -0.2158
 7355TIP3    H143556   0.772   0.717   4.243  2.1658  0.3390  0.6820
 7355TIP3    H243557   0.855   0.597   4.201 -0.9513 -1.3651 -0.8235
 7356TIP3   OH243558   0.435   3.888  16.595  0.3440  0.0070  0.2894
 7356TIP3    H143559   0.352   3.862  16.556 -0.7588  0.8561  1.9981
 7356TIP3    H243560   0.467   3.959  16.539 -0.1134 -0.2939 -0.3546
 7357TIP3   OH243561   2.566   3.210   0.844 -0.3411  0.0201  1.1144
 7357TIP3    H143562   2.658   3.189   0.862 -0.2226  0.6223  1.2343
 7357TIP3    H243563   2.569   3.298   0.807 -0.7685 -0.4027  0.0445
 7358TIP3   OH243564   4.115   2.694   1.233 -0.5884 -0.4362  0.2385
 7358TIP3    H143565   4.029   2.728   1.207 -0.1482  0.8520  0.4475
 7358TIP3    H243566   4.096   2.634   1.306 -1.3457 -0.4571  0.0238
 7359TIP3   OH243567   4.786   2.129   2.458  0.6355 -0.6303 -0.8021
 7359TIP3    H143568   4.818   2.052   2.413  0.1542 -2.5834  2.0732
 7359TIP3    H243569   4.838   2.201   2.422  0.2232 -2.0579 -4.4266
 7360TIP3   OH243570   3.506   1.185  14.312 -0.1862 -0.1597  0.4416
 7360TIP3    H143571   3.411   1.192  14.320 -0.2444 -0.3432 -0.0602
 7360TIP3    H243572   3.522   1.092  14.297 -0.1754  0.2581 -2.4658
 7361TIP3   OH243573   3.649   2.632  11.330 -0.2842  0.0936 -0.0544
 7361TIP3    H143574   3.674   2.705  11.387 -0.8728  0.2832 -0.0428
 7361TIP3    H243575   3.728   2.577  11.327  0.4885  1.2090 -0.8356
 7362TIP3   OH243576   6.451   6.181  12.358  0.4231  0.1751  0.4895
 7362TIP3    H143577   6.419   6.092  12.375 -1.7345  0.8601  0.1883
 7362TIP3    H243578   6.521   6.194  12.422  1.3958 -2.0797 -0.1035
 7363TIP3   OH243579   5.117   1.182  12.294 -0.1706 -0.3539  0.6136
 7363TIP3    H143580   5.094   1.093  12.321  0.7433 -0.4606  1.0593
 7363TIP3    H243581   5.209   1.177  12.269 -0.5476  0.1168 -0.9366
 7364TIP3   OH243582   4.311   1.983  12.614 -0.0725 -0.5856  0.3099
 7364TIP3    H143583   4.226   2.005  12.576  0.7013 -0.4941 -1.3832
 7364TIP3    H243584   4.349   1.920  12.554  1.3946 -0.0468  0.6564
 7365TIP3   OH243585   3.933   2.601  13.507 -0.4156  0.0755 -0.1204
 7365TIP3    H143586   4.005   2.619  13.446 -1.8310 -0.7477 -2.0768
 7365TIP3    H243587   3.931   2.678  13.565  1.9364  0.1558 -0.1139
 7366TIP3   OH243588   5.122   4.845   4.104 -0.1810 -0.5259 -0.3681
 7366TIP3    H143589   5.030   4.856   4.082 -0.5655 -2.4446  0.1299
 7366TIP3    H243590   5.128   4.872   4.196 -0.5468 -1.6971  0.0139
 7367TIP3   OH243591   0.748   2.755   4.013  0.1829  0.3842  0.2089
 7367TIP3    H143592   0.740   2.693   4.086  1.9589  0.8521  0.8332
 7367TIP3    H243593   0.676   2.733   3.954 -0.5415 -0.8051  1.5150
 7368TIP3   OH243594   5.888   4.719   0.281  0.6521  0.5092  0.0573
 7368TIP3    H143595   5.963   4.674   0.242  1.0388 -0.2034  1.5958
 7368TIP3    H243596   5.833   4.742   0.206  0.6872 -2.0773 -0.8081
 7369TIP3   OH243597   2.595   4.120  13.794  0.2868 -0.2966  0.6641
 7369TIP3    H143598   2.618   4.032  13.765 -2.7400 -0.5640 -1.1989
 7369TIP3    H243599   2.500   4.117  13.805  0.0216  2.9555 -0.3029
 7370TIP3   OH243600   0.372   5.811   3.651  0.1806  0.6278  0.0228
 7370TIP3    H143601   0.360   5.901   3.682  2.0306  0.9308 -0.0843
 7370TIP3    H243602   0.361   5.817   3.556 -0.0655  0.6719  0.0537
 7371TIP3   OH243603   4.307   4.910  11.623 -0.3673  0.1138 -0.1683
 7371TIP3    H143604   4.216   4.924  11.649 -0.8907  0.2756 -1.9840
 7371TIP3    H243605   4.312   4.816  11.603 -0.0372  0.0307  0.3070
 7372TIP3   OH243606   5.344   2.240  15.157 -0.2232 -0.1728 -0.0282
 7372TIP3    H143607   5.342   2.168  15.094  0.1104  1.2494 -1.7072
 7372TIP3    H243608   5.436   2.248  15.182 -0.1278  0.2371 -0.5106
 7373TIP3   OH243609   3.824   3.309   1.248 -0.1629  0.1549 -0.1974
 7373TIP3    H143610   3.821   3.232   1.191 -1.5092  0.1223 -0.1077
 7373TIP3    H243611   3.880   3.372   1.202  0.9604 -0.8811 -0.2560
 7374TIP3   OH243612   4.915   0.119   4.613  0.6562  0.0220 -0.0077
 7374TIP3    H143613   4.820   0.125   4.608  0.5646 -0.3180  1.2683
 7374TIP3    H243614   4.946   0.205   4.584 -0.0662  0.4405  0.4618
 7375TIP3   OH243615   3.233   1.195  12.347  0.4849 -0.8352 -0.5919
 7375TIP3    H143616   3.217   1.185  12.441  0.5785  0.7037 -0.3924
 7375TIP3    H243617   3.219   1.108  12.311  1.2413 -1.6300  0.9668
 7376TIP3   OH243618   6.466   4.298  15.773 -0.3779  0.6831 -0.3301
 7376TIP3    H143619   6.549   4.335  15.742 -0.3611 -0.8531 -2.1656
 7376TIP3    H243620   6.471   4.205  15.751 -1.1125 -0.1485  2.7428
 7377TIP3   OH243621   4.512   2.085  13.226 -0.0440  0.0024 -0.2568
 7377TIP3    H143622   4.590   2.035  13.247 -0.1785 -0.3133 -0.5011
 7377TIP3    H243623   4.453   2.072  13.300  0.3375  0.6693  0.1714
 7378TIP3   OH243624   2.960   0.477   4.382  0.5918 -0.4856 -0.0990
 7378TIP3    H143625   2.935   0.394   4.421  1.0849 -0.6240 -0.0666
 7378TIP3    H243626   3.018   0.454   4.310 -1.7221 -0.3213 -2.0800
 7379TIP3   OH243627   1.727   2.331  16.221  0.1999 -0.0781 -0.7161
 7379TIP3    H143628   1.762   2.414  16.190  2.8785 -1.5033 -1.6820
 7379TIP3    H243629   1.790   2.302  16.288 -2.6616  0.3824  2.3035
 7380TIP3   OH243630   1.379   1.154  15.127  0.2020 -0.6809 -0.3431
 7380TIP3    H143631   1.414   1.165  15.039 -0.0691 -1.7002 -0.5901
 7380TIP3    H243632   1.295   1.200  15.125 -0.2624 -1.5307 -0.9215
 7381TIP3   OH243633   1.639   4.170  14.577 -0.0416  0.6435 -0.1847
 7381TIP3    H143634   1.690   4.161  14.496  1.7864 -0.1295  1.0273
 7381TIP3    H243635   1.623   4.264  14.584  0.7280  0.8366 -0.8764
 7382TIP3   OH243636   4.250   3.060  16.268 -0.2929  0.2255  0.0067
 7382TIP3    H143637   4.174   3.118  16.259  0.0196  0.5722 -0.3788
 7382TIP3    H243638   4.326   3.116  16.253  0.1045  0.1411  1.5643
 7383TIP3   OH243639   3.071   0.991  15.690  0.2584 -0.8922  0.0397
 7383TIP3    H143640   3.085   0.899  15.668  1.3776 -0.6112 -0.4839
 7383TIP3    H243641   3.067   0.993  15.785  2.9576 -1.1358  0.1899
 7384TIP3   OH243642   1.939   6.015   2.830  0.3542  0.0219 -0.2228
 7384TIP3    H143643   1.990   5.988   2.754 -1.2407  1.4865 -1.8717
 7384TIP3    H243644   1.876   5.945   2.844  1.1161 -0.5807  0.2068
 7385TIP3   OH243645   5.042   1.919  14.876 -0.0697 -0.0225 -0.5078
 7385TIP3    H143646   4.957   1.911  14.833 -1.4413  1.1417  1.8547
 7385TIP3    H243647   5.043   1.847  14.940 -0.2484  1.2361  0.9550
 7386TIP3   OH243648   0.195   4.626  16.811  0.6867  0.4025 -0.0740
 7386TIP3    H143649   0.153   4.630  16.898  1.7458  0.2051  0.4476
 7386TIP3    H243650   0.202   4.532  16.793  1.9328  0.4135  0.3395
 7387TIP3   OH243651   1.711   2.555   0.433  0.6156  0.2479  0.4827
 7387TIP3    H143652   1.694   2.518   0.347 -0.1013  0.6177  0.4598
 7387TIP3    H243653   1.628   2.546   0.480  0.8159  0.6340  0.9171
 7388TIP3   OH243654   4.517   2.173  16.954  0.4324 -0.5062  0.0504
 7388TIP3    H143655   4.446   2.214  17.004  0.2778  0.5054 -0.9757
 7388TIP3    H243656   4.575   2.246  16.931 -0.5583 -0.6034 -3.0104
 7389TIP3   OH243657   5.399   5.290   3.203 -0.4778 -0.1688  0.0170
 7389TIP3    H143658   5.426   5.366   3.153  2.0494 -1.3193 -0.4324
 7389TIP3    H243659   5.418   5.312   3.294 -0.2458 -0.0787 -0.0558
 7390TIP3   OH243660   3.868   3.752   1.017  0.0476  0.7925  0.0917
 7390TIP3    H143661   3.911   3.747   0.932  0.1234 -1.2696  0.2426
 7390TIP3    H243662   3.779   3.781   0.998  0.3826  1.4054 -0.5652
 7391TIP3   OH243663   5.069   0.407   1.244 -0.1329  0.5422  0.1093
 7391TIP3    H143664   5.079   0.487   1.297  1.3376  1.4622 -1.5212
 7391TIP3    H243665   5.147   0.356   1.263  0.4910  0.9643 -1.3240
 7392TIP3   OH243666   4.994   5.534   0.630  0.2824 -0.1805  0.8836
 7392TIP3    H143667   5.024   5.575   0.549 -0.4434  0.4305  0.9197
 7392TIP3    H243668   4.964   5.447   0.604  1.5317 -0.5793  0.7574
 7393TIP3   OH243669   3.089   4.574   2.219 -0.2845  0.0725 -0.6120
 7393TIP3    H143670   3.013   4.621   2.252  0.6816  0.7244  0.7411
 7393TIP3    H243671   3.124   4.629   2.149 -0.0160  0.6552 -0.0236
 7394TIP3   OH243672   3.484   5.542  14.728  0.5443  0.2955 -0.7507
 7394TIP3    H143673   3.513   5.612  14.670  0.7671 -0.1333 -1.1646
 7394TIP3    H243674   3.514   5.462  14.686  1.3011  0.0114  0.2978
 7395TIP3   OH243675   2.664   6.198  13.331 -0.1771 -0.4234 -0.3440
 7395TIP3    H143676   2.734   6.262  13.340 -1.7760  1.5041 -1.1849
 7395TIP3    H243677   2.707   6.119  13.296  1.4071  1.0521 -1.8351
 7396TIP3   OH243678   4.928   3.111  15.269 -0.0217  0.2836 -0.1210
 7396TIP3    H143679   4.991   3.141  15.203  0.2424 -0.7710 -0.3546
 7396TIP3    H243680   4.966   3.030  15.302 -0.0278  0.9470  1.5195
 7397TIP3   OH243681   3.883   6.381  16.005 -0.0268 -0.1789  0.3077
 7397TIP3    H143682   3.932   6.459  16.031  0.0098 -0.6568  1.7192
 7397TIP3    H243683   3.926   6.309  16.051  0.3878 -1.1378 -1.5480
 7398TIP3   OH243684   1.009   6.530   5.691  0.1210 -0.2296  0.0382
 7398TIP3    H143685   1.036   6.439   5.699 -1.9073 -1.1492 -2.6761
 7398TIP3    H243686   1.090   6.577   5.669  0.8880 -1.6178 -0.1638
 7399TIP3   OH243687   3.609   3.330   5.154 -0.6522 -0.4096 -0.0582
 7399TIP3    H143688   3.651   3.326   5.240 -1.9369 -0.9904  0.5594
 7399TIP3    H243689   3.608   3.424   5.133  0.8552 -0.3822 -0.0555
 7400TIP3   OH243690   3.952   3.403   6.087  0.2259  0.2588  0.3438
 7400TIP3    H143691   3.917   3.445   6.009 -1.0030 -0.0201  0.7239
 7400TIP3    H243692   3.908   3.318   6.090  0.8256 -0.0395  0.9211
 7401TIP3   OH243693   3.063   6.240   0.385 -0.4622  0.3772 -0.1211
 7401TIP3    H143694   3.070   6.155   0.428 -1.3414 -0.3361 -1.3518
 7401TIP3    H243695   3.096   6.303   0.449  0.3286 -0.9088  0.7365
 7402TIP3   OH243696   0.413   6.312   3.787  0.0250  0.2533  0.0891
 7402TIP3    H143697   0.372   6.398   3.779 -0.8183 -0.0238  1.2990
 7402TIP3    H243698   0.472   6.319   3.862 -1.0637 -0.5977  1.0448
 7403TIP3   OH243699   6.212   6.331  14.224 -0.7355 -0.1337  0.1405
 7403TIP3    H143700   6.230   6.305  14.314  1.6185 -0.7460 -0.4742
 7403TIP3    H243701   6.170   6.254  14.185 -1.0789 -0.1306  0.5044
 7404TIP3   OH243702   1.353   5.117   3.940  0.2290 -0.5059 -0.3789
 7404TIP3    H143703   1.449   5.122   3.939  0.1422  1.7131 -2.2248
 7404TIP3    H243704   1.327   5.151   3.854 -2.2871  0.5192  0.7569
 7405TIP3   OH243705   3.164   4.060  12.578 -0.0065 -0.1183 -0.4182
 7405TIP3    H143706   3.225   4.071  12.651 -1.5691  3.4441  0.4721
 7405TIP3    H243707   3.202   4.110  12.507 -0.2333 -0.6784 -0.9415
 7406TIP3   OH243708   4.999   5.970  17.243 -0.2463 -0.1391  0.4550
 7406TIP3    H143709   4.931   5.938  17.302 -0.0576  2.4998  2.1672
 7406TIP3    H243710   5.079   5.928  17.274 -0.5409 -0.6576  0.5229
 7407TIP3   OH243711   6.766   4.076   4.578 -0.4655  0.4002  0.3069
 7407TIP3    H143712   6.681   4.105   4.612 -0.7504  1.7037 -1.4530
 7407TIP3    H243713   6.780   3.990   4.619 -3.7853 -0.9745 -1.2355
 7408TIP3   OH243714   6.090   6.777  15.653  0.4206  0.2677 -0.0334
 7408TIP3    H143715   6.115   6.867  15.677 -1.8184  0.9687 -0.1908
 7408TIP3    H243716   6.102   6.773  15.559  0.0278  0.5874 -0.1017
 7409TIP3   OH243717   6.413   2.916   1.983  0.3657 -0.1825  0.1359
 7409TIP3    H143718   6.466   2.987   1.947 -1.8391  0.4046 -2.0850
 7409TIP3    H243719   6.468   2.838   1.974  0.5858  0.2745 -2.8619
 7410TIP3   OH243720   0.102   5.545   0.103  0.5368 -0.1614  0.4954
 7410TIP3    H143721   0.155   5.504   0.033 -0.7240  0.9589 -1.1572
 7410TIP3    H243722   0.016   5.504   0.095 -0.7709  2.7707 -1.2360
 7411TIP3   OH243723   2.946   5.147   3.573 -0.3405 -0.2055  0.5782
 7411TIP3    H143724   3.000   5.140   3.494 -1.0593  0.5251  0.0021
 7411TIP3    H243725   2.977   5.077   3.630  1.7708  0.7252  0.6009
 7412TIP3   OH243726   5.495   1.823   1.386 -0.4404  0.0445  0.4035
 7412TIP3    H143727   5.528   1.910   1.362 -2.9769  1.0777  0.4933
 7412TIP3    H243728   5.484   1.778   1.302 -1.8687  0.8839  0.1072
 7413TIP3   OH243729   2.923   1.023   5.198  0.5886 -0.1770 -0.4954
 7413TIP3    H143730   2.873   0.989   5.124 -0.2793  0.3062 -0.1369
 7413TIP3    H243731   2.865   1.088   5.239  0.5229 -1.4016  1.4070
 7414TIP3   OH243732   0.511   3.692   2.712  0.0145  0.9775  0.2925
 7414TIP3    H143733   0.527   3.783   2.686  3.4028  0.6283  0.8550
 7414TIP3    H243734   0.491   3.697   2.805  1.9005  1.0551  0.7218
 7415TIP3   OH243735   5.002   1.413  15.215 -0.5455  0.4269  0.1465
 7415TIP3    H143736   4.969   1.422  15.126 -0.6849  0.1762  0.1716
 7415TIP3    H243737   4.924   1.407  15.270 -0.4710 -0.4107  0.1795
 7416TIP3   OH243738   2.654   0.463   1.532 -0.0164  0.4049  0.5109
 7416TIP3    H143739   2.634   0.494   1.443 -1.9325 -0.3341  0.6639
 7416TIP3    H243740   2.662   0.368   1.522  2.6284  0.5931  0.6227
 7417TIP3   OH243741   0.917   4.736   4.257 -0.1062  0.3799  0.4235
 7417TIP3    H143742   0.884   4.667   4.199  1.9879  1.7247 -2.5196
 7417TIP3    H243743   1.005   4.708   4.280  0.1953  1.3160  0.4381
 7418TIP3   OH243744   4.652   2.362  13.217  0.2313  0.2029 -0.2616
 7418TIP3    H143745   4.739   2.389  13.247 -0.2087  1.1352  0.1977
 7418TIP3    H243746   4.618   2.308  13.288  0.8154 -0.9944 -0.8638
 7419TIP3   OH243747   6.598   2.458  12.651  0.0583 -0.4348 -0.4868
 7419TIP3    H143748   6.586   2.366  12.675 -1.1993 -0.5159 -1.3944
 7419TIP3    H243749   6.540   2.471  12.577  0.6079  0.9732 -0.6819
 7420TIP3   OH243750   5.641   1.794   4.268  0.0926 -0.0196 -0.5048
 7420TIP3    H143751   5.576   1.791   4.338 -0.4919 -1.3463 -1.0947
 7420TIP3    H243752   5.725   1.789   4.314 -0.2614  0.1259  0.1686
 7421TIP3   OH243753   1.761   6.158   5.061 -0.3633  0.1263  0.3393
 7421TIP3    H143754   1.726   6.217   4.993 -0.3277  0.1719  0.3601
 7421TIP3    H243755   1.825   6.104   5.015 -0.4645  0.0391  0.3002
 7422TIP3   OH243756   0.559   4.060   4.842 -0.3115  0.6823 -0.3274
 7422TIP3    H143757   0.466   4.041   4.838 -0.5144  1.6154 -0.2323
 7422TIP3    H243758   0.592   4.006   4.913 -0.7427  0.1910 -0.4992
 7423TIP3   OH243759   3.838   5.002  12.994  0.3830  0.4558  0.3099
 7423TIP3    H143760   3.871   4.919  13.027 -0.0742  0.4940  0.8819
 7423TIP3    H243761   3.799   5.044  13.071 -1.3177  0.2513 -0.4107
 7424TIP3   OH243762   6.723   3.687   2.617  0.1840 -0.3964  0.2771
 7424TIP3    H143763   6.767   3.768   2.591  0.3454 -0.4820  0.2864
 7424TIP3    H243764   6.751   3.672   2.707 -2.6081  1.4445  1.5208
 7425TIP3   OH243765   3.674   1.408   3.373 -0.2294  0.4898  0.1313
 7425TIP3    H143766   3.769   1.410   3.364 -0.4294  2.4176 -1.9023
 7425TIP3    H243767   3.648   1.325   3.333  0.4950  0.5624 -0.5032
 7426TIP3   OH243768   4.273   4.947  15.481 -0.6163 -0.0633 -0.4869
 7426TIP3    H143769   4.200   4.938  15.543 -1.0581  1.6819 -0.7233
 7426TIP3    H243770   4.347   4.907  15.526 -1.4150 -0.6934  0.2989
 7427TIP3   OH243771   0.375   4.579  11.888  0.0627 -0.3099 -0.5730
 7427TIP3    H143772   0.292   4.625  11.897  0.1361 -0.0750 -1.0763
 7427TIP3    H243773   0.396   4.585  11.794 -0.4366 -2.2720 -0.8216
 7428TIP3   OH243774   6.571   3.172  15.541  0.2786  0.1637 -0.0543
 7428TIP3    H143775   6.498   3.151  15.483  0.9378 -0.0739 -0.7975
 7428TIP3    H243776   6.630   3.097  15.535  1.4485  1.1266 -0.8276
 7429TIP3   OH243777   0.000   5.818  10.894 -0.4070  0.0300  0.3478
 7429TIP3    H143778   0.034   5.730  10.910 -0.2076  0.3462  1.8071
 7429TIP3    H243779   0.074   5.876  10.914  0.2180  0.4475 -2.9353
 7430TIP3   OH243780   3.541   5.703   0.942  0.0196  0.4019  0.0871
 7430TIP3    H143781   3.635   5.710   0.928  0.1735 -1.5182 -0.0000
 7430TIP3    H243782   3.520   5.773   1.004  1.7424 -0.0325  1.1961
 7431TIP3   OH243783   1.571   4.044  11.960  0.1709  0.1216 -0.1728
 7431TIP3    H143784   1.511   4.107  11.999 -0.1374 -0.3567  0.1286
 7431TIP3    H243785   1.514   3.975  11.924  0.4812  0.2473 -0.9138
 7432TIP3   OH243786   3.089   4.029  14.017 -0.0253 -0.4147  0.0405
 7432TIP3    H143787   3.055   4.114  13.989 -1.9711 -2.2087 -3.3325
 7432TIP3    H243788   3.161   4.011  13.957 -1.5361 -2.4514 -1.2168
 7433TIP3   OH243789   2.983   5.416   3.412  0.3092 -0.0806  0.2060
 7433TIP3    H143790   2.968   5.509   3.427  0.0690  0.3465 -2.5050
 7433TIP3    H243791   3.064   5.396   3.460  0.9884  1.7899 -0.1405
 7434TIP3   OH243792   2.387   4.172  16.346  0.7823 -0.4303 -0.6124
 7434TIP3    H143793   2.402   4.211  16.260  0.5818  0.5906 -0.1855
 7434TIP3    H243794   2.472   4.177  16.390  1.0275 -1.4564 -0.9378
 7435TIP3   OH243795   3.032   3.311   2.918 -0.1451  0.1035  0.2729
 7435TIP3    H143796   2.985   3.379   2.870  0.6548  0.9609  0.6774
 7435TIP3    H243797   3.003   3.321   3.009  0.4411  0.3160  0.4407
 7436TIP3   OH243798   1.494   4.685   1.680  0.1954 -0.0416 -0.3183
 7436TIP3    H143799   1.480   4.768   1.726  1.8673  1.0807 -1.7955
 7436TIP3    H243800   1.541   4.709   1.600 -0.2810 -2.2914 -1.3030
 7437TIP3   OH243801   4.311   2.640   5.727  0.1768  0.2531  0.2133
 7437TIP3    H143802   4.342   2.727   5.754  2.3293 -0.1574 -0.9194
 7437TIP3    H243803   4.222   2.636   5.762  0.0988  2.8500  0.4458
 7438TIP3   OH243804   3.955   0.045   3.012  0.0840  0.4667  0.0253
 7438TIP3    H143805   3.931   0.052   3.104 -0.0938  0.1503  0.0064
 7438TIP3    H243806   4.049   0.062   3.010 -0.2610  2.4937 -0.0045
 7439TIP3   OH243807   5.857   5.749   3.277  0.2870 -0.7169  0.6831
 7439TIP3    H143808   5.833   5.664   3.238 -0.1840 -0.2542 -0.0706
 7439TIP3    H243809   5.783   5.806   3.256 -0.1766 -0.5623  2.6676
 7440TIP3   OH243810   2.262   5.634   6.004  0.1117  0.6954 -0.0646
 7440TIP3    H143811   2.330   5.635   6.072 -0.0706 -2.4317  0.2639
 7440TIP3    H243812   2.181   5.656   6.050  0.2080 -0.0714  0.4897
 7441TIP3   OH243813   5.634   0.770  16.715 -0.5704  0.6026  0.5044
 7441TIP3    H143814   5.669   0.736  16.633 -0.0755  0.1082  0.9155
 7441TIP3    H243815   5.672   0.857  16.725  0.8676 -0.0872  1.1501
 7442TIP3   OH243816   5.290   4.640  12.411 -0.2137  0.3881  0.6875
 7442TIP3    H143817   5.282   4.702  12.338  1.7816 -0.9906 -0.7663
 7442TIP3    H243818   5.202   4.634  12.447 -1.4121  0.6563 -2.0352
 7443TIP3   OH243819   3.184   0.608  13.881  0.0320  0.7083 -0.8163
 7443TIP3    H143820   3.223   0.686  13.921  0.0704 -1.2009  3.1830
 7443TIP3    H243821   3.230   0.535  13.923 -4.4392 -1.5223  0.4959
 7444TIP3   OH243822   4.966   3.694  15.081  0.2261 -0.2128  0.4370
 7444TIP3    H143823   4.933   3.779  15.053  1.3969  0.7790  1.9996
 7444TIP3    H243824   4.888   3.640  15.090 -0.6606  1.0920  0.7079
 7445TIP3   OH243825   2.848   1.338  16.546  0.1285 -0.0435  0.1415
 7445TIP3    H143826   2.882   1.397  16.478  0.5060 -0.0044  0.3582
 7445TIP3    H243827   2.876   1.379  16.629  0.3476 -0.4984  0.2938
 7446TIP3   OH243828   4.347   1.687  13.038  0.8421  0.2994 -0.2612
 7446TIP3    H143829   4.331   1.768  12.990  0.0424 -0.4589 -1.2802
 7446TIP3    H243830   4.318   1.618  12.979 -0.2167 -0.6435  1.3315
 7447TIP3   OH243831   0.367   1.154   1.286  0.3629  0.1265 -0.4475
 7447TIP3    H143832   0.325   1.238   1.307 -0.4965 -0.3549 -0.2108
 7447TIP3    H243833   0.296   1.100   1.252  1.0369 -0.3023 -1.2059
 7448TIP3   OH243834   4.542   2.184  10.351 -0.2744  0.2125  0.3251
 7448TIP3    H143835   4.583   2.137  10.278  1.2829 -0.2653  1.4730
 7448TIP3    H243836   4.532   2.118  10.420  1.0422  1.3020  1.5965
 7449TIP3   OH243837   6.674   1.179  14.071 -0.0823 -0.1377  0.0587
 7449TIP3    H143838   6.700   1.256  14.021 -0.3105 -0.4451 -0.5474
 7449TIP3    H243839   6.757   1.138  14.097  0.0383 -0.0345 -0.1628
 7450TIP3   OH243840   3.770   0.210   6.658 -0.6189  0.3327 -0.1842
 7450TIP3    H143841   3.852   0.240   6.698 -0.3321  1.3223 -1.4615
 7450TIP3    H243842   3.770   0.116   6.670  0.1228  0.4621  0.9141
 7451TIP3   OH243843   5.701   3.730   4.685 -0.0663  0.1497  0.0072
 7451TIP3    H143844   5.749   3.732   4.768 -1.6050  0.1418  0.9097
 7451TIP3    H243845   5.662   3.817   4.677  0.3159  0.2510 -0.8629
 7452TIP3   OH243846   6.005   3.124  13.792 -0.8404  0.2040  0.0326
 7452TIP3    H143847   5.960   3.122  13.876 -0.7230  0.8771  0.1167
 7452TIP3    H243848   5.973   3.046  13.746 -0.7889 -0.2503  0.7540
 7453TIP3   OH243849   4.236   1.765   3.328 -0.1471  0.0679  0.1664
 7453TIP3    H143850   4.143   1.757   3.309 -0.4894  0.4557  1.5571
 7453TIP3    H243851   4.239   1.813   3.411  1.3055  0.4491 -0.0840
 7454TIP3   OH243852   2.399   3.957  14.534 -0.3160 -0.1881 -0.1109
 7454TIP3    H143853   2.473   4.015  14.550  0.6312 -1.6465  1.0559
 7454TIP3    H243854   2.416   3.920  14.447 -1.3166  1.7989 -1.1840
 7455TIP3   OH243855   0.201   4.936   2.265 -0.2850  0.3437  0.4935
 7455TIP3    H143856   0.227   4.877   2.195  1.9942 -0.7142  2.1658
 7455TIP3    H243857   0.111   4.961   2.244  0.6217  0.7319 -3.2307
 7456TIP3   OH243858   2.691   5.991   4.579  0.5360 -1.1139  0.3907
 7456TIP3    H143859   2.606   5.973   4.538  0.4017 -1.9882  1.0317
 7456TIP3    H243860   2.669   6.045   4.656  0.6800 -0.3614 -0.0962
 7457TIP3   OH243861   3.684   1.601  16.946  0.6084  0.0299  0.1621
 7457TIP3    H143862   3.673   1.606  16.851  1.8663 -0.4503 -0.0089
 7457TIP3    H243863   3.743   1.527  16.960  0.7358  0.3359  1.2924
 7458TIP3   OH243864   6.422   5.379  15.079 -0.3830  0.6077 -0.5781
 7458TIP3    H143865   6.375   5.318  15.137  0.7634 -0.1463 -0.4302
 7458TIP3    H243866   6.357   5.446  15.058 -1.2158  0.1626  0.4929
 7459TIP3   OH243867   3.334   5.290   5.433  0.3423  0.3499  0.7526
 7459TIP3    H143868   3.294   5.240   5.504 -0.1444  0.6732  0.7100
 7459TIP3    H243869   3.410   5.238   5.405 -0.8879 -0.9779 -0.1511
 7460TIP3   OH243870   3.829   6.002  14.803  0.0415 -0.0923  0.0358
 7460TIP3    H143871   3.842   5.920  14.756 -0.0762 -0.1395  0.0832
 7460TIP3    H243872   3.814   6.067  14.735 -1.1990 -0.3581  0.0363
 7461TIP3   OH243873   1.438   6.267   2.181 -0.1290  0.0548  0.5990
 7461TIP3    H143874   1.494   6.216   2.123 -1.1491  0.4217 -0.7144
 7461TIP3    H243875   1.378   6.314   2.123 -0.0968  1.7006  1.8412
 7462TIP3   OH243876   2.597   6.438   6.035 -0.3241  0.4790  0.1126
 7462TIP3    H143877   2.594   6.393   5.951 -0.0240  0.9029 -0.1287
 7462TIP3    H243878   2.518   6.491   6.037  0.0246  1.0126 -0.2121
 7463TIP3   OH243879   6.566   6.395   5.713  0.4033  0.2190  0.0519
 7463TIP3    H143880   6.476   6.380   5.743  0.7862 -1.1786  0.5078
 7463TIP3    H243881   6.556   6.423   5.622 -0.5111  0.2730  0.1660
 7464TIP3   OH243882   1.314   5.725   1.609  0.1627  0.0830  0.2095
 7464TIP3    H143883   1.221   5.743   1.603  0.3536  1.1895  0.4312
 7464TIP3    H243884   1.333   5.727   1.703  0.2147 -1.2163  0.2415
 7465TIP3   OH243885   0.054   1.283   0.043  0.1578 -0.5297  0.4885
 7465TIP3    H143886   0.115   1.343  -0.001 -1.3730  0.5891 -0.1632
 7465TIP3    H243887   0.048   1.208  -0.015  1.0138 -0.7046  0.6173
 7466TIP3   OH243888   6.805   5.096  12.089  0.3492  0.1492  0.5050
 7466TIP3    H143889   6.765   5.082  12.175 -1.2526 -4.1830 -0.8051
 7466TIP3    H243890   6.731   5.092  12.028  1.8582 -0.0946 -1.3384
 7467TIP3   OH243891   3.698   0.936  12.381 -0.0252  0.4690 -0.6615
 7467TIP3    H143892   3.756   1.011  12.395 -1.1195  0.9870  1.2345
 7467TIP3    H243893   3.744   0.863  12.423 -0.5765  0.8173  0.5746
 7468TIP3   OH243894   4.187   0.317  15.258 -0.4770  0.2623  0.3244
 7468TIP3    H143895   4.117   0.367  15.216 -0.2573  0.9283  0.7308
 7468TIP3    H243896   4.245   0.291  15.187 -2.2468 -2.1490 -0.3090
 7469TIP3   OH243897   3.173   5.764   2.452  0.1775 -0.4876  0.2180
 7469TIP3    H143898   3.160   5.859   2.460  2.4840 -0.2982  2.5924
 7469TIP3    H243899   3.140   5.742   2.365 -2.8544  2.0366  0.6250
 7470TIP3   OH243900   3.637   6.188   4.896  0.0213 -1.0119 -0.1556
 7470TIP3    H143901   3.593   6.248   4.836  0.9919 -0.3292 -0.1909
 7470TIP3    H243902   3.575   6.176   4.968  0.1223  0.6141  0.2037
 7471TIP3   OH243903   1.056   6.289  16.725 -0.4403 -0.0212  0.0154
 7471TIP3    H143904   1.099   6.373  16.710 -1.4139  0.3905 -0.5639
 7471TIP3    H243905   1.111   6.244  16.788  0.9183  0.4308 -0.8248
 7472TIP3   OH243906   2.996   2.684  16.109  0.3544 -0.1510  0.0392
 7472TIP3    H143907   3.013   2.737  16.031  1.0663  2.4750  1.9056
 7472TIP3    H243908   2.915   2.720  16.144 -0.2730 -1.7098  0.2179
 7473TIP3   OH243909   4.960   5.065  11.347  0.1345 -0.2148 -0.0368
 7473TIP3    H143910   4.936   5.157  11.343 -0.4347 -0.3852 -0.4794
 7473TIP3    H243911   4.887   5.018  11.306  0.0807 -0.9211  0.8394
 7474TIP3   OH243912   0.707   0.822   1.565 -0.5797  0.3331  0.1112
 7474TIP3    H143913   0.654   0.874   1.505  0.2728  1.2860  0.1559
 7474TIP3    H243914   0.704   0.870   1.648  0.3639  0.4242  0.1016
 7475TIP3   OH243915   2.738   1.942  11.931  0.0045 -0.2504 -0.4382
 7475TIP3    H143916   2.649   1.966  11.959 -0.3315  0.3703 -1.9588
 7475TIP3    H243917   2.725   1.894  11.850  1.0786 -0.0326 -0.7448
 7476TIP3   OH243918   1.749   6.406  15.260  0.3266  0.0123 -0.2271
 7476TIP3    H143919   1.790   6.472  15.316  1.9448 -1.0831 -0.0814
 7476TIP3    H243920   1.820   6.346  15.238 -0.9133 -1.1495 -1.1457
 7477TIP3   OH243921   1.631   0.658   1.848  0.3619 -0.1819  0.1603
 7477TIP3    H143922   1.688   0.733   1.866  2.7251 -2.1199  1.0095
 7477TIP3    H243923   1.660   0.627   1.762  0.1061 -0.7508  0.2776
 7478TIP3   OH243924   1.449   1.677  16.881 -0.4987  0.2239 -0.1119
 7478TIP3    H143925   1.375   1.738  16.871 -0.4273  0.4238  0.5481
 7478TIP3    H243926   1.490   1.675  16.794 -0.4081  1.2422 -0.1038
 7479TIP3   OH243927   5.642   4.966   0.067  0.3031  0.2978  0.1230
 7479TIP3    H143928   5.698   4.891   0.086 -0.4003 -0.3523 -0.3280
 7479TIP3    H243929   5.702   5.035   0.038  0.7812 -0.6549 -1.1781
 7480TIP3   OH243930   2.979   6.386  12.261  0.1141  0.3169 -0.1265
 7480TIP3    H143931   2.960   6.443  12.335 -0.9020  0.5958 -0.5971
 7480TIP3    H243932   2.926   6.308  12.276  0.6310 -0.0241 -0.0706
 7481TIP3   OH243933   2.125   3.374  14.971  0.2999 -0.4496 -0.0263
 7481TIP3    H143934   2.076   3.292  14.986 -0.6607  0.2351  0.6614
 7481TIP3    H243935   2.207   3.361  15.019 -0.6807 -0.2540  1.7900
 7482TIP3   OH243936   0.951   6.434  13.540  0.1497  0.4729 -0.2557
 7482TIP3    H143937   0.981   6.415  13.629  1.3337 -0.9213 -0.9250
 7482TIP3    H243938   0.856   6.420  13.543  0.5607 -2.7220  0.0543
 7483TIP3   OH243939   3.504   5.292  14.591  0.4451 -0.1567 -0.2848
 7483TIP3    H143940   3.592   5.261  14.609  0.4188  1.1498  2.2645
 7483TIP3    H243941   3.459   5.217  14.552  2.0499 -1.4933  0.3988
 7484TIP3   OH243942   5.783   2.373  10.694  0.1845  0.2748  0.1727
 7484TIP3    H143943   5.788   2.278  10.690  1.9757  0.4175 -1.6997
 7484TIP3    H243944   5.723   2.397  10.623  0.4421  0.5772  0.0554
 7485TIP3   OH243945   4.438   5.475   5.809 -0.1571 -0.0292  0.1797
 7485TIP3    H143946   4.386   5.551   5.783  2.2364  1.4506 -0.4200
 7485TIP3    H243947   4.446   5.483   5.904  0.3818  0.6778  0.0805
 7486TIP3   OH243948   3.703   0.226  15.335 -0.0907 -0.2234  0.0331
 7486TIP3    H143949   3.709   0.199  15.427 -0.1344 -0.9108 -0.1628
 7486TIP3    H243950   3.719   0.146  15.286  0.2142  0.2024 -0.5629
 7487TIP3   OH243951   1.893   4.679   4.153 -0.5088  0.5918  0.4022
 7487TIP3    H143952   1.846   4.602   4.185 -0.8996 -0.2012 -2.0290
 7487TIP3    H243953   1.957   4.644   4.092  0.9230  2.0035  1.0754
 7488TIP3   OH243954   3.992   0.067   4.259 -0.0530 -0.0240 -0.5865
 7488TIP3    H143955   3.981   0.162   4.261  1.6741  0.1885 -0.7439
 7488TIP3    H243956   4.035   0.050   4.175 -0.5875 -0.9821 -0.6779
 7489TIP3   OH243957   0.789   0.581   0.551  0.1056 -0.0520  0.0109
 7489TIP3    H143958   0.743   0.578   0.635 -0.1665 -0.9759 -0.1653
 7489TIP3    H243959   0.762   0.501   0.506  0.6774  0.1680 -0.7354
 7490TIP3   OH243960   5.081   1.612   5.199  0.0261  0.5874  0.6358
 7490TIP3    H143961   5.158   1.557   5.183 -0.0432 -0.2518  3.0258
 7490TIP3    H243962   5.116   1.701   5.199  0.8910  0.2593  1.0160
 7491TIP3   OH243963   4.858   6.040  17.031 -0.6249 -0.6041  0.1421
 7491TIP3    H143964   4.797   6.113  17.042  0.9839  0.8440 -0.2015
 7491TIP3    H243965   4.886   6.020  17.120 -1.1464 -0.8730  0.2482
 7492TIP3   OH243966   3.684   3.071   0.108 -0.0395 -0.3765  0.5665
 7492TIP3    H143967   3.633   3.012   0.052 -1.5135 -0.4611  1.9581
 7492TIP3    H243968   3.741   3.013   0.158 -0.1006 -0.4646  0.5344
 7493TIP3   OH243969   1.403   0.038  11.684 -0.4657  0.0866 -0.5156
 7493TIP3    H143970   1.467  -0.023  11.721 -1.0363 -0.1376  0.1101
 7493TIP3    H243971   1.321   0.018  11.730 -0.9667  0.4280 -1.2479
 7494TIP3   OH243972   2.240   5.313  15.143  0.4236  0.3129  0.4710
 7494TIP3    H143973   2.158   5.266  15.157  0.7877 -0.1224  1.2090
 7494TIP3    H243974   2.238   5.386  15.205 -0.3655  1.5948 -1.0272
 7495TIP3   OH243975   3.228   0.271   2.276  0.8683  0.2720 -0.2459
 7495TIP3    H143976   3.239   0.202   2.211  0.6763 -0.5473  0.5940
 7495TIP3    H243977   3.211   0.350   2.223  1.2986 -0.2677 -1.2076
 7496TIP3   OH243978   5.698   1.721   3.511 -0.2761  0.5421 -0.1888
 7496TIP3    H143979   5.649   1.646   3.544  0.8215  0.0795  0.4177
 7496TIP3    H243980   5.660   1.797   3.555 -1.5515  0.3761 -0.9837
 7497TIP3   OH243981   6.753   0.733  14.122 -0.1224 -0.2322 -0.1557
 7497TIP3    H143982   6.684   0.692  14.070 -0.4295 -0.6079  0.5307
 7497TIP3    H243983   6.727   0.716  14.213 -0.6379  2.1124  0.1520
 7498TIP3   OH243984   1.475   1.473  14.540 -0.0958 -0.8985 -0.0858
 7498TIP3    H143985   1.564   1.482  14.506 -0.9310  0.0361 -2.1308
 7498TIP3    H243986   1.446   1.564  14.555 -0.8030 -1.1770  0.2552
 7499TIP3   OH243987   4.075   3.559   2.374  0.3319  0.4605  0.0161
 7499TIP3    H143988   4.142   3.547   2.307  0.4283 -0.9960  0.3646
 7499TIP3    H243989   4.029   3.475   2.377 -1.0273  1.2034  0.3024
 7500TIP3   OH243990   5.653   5.948   3.193 -0.0249  0.0122 -0.0875
 7500TIP3    H143991   5.593   5.958   3.267 -0.8263  0.1721 -0.7424
 7500TIP3    H243992   5.680   6.038   3.171 -2.3891  0.3009 -2.0656
 7501TIP3   OH243993   1.532   1.968   3.135  0.4464 -0.3217  0.1075
 7501TIP3    H143994   1.491   2.033   3.078  0.3658 -0.5853 -0.1411
 7501TIP3    H243995   1.621   1.960   3.102  0.7871  0.4664  0.8360
 7502TIP3   OH243996   6.441   0.975   5.332 -0.0348  0.3225 -0.2669
 7502TIP3    H143997   6.380   1.016   5.271 -0.3328  0.9832  0.4706
 7502TIP3    H243998   6.387   0.920   5.388  0.2645 -0.4455 -0.7186
 7503TIP3   OH243999   5.612   2.764  11.905  0.1927 -0.2604 -0.0066
 7503TIP3    H144000   5.584   2.792  11.992 -1.9905  0.1635 -0.8047
 7503TIP3    H244001   5.611   2.844  11.853  2.6372 -0.3061 -0.1713
 7504TIP3   OH244002   6.025   2.254  12.339 -0.5787  0.0324 -0.3000
 7504TIP3    H144003   5.994   2.264  12.249 -0.2609  0.7747 -0.3394
 7504TIP3    H244004   6.114   2.291  12.337 -0.3696 -0.4384  0.1983
 7505TIP3   OH244005   0.024   5.242   4.073 -0.9273 -0.0330  0.2103
 7505TIP3    H144006  -0.032   5.192   4.014 -1.0571 -0.7984  0.9703
 7505TIP3    H244007  -0.018   5.328   4.078 -1.3189 -0.1910 -0.2398
 7506TIP3   OH244008   4.728   4.026  12.391  0.3089 -0.1981 -0.3070
 7506TIP3    H144009   4.656   4.080  12.423  0.5815 -0.5322  0.8992
 7506TIP3    H244010   4.761   4.073  12.314 -1.7864 -0.5353 -1.4422
 7507TIP3   OH244011   2.657   5.525   5.703 -0.0230  0.1831 -0.2147
 7507TIP3    H144012   2.698   5.575   5.632  0.4735 -1.2140 -0.9464
 7507TIP3    H244013   2.649   5.436   5.667  1.6628 -0.9207  2.0496
 7508TIP3   OH244014   1.151   2.745  17.216 -0.3531  0.4174  0.8964
 7508TIP3    H144015   1.067   2.788  17.228 -0.0828  1.1362  0.2759
 7508TIP3    H244016   1.135   2.678  17.149 -0.4469  0.5002  0.8349
 7509TIP3   OH244017   5.307   4.880   1.963 -0.6610 -0.4052 -0.1603
 7509TIP3    H144018   5.313   4.786   1.949  1.4211 -0.3078  0.0145
 7509TIP3    H244019   5.334   4.893   2.054 -1.5463  0.3032  0.0120
 7510TIP3   OH244020   1.766   0.665   3.285  0.5610  0.2396  0.4089
 7510TIP3    H144021   1.839   0.660   3.224  0.0418 -0.0524 -0.1967
 7510TIP3    H244022   1.736   0.756   3.279 -0.2680 -0.0992 -0.6964
 7511TIP3   OH244023   5.001   2.147  13.608  0.1871  0.0217  0.1511
 7511TIP3    H144024   4.954   2.068  13.636  0.7836 -0.0436  0.9762
 7511TIP3    H244025   4.973   2.160  13.518 -2.2111  0.5423  0.9288
 7512TIP3   OH244026   4.345   6.691   2.795  0.1889 -0.2699  0.1982
 7512TIP3    H144027   4.344   6.605   2.754  0.8625 -0.5864  0.8338
 7512TIP3    H244028   4.253   6.713   2.809  0.0792 -1.8760  2.0906
 7513TIP3   OH244029   0.329   1.369  11.442 -0.0449 -0.1032 -0.3937
 7513TIP3    H144030   0.290   1.319  11.370 -1.0775 -1.4797  1.0960
 7513TIP3    H244031   0.416   1.331  11.453  0.2245  0.2955 -1.0707
 7514TIP3   OH244032   5.112   1.613  10.947 -0.5722  0.2674  0.7794
 7514TIP3    H144033   5.191   1.620  10.894 -1.2536 -1.9143 -0.6003
 7514TIP3    H244034   5.040   1.621  10.884 -1.4052 -1.1344  1.5131
 7515TIP3   OH244035   3.062   6.646  16.098  0.0783 -0.0658  0.5862
 7515TIP3    H144036   3.077   6.711  16.029 -2.0229  0.7542  0.8831
 7515TIP3    H244037   3.119   6.673  16.169  0.0785  0.7946  0.2687
 7516TIP3   OH244038   6.472   4.585   0.410 -0.1636 -0.1690  0.3089
 7516TIP3    H144039   6.436   4.508   0.366  2.1964 -0.6971 -0.7872
 7516TIP3    H244040   6.552   4.605   0.362  1.0539  0.9165  2.6897
 7517TIP3   OH244041   1.348   5.949   2.152  0.1225 -0.3653  0.3537
 7517TIP3    H144042   1.353   6.044   2.142 -1.4999 -0.3381 -0.3674
 7517TIP3    H244043   1.379   5.914   2.068 -1.7601 -0.4048 -0.3407
 7518TIP3   OH244044   6.541   4.378  14.922 -0.7670  0.0348 -0.4143
 7518TIP3    H144045   6.569   4.287  14.932  0.6224  0.4812 -0.0116
 7518TIP3    H244046   6.603   4.416  14.860 -0.9136  0.8838 -0.0526
 7519TIP3   OH244047   4.457   0.762  15.825  0.2050  0.0626  0.4615
 7519TIP3    H144048   4.462   0.666  15.820 -1.2017  0.0528 -1.3204
 7519TIP3    H244049   4.365   0.782  15.811  0.7484  1.7650 -0.8554
 7520TIP3   OH244050   6.429   3.910   0.625 -0.1865 -0.3170 -0.4656
 7520TIP3    H144051   6.501   3.943   0.679 -0.1296 -0.3911 -0.4970
 7520TIP3    H244052   6.468   3.896   0.539  0.3067 -2.5266  0.0995
 7521TIP3   OH244053   2.749   5.577  15.299 -0.1161  0.1376  0.1338
 7521TIP3    H144054   2.683   5.572  15.230 -1.9371 -0.7284  1.8862
 7521TIP3    H244055   2.714   5.524  15.370  2.0717  0.3939  1.4624
 7522TIP3   OH244056   4.111   0.223  16.850  0.1627  0.0384 -0.0181
 7522TIP3    H144057   4.068   0.146  16.814  3.7838 -1.9969 -0.1456
 7522TIP3    H244058   4.063   0.241  16.931 -1.6852 -1.3695 -0.7523
 7523TIP3   OH244059   2.602   2.723   1.912  0.0424 -0.7806  0.2239
 7523TIP3    H144060   2.544   2.787   1.954 -1.5511 -1.6451 -0.5733
 7523TIP3    H244061   2.667   2.776   1.867 -1.3207  0.3201 -0.5147
 7524TIP3   OH244062   5.466   6.358  10.954  0.0142 -0.6021  0.3403
 7524TIP3    H144063   5.459   6.451  10.974  1.5943 -0.7166  1.4727
 7524TIP3    H244064   5.402   6.316  11.012  1.1625 -0.4712  1.6967
 7525TIP3   OH244065   1.431   0.380   2.480  1.0928  0.4140  0.5518
 7525TIP3    H144066   1.345   0.407   2.448  0.2528 -0.5526  1.9533
 7525TIP3    H244067   1.487   0.457   2.467 -0.0035  1.0869 -0.2436
 7526TIP3   OH244068   5.160   3.401   4.716 -0.1339 -0.1371 -0.6130
 7526TIP3    H144069   5.134   3.345   4.790 -0.9617 -1.7258 -2.0734
 7526TIP3    H244070   5.217   3.345   4.663  2.5481  1.8136  0.1093
 7527TIP3   OH244071   6.191   4.942   4.816  0.5423 -0.7302 -0.4326
 7527TIP3    H144072   6.241   4.907   4.890 -0.2812 -1.3532 -0.1689
 7527TIP3    H244073   6.258   4.980   4.758  1.3231 -1.6050 -0.1152
 7528TIP3   OH244074   1.647   6.667   4.206 -0.0782 -0.9418  0.1542
 7528TIP3    H144075   1.737   6.636   4.217  0.0268 -1.4862 -2.0029
 7528TIP3    H244076   1.639   6.682   4.111 -1.6914  0.8344  0.5472
 7529TIP3   OH244077   0.826   6.502   5.893 -0.1916 -0.3397  0.1053
 7529TIP3    H144078   0.877   6.521   5.814 -0.4763  0.2769  0.0685
 7529TIP3    H244079   0.750   6.560   5.887 -2.1388 -2.9575 -1.0206
 7530TIP3   OH244080   4.669   3.636   3.125 -0.1887 -0.2286  0.2723
 7530TIP3    H144081   4.708   3.708   3.174 -1.9947 -0.1966  1.7220
 7530TIP3    H244082   4.742   3.596   3.078  1.0171  1.8615  0.3047
 7531TIP3   OH244083   4.957   5.944   1.819  0.4847 -0.6541  0.3958
 7531TIP3    H144084   4.906   5.906   1.747  2.2779  1.9473 -2.3259
 7531TIP3    H244085   4.911   6.025   1.840  0.2215 -1.1838  1.9674
 7532TIP3   OH244086   1.014   4.382   3.367 -0.1062 -0.2737  0.4954
 7532TIP3    H144087   1.067   4.331   3.427  1.7584  1.3259  0.2413
 7532TIP3    H244088   1.039   4.473   3.383 -0.1881  0.2548 -2.0683
 7533TIP3   OH244089   2.206   3.591  11.757  0.0933 -0.4133 -0.2914
 7533TIP3    H144090   2.201   3.687  11.758  1.0393 -0.3596  0.8439
 7533TIP3    H244091   2.223   3.568  11.849 -0.0841 -1.6642 -0.5720
 7534TIP3   OH244092   1.163   0.341   1.537 -0.0064  0.1806 -0.6517
 7534TIP3    H144093   1.144   0.247   1.535 -1.2617  0.4579 -3.5060
 7534TIP3    H244094   1.219   0.356   1.461 -1.1217  2.0030 -1.1223
 7535TIP3   OH244095   5.550   1.094  15.052  0.2921 -0.4471  0.0662
 7535TIP3    H144096   5.539   1.037  14.975  0.2521 -1.1986  0.6209
 7535TIP3    H244097   5.492   1.056  15.118 -0.1199  0.5420  0.2805
 7536TIP3   OH244098   0.321   0.542  12.978 -0.3570  0.5373 -0.5457
 7536TIP3    H144099   0.370   0.476  12.930  0.6267  2.0204 -1.6275
 7536TIP3    H244100   0.387   0.603  13.010 -1.1508  0.4097  1.3840
 7537TIP3   OH244101   2.220   2.216  11.801  0.1012  0.0508 -0.3555
 7537TIP3    H144102   2.131   2.237  11.828 -0.6175 -1.9393 -1.0496
 7537TIP3    H244103   2.237   2.274  11.726 -1.5893 -1.3073 -1.8483
 7538TIP3   OH244104   2.711   4.373  13.760  0.3262  0.0290  0.2856
 7538TIP3    H144105   2.701   4.280  13.781 -0.0073 -0.1409 -0.5964
 7538TIP3    H244106   2.679   4.418  13.838 -1.7886 -0.5797 -0.1826
 7539TIP3   OH244107   4.009   1.692  16.918 -0.0928  0.4728 -0.0299
 7539TIP3    H144108   4.019   1.744  16.839  0.3762  1.3645  0.6180
 7539TIP3    H244109   3.985   1.605  16.886  3.1620 -0.0311 -1.2984
 7540TIP3   OH244110   3.393   4.981   3.706 -0.1699  0.3334  0.5112
 7540TIP3    H144111   3.319   4.981   3.645 -0.1490  0.5436  0.4840
 7540TIP3    H244112   3.373   4.912   3.768  0.3040 -0.5818 -0.3303
 7541TIP3   OH244113   5.202   0.280   3.909  0.2315  0.4948  0.0144
 7541TIP3    H144114   5.145   0.351   3.880 -1.3136 -1.5573 -2.1217
 7541TIP3    H244115   5.142   0.213   3.942  1.4554 -1.2022 -1.1427
 7542TIP3   OH244116   6.814   2.992  14.225 -0.4247 -0.2324  0.2055
 7542TIP3    H144117   6.874   2.920  14.208  0.4021  0.0543  1.8341
 7542TIP3    H244118   6.866   3.071  14.212 -0.9809  0.0570 -0.3073
 7543TIP3   OH244119   1.733   5.022   4.690  0.3406  0.3875 -0.2225
 7543TIP3    H144120   1.699   4.947   4.642  1.3073 -0.5179  0.4911
 7543TIP3    H244121   1.703   5.009   4.780  0.1143  1.1044 -0.1898
 7544TIP3   OH244122   1.632   1.659  15.211 -0.1371 -0.7205  0.0667
 7544TIP3    H144123   1.595   1.576  15.183  3.1406 -2.0705 -0.5107
 7544TIP3    H244124   1.624   1.659  15.306 -2.3047 -0.6139 -0.1114
 7545TIP3   OH244125   2.815   4.313  16.500  0.1458 -0.1774  0.1520
 7545TIP3    H144126   2.878   4.246  16.528 -0.0861 -0.5956 -0.3194
 7545TIP3    H244127   2.859   4.396  16.520 -0.0115 -0.4493  1.7447
 7546TIP3   OH244128   6.288   6.508  15.212 -0.5101  0.0352 -0.8623
 7546TIP3    H144129   6.281   6.439  15.146 -1.4286  0.8351 -1.6318
 7546TIP3    H244130   6.340   6.470  15.282 -0.3258 -1.1588 -1.6348
 7547TIP3   OH244131   0.657   0.560  11.560  0.3656 -0.1491 -0.2717
 7547TIP3    H144132   0.715   0.554  11.635  0.9350 -1.8712 -0.8226
 7547TIP3    H244133   0.705   0.610  11.495  0.1197  0.8075  0.2820
 7548TIP3   OH244134   5.579   5.750   0.798 -0.2565  1.0367  0.4397
 7548TIP3    H144135   5.589   5.845   0.798 -0.1798  1.0677  3.0243
 7548TIP3    H244136   5.484   5.736   0.803 -0.3199  0.9433 -0.7812
 7549TIP3   OH244137   3.984   2.949  11.569  0.2551  0.3341 -0.4196
 7549TIP3    H144138   4.023   2.912  11.489  0.1809 -0.0220 -0.2917
 7549TIP3    H244139   4.046   2.927  11.638  0.8956  1.6515 -0.5565
 7550TIP3   OH244140   0.532   0.477  15.570  0.1412 -0.4034  0.1947
 7550TIP3    H144141   0.605   0.450  15.626  0.0761 -0.3431  0.3086
 7550TIP3    H244142   0.574   0.507  15.489  0.2399 -0.4285  0.2358
 7551TIP3   OH244143   3.299   2.652  11.220 -0.1572  0.1812 -0.1888
 7551TIP3    H144144   3.333   2.696  11.298 -0.6595 -0.8520  0.6271
 7551TIP3    H244145   3.222   2.703  11.194 -1.7331 -1.1727  1.7456
 7552TIP3   OH244146   3.016   5.195  16.832  0.1157 -0.2521 -0.4133
 7552TIP3    H144147   3.027   5.288  16.854 -2.6216 -0.0616  0.3904
 7552TIP3    H244148   3.078   5.150  16.888 -0.4887  0.9214  1.2735
 7553TIP3   OH244149   6.176   1.816   5.463  0.0522 -0.1545  0.2148
 7553TIP3    H144150   6.259   1.862   5.455 -0.9099  1.4856 -0.6735
 7553TIP3    H244151   6.177   1.779   5.551  1.5055  0.2630  0.3882
 7554TIP3   OH244152   4.073   2.816   3.242  0.2698 -0.1955 -0.2998
 7554TIP3    H144153   4.086   2.739   3.187 -3.1972 -0.3444 -1.0328
 7554TIP3    H244154   4.026   2.878   3.186  1.1886  1.6475  0.9235
 7555TIP3   OH244155   4.994   1.711  15.070  0.2335  0.2253  0.5851
 7555TIP3    H144156   4.966   1.650  15.001  0.2236 -0.6944  1.3852
 7555TIP3    H244157   4.928   1.701  15.138 -0.6684  2.3510  0.0554
 7556TIP3   OH244158   0.676   4.551  13.066  0.1309  0.5310  0.1816
 7556TIP3    H144159   0.664   4.629  13.119 -0.0240 -0.7275  2.0235
 7556TIP3    H244160   0.620   4.565  12.989  0.3369  2.3405  0.3385
 7557TIP3   OH244161   6.814   3.797   3.861 -0.3924  0.1776  0.7335
 7557TIP3    H144162   6.830   3.707   3.835  0.7424  0.0696  1.7597
 7557TIP3    H244163   6.719   3.805   3.864 -0.5380 -0.2155 -1.9344
 7558TIP3   OH244164   4.594   1.774   0.682  0.4660  0.1791 -0.2706
 7558TIP3    H144165   4.679   1.811   0.706  0.2928  1.3992 -1.4670
 7558TIP3    H244166   4.610   1.729   0.599  0.1037 -0.2358 -0.1187
 7559TIP3   OH244167   0.482   5.239   5.173  0.4326  0.8335  0.3787
 7559TIP3    H144168   0.531   5.236   5.091  0.1467 -0.6379  0.2405
 7559TIP3    H244169   0.534   5.186   5.234 -0.7305 -0.3576  0.3590
 7560TIP3   OH244170   1.646   4.613   6.579 -0.1452 -0.2963  0.4828
 7560TIP3    H144171   1.686   4.556   6.645 -1.7475  0.0012  1.7246
 7560TIP3    H244172   1.562   4.572   6.559  0.9380 -1.1760 -2.4730
 7561TIP3   OH244173   0.759   4.635   0.228  0.2501  0.1488  0.0383
 7561TIP3    H144174   0.741   4.542   0.241 -0.3375 -0.0070 -1.7864
 7561TIP3    H244175   0.701   4.662   0.156  4.1440  0.6372 -3.1051
 7562TIP3   OH244176   1.308   5.016   5.994 -0.4425  0.0740  0.3938
 7562TIP3    H144177   1.362   5.028   6.072 -1.0841 -0.3900  0.9132
 7562TIP3    H244178   1.361   5.053   5.923 -0.1749  1.1688  1.1536
 7563TIP3   OH244179   1.336   3.926   2.057 -0.5233  0.4119 -0.5083
 7563TIP3    H144180   1.397   3.853   2.067  0.9466  1.7973  0.9900
 7563TIP3    H244181   1.375   3.981   1.988 -0.1343  1.2073  0.3289
 7564TIP3   OH244182   6.326   4.461  11.852  0.7263  0.2095 -0.3139
 7564TIP3    H144183   6.297   4.515  11.925 -1.4091 -1.9555  0.5174
 7564TIP3    H244184   6.375   4.390  11.893  1.8465  0.4564 -1.2204
 7565TIP3   OH244185   5.477   2.405  11.203  0.2372 -0.0659  0.4781
 7565TIP3    H144186   5.482   2.310  11.197  2.4679  0.0127  0.6980
 7565TIP3    H244187   5.535   2.436  11.134 -0.4551  1.1276  0.4315
 7566TIP3   OH244188   3.796   5.108  11.957  0.1255 -0.3883  0.0401
 7566TIP3    H144189   3.748   5.049  11.899  0.0356 -0.3550  0.0785
 7566TIP3    H244190   3.730   5.137  12.020 -0.5863  2.1459 -1.7891
 7567TIP3   OH244191   3.698   0.688   0.714  0.3466  0.1564 -0.0988
 7567TIP3    H144192   3.689   0.760   0.651 -0.8436  0.5961  0.5647
 7567TIP3    H244193   3.723   0.731   0.796  1.9725 -0.4259 -0.2706
 7568TIP3   OH244194   4.823   1.017  12.910 -0.4668  0.2215  0.0060
 7568TIP3    H144195   4.754   1.052  12.854  1.1702 -0.2899 -2.4234
 7568TIP3    H244196   4.864   1.095  12.948 -0.7037  0.6494 -0.6013
 7569TIP3   OH244197   3.047   1.806  11.014  0.2397 -0.4406 -0.1108
 7569TIP3    H144198   3.034   1.711  11.018 -2.0321 -0.1823 -0.7010
 7569TIP3    H244199   3.013   1.839  11.097  3.2441 -0.3261  1.1484
 7570TIP3   OH244200   4.547   4.136  15.467 -0.5967  0.2937 -0.1957
 7570TIP3    H144201   4.508   4.049  15.461 -0.5767  0.2846 -0.1934
 7570TIP3    H244202   4.516   4.171  15.550 -1.2445  0.5970 -0.5648
 7571TIP3   OH244203   0.773   1.467   1.747  0.0168 -0.0961 -0.1084
 7571TIP3    H144204   0.759   1.451   1.840 -2.5868 -0.0124 -0.4561
 7571TIP3    H244205   0.794   1.380   1.711 -0.0743 -0.3216  0.3798
 7572TIP3   OH244206   1.338   3.785  13.010  0.0162 -0.1848 -0.0617
 7572TIP3    H144207   1.390   3.846  12.958  0.1361 -0.5633 -0.3811
 7572TIP3    H244208   1.249   3.794  12.976  0.0465 -0.2434 -0.1536
 7573TIP3   OH244209   3.410   3.299  15.160  0.1369  0.2440 -0.3854
 7573TIP3    H144210   3.397   3.393  15.151 -0.2218  0.2661  0.3647
 7573TIP3    H244211   3.322   3.262  15.153 -0.1127  0.2107  2.3685
 7574TIP3   OH244212   5.138   1.661  15.905  0.3904 -0.1589 -0.3812
 7574TIP3    H144213   5.061   1.700  15.864 -0.0162  0.1285  0.6284
 7574TIP3    H244214   5.110   1.572  15.927 -0.1206  0.3749  1.2106
 7575TIP3   OH244215   6.172   1.174  12.476  0.7036 -0.0917  0.2588
 7575TIP3    H144216   6.245   1.114  12.492  1.2564  0.7094  0.7939
 7575TIP3    H244217   6.198   1.223  12.398  0.9845  0.5642  0.7595
 7576TIP3   OH244218   2.823   5.752  11.093  0.3660 -0.0075  0.5136
 7576TIP3    H144219   2.734   5.758  11.128  0.4628  0.5533  0.6664
 7576TIP3    H244220   2.823   5.670  11.044 -0.7522  0.8213 -0.9405
 7577TIP3   OH244221   3.146   2.479   3.591  0.1653 -0.2721 -0.4180
 7577TIP3    H144222   3.140   2.562   3.543  2.5494  0.1412 -0.0527
 7577TIP3    H244223   3.100   2.416   3.535  0.2846  0.8427 -1.8104
 7578TIP3   OH244224   6.010   2.821  12.232 -0.4770 -0.1097  0.3749
 7578TIP3    H144225   6.093   2.790  12.194 -1.3526 -0.5597 -1.1841
 7578TIP3    H244226   5.992   2.759  12.302  0.0324 -0.5587  0.1189
 7579TIP3   OH244227   6.727   3.388  11.444  0.2288  0.3395  0.0885
 7579TIP3    H144228   6.760   3.468  11.404 -1.1744  0.2689 -1.2672
 7579TIP3    H244229   6.681   3.418  11.522 -1.4707  1.0242 -1.1432
 7580TIP3   OH244230   3.229   0.966   1.283 -0.0524 -0.4932 -0.5320
 7580TIP3    H144231   3.214   1.054   1.250 -0.1489 -0.0893  0.5498
 7580TIP3    H244232   3.317   0.970   1.321 -0.1054 -0.8235 -0.3735
 7581TIP3   OH244233   4.173   0.724  14.079 -0.0490 -0.1848 -0.3175
 7581TIP3    H144234   4.220   0.647  14.110 -1.8062 -1.3120 -0.3888
 7581TIP3    H244235   4.225   0.755  14.004  1.0652 -0.8466  0.1638
 7582TIP3   OH244236   6.475   5.795   6.243  0.1564  0.3248 -0.6068
 7582TIP3    H144237   6.514   5.765   6.326 -0.4551  2.2600  0.4142
 7582TIP3    H244238   6.383   5.769   6.250  0.3554 -0.5612 -1.2079
 7583TIP3   OH244239   5.486   5.966  14.190 -0.6377  0.5105  0.2312
 7583TIP3    H144240   5.471   5.890  14.133 -1.1056 -0.4113  1.5380
 7583TIP3    H244241   5.561   6.011  14.152  0.0864 -1.0140 -0.1871
 7584TIP3   OH244242   4.188   2.007   3.487  0.0273 -0.1940  0.3016
 7584TIP3    H144243   4.269   2.006   3.435  0.2943  0.8986  0.6883
 7584TIP3    H244244   4.217   2.027   3.576 -0.3707 -2.6407  1.0208
 7585TIP3   OH244245   0.470   3.903  14.431 -0.3038 -0.2635 -0.0419
 7585TIP3    H144246   0.466   3.895  14.526 -0.2192  0.4295  0.0259
 7585TIP3    H244247   0.396   3.960  14.408  0.9279  1.3305 -0.1665
 7586TIP3   OH244248   2.545   6.803   0.980 -0.1718 -0.6726  0.6729
 7586TIP3    H144249   2.503   6.833   0.900 -1.5134 -2.4144  0.6913
 7586TIP3    H244250   2.581   6.717   0.958  0.7138 -0.5276  1.5159
 7587TIP3   OH244251   6.358   3.994  15.119  0.4383  0.7622  0.2619
 7587TIP3    H144252   6.421   3.986  15.190 -0.0428 -2.6954  0.4010
 7587TIP3    H244253   6.406   3.969  15.041 -0.5537 -1.4003  0.2965
 7588TIP3   OH244254   1.765   4.194   2.355  0.6565  0.5144  0.4158
 7588TIP3    H144255   1.706   4.269   2.360  0.4123  0.3980 -0.6957
 7588TIP3    H244256   1.716   4.127   2.308  1.0191 -0.2120  1.0613
 7589TIP3   OH244257   2.536   0.044  15.682  0.3744 -0.3290  0.2977
 7589TIP3    H144258   2.481  -0.020  15.728  0.2337  0.3087  1.0287
 7589TIP3    H244259   2.595   0.077  15.750 -0.6346  1.5090  0.3103
 7590TIP3   OH244260   3.746   5.271   3.436  1.2062  0.3141  0.6642
 7590TIP3    H144261   3.823   5.308   3.478  1.2863 -1.5615  2.2583
 7590TIP3    H244262   3.779   5.199   3.383  0.5765 -0.4091  1.2403
 7591TIP3   OH244263   3.544   5.669   3.549 -0.4987  0.4667 -0.4162
 7591TIP3    H144264   3.598   5.700   3.476 -0.5523  2.4327  0.3578
 7591TIP3    H244265   3.567   5.576   3.558  3.1488  1.3750  0.2442
 7592TIP3   OH244266   4.653   5.432  14.225  0.0818 -0.5820 -0.1194
 7592TIP3    H144267   4.713   5.365  14.194 -0.1792 -0.7870 -0.1888
 7592TIP3    H244268   4.585   5.437  14.158 -0.0741 -0.4811  0.0428
 7593TIP3   OH244269   2.656   6.000  17.180  0.5867  0.4967 -0.7570
 7593TIP3    H144270   2.741   5.962  17.159  0.6152  0.3447 -0.3583
 7593TIP3    H244271   2.596   5.960  17.116  0.2890 -1.5802  0.7742
 7594TIP3   OH244272   1.219   1.324   0.048 -0.2167 -0.4531 -0.0681
 7594TIP3    H144273   1.196   1.304   0.139  0.6774  0.8786  0.4649
 7594TIP3    H244274   1.302   1.280   0.034 -0.0408 -0.1302 -0.0384
 7595TIP3   OH244275   4.123   0.401   3.188  0.2387 -0.2868 -0.5785
 7595TIP3    H144276   4.032   0.430   3.175  0.5954  2.8230  2.9691
 7595TIP3    H244277   4.116   0.311   3.219 -1.6851  0.1789  0.3931
 7596TIP3   OH244278   1.767   6.117   4.599 -0.3951 -0.0104  0.1514
 7596TIP3    H144279   1.673   6.126   4.616 -0.3887  0.6565 -0.1743
 7596TIP3    H244280   1.779   6.149   4.510 -0.1748 -2.0712 -0.5894
 7597TIP3   OH244281   3.692   5.329  16.331 -0.4889  0.0273 -0.0706
 7597TIP3    H144282   3.737   5.396  16.280  0.3197 -0.6761 -0.2919
 7597TIP3    H244283   3.601   5.332  16.300 -0.5071  1.1758  0.0898
 7598TIP3   OH244284   6.666   0.128   3.704  0.3613 -0.3865  0.3360
 7598TIP3    H144285   6.728   0.056   3.690  0.9499  0.2730 -0.5576
 7598TIP3    H244286   6.692   0.166   3.788  0.4484 -0.8235  0.5065
 7599TIP3   OH244287   2.654   6.591   1.438  0.2715 -0.1704  0.6817
 7599TIP3    H144288   2.567   6.623   1.465 -1.2538 -0.1947 -3.7584
 7599TIP3    H244289   2.651   6.497   1.451 -0.3750 -0.1595  0.6110
 7600TIP3   OH244290   1.226   0.895   0.577 -0.1692  0.8214  0.4271
 7600TIP3    H144291   1.299   0.846   0.540 -0.0940  1.4524 -0.2526
 7600TIP3    H244292   1.148   0.846   0.550 -0.0845  0.9773 -0.0974
 7601TIP3   OH244293   6.210   5.027   1.658 -0.2272 -0.2440 -0.1115
 7601TIP3    H144294   6.146   5.022   1.729  1.1766  2.4269  1.4318
 7601TIP3    H244295   6.189   5.108   1.611  3.6423  2.2953  2.2036
 7602TIP3   OH244296   2.782   0.985  14.438  0.4478  0.5332 -0.1978
 7602TIP3    H144297   2.700   0.945  14.468  1.1029 -0.0116  0.9159
 7602TIP3    H244298   2.773   0.991  14.343 -0.6508 -0.0291 -0.1361
 7603TIP3   OH244299   2.876   4.333  15.945  0.3558 -0.3853  0.9261
 7603TIP3    H144300   2.958   4.339  15.896  0.5115 -1.8483  0.9936
 7603TIP3    H244301   2.868   4.418  15.988  2.7213 -0.8155  2.3051
 7604TIP3   OH244302   3.511   1.141   4.327 -0.3247  0.4343 -0.1089
 7604TIP3    H144303   3.474   1.216   4.281 -2.6946  0.7215  2.1571
 7604TIP3    H244304   3.452   1.068   4.305  0.4903 -0.1983 -0.2399
 7605TIP3   OH244305   0.570   0.968  15.630  0.4779  0.5382 -0.3035
 7605TIP3    H144306   0.530   1.015  15.703 -2.2500 -3.7046  1.1307
 7605TIP3    H244307   0.536   1.012  15.551 -2.8716  0.3247  0.9547
 7606TIP3   OH244308   0.957   1.960  11.238  0.6581 -0.1847 -0.0293
 7606TIP3    H144309   0.918   1.885  11.282 -0.0283 -0.5325 -1.2229
 7606TIP3    H244310   0.940   1.946  11.145 -0.3517  1.9368 -0.2042
 7607TIP3   OH244311   2.018   2.755   4.464  0.1850  0.2118  0.1487
 7607TIP3    H144312   2.018   2.730   4.371  0.5333  0.2438  0.1387
 7607TIP3    H244313   2.066   2.684   4.507 -0.7781 -0.2723  0.4349
 7608TIP3   OH244314   3.818   4.215   4.981  0.3480 -0.1356 -0.1714
 7608TIP3    H144315   3.836   4.269   4.905 -0.4201 -1.3198 -1.2129
 7608TIP3    H244316   3.904   4.194   5.018  0.7526 -0.1203 -1.1096
 7609TIP3   OH244317   4.818   6.529  14.747 -0.3169 -0.3991  0.0911
 7609TIP3    H144318   4.844   6.570  14.829 -0.7680  1.4845 -0.6808
 7609TIP3    H244319   4.901   6.500  14.707 -0.0190 -0.4713  0.7602
 7610TIP3   OH244320   3.695   6.073  13.974 -0.3453  0.4387 -0.0424
 7610TIP3    H144321   3.722   6.023  13.897  0.0749  1.0475 -0.2967
 7610TIP3    H244322   3.687   6.008  14.043 -0.3987 -0.0644 -0.5199
 7611TIP3   OH244323   1.376   5.809  11.332  0.1701  0.5950  0.3428
 7611TIP3    H144324   1.366   5.830  11.239 -0.4638  1.1090  0.5153
 7611TIP3    H244325   1.369   5.714  11.336  1.5061  0.4592 -0.2835
 7612TIP3   OH244326   2.213   4.306  16.685 -0.1163  0.0907 -0.0205
 7612TIP3    H144327   2.133   4.335  16.728 -0.4635  0.6133 -0.9982
 7612TIP3    H244328   2.230   4.373  16.618  0.6747 -0.4424 -0.3628
 7613TIP3   OH244329   2.278   1.138   3.301 -0.1168  0.4498  0.3650
 7613TIP3    H144330   2.296   1.045   3.313 -0.2510  0.6332  2.0728
 7613TIP3    H244331   2.360   1.181   3.326 -0.6796  0.8969  1.4576
 7614TIP3   OH244332   4.044   2.301  12.027  0.0661 -0.1081  0.0785
 7614TIP3    H144333   4.022   2.222  11.978  1.0800 -0.0406 -0.5054
 7614TIP3    H244334   4.046   2.273  12.119  0.4270 -0.7576 -0.1276
 7615TIP3   OH244335   4.090   1.232  12.220 -0.4137 -0.1019  0.6431
 7615TIP3    H144336   4.093   1.176  12.143 -2.5375  0.4899  0.1283
 7615TIP3    H244337   4.154   1.301  12.202 -1.7871  0.7274 -1.1368
 7616TIP3   OH244338   2.163   0.668  16.969  0.5639  0.2765  0.4686
 7616TIP3    H144339   2.079   0.637  16.937  0.2160 -0.3668  1.9338
 7616TIP3    H244340   2.183   0.610  17.043  2.5338  0.0894 -0.1766
 7617TIP3   OH244341   4.772   4.184   2.426  0.1792 -0.0246  0.0555
 7617TIP3    H144342   4.768   4.094   2.393 -1.2904 -0.4064  1.2077
 7617TIP3    H244343   4.682   4.203   2.454  1.2706  0.4655  3.3458
 7618TIP3   OH244344   1.262   4.656  14.702  0.6373 -0.1971  0.4390
 7618TIP3    H144345   1.314   4.640  14.623  0.6822 -0.1295  0.4551
 7618TIP3    H244346   1.184   4.701  14.669  1.4075  1.3126  0.6229
 7619TIP3   OH244347   6.369   6.213  11.557 -0.0647 -0.4095 -0.0741
 7619TIP3    H144348   6.380   6.146  11.489  1.2491  0.7581 -1.0225
 7619TIP3    H244349   6.430   6.186  11.626 -1.0791 -1.3499  0.4765
 7620TIP3   OH244350   4.572   4.787   3.871 -0.0916 -0.0796  0.0915
 7620TIP3    H144351   4.528   4.812   3.953  0.0918  0.2730  0.0818
 7620TIP3    H244352   4.558   4.692   3.864 -0.2763 -0.0776  0.4320
 7621TIP3   OH244353   6.475   6.252   3.974 -0.2085 -0.5211  0.4520
 7621TIP3    H144354   6.479   6.242   4.069  1.1374 -0.5287  0.3971
 7621TIP3    H244355   6.566   6.253   3.946 -0.6055 -1.9961 -0.9954
 7622TIP3   OH244356   2.056   3.569   1.329 -0.8840  0.0662  0.3830
 7622TIP3    H144357   2.072   3.542   1.238 -0.3423 -0.1382  0.5340
 7622TIP3    H244358   2.141   3.557   1.372 -1.1273  0.2157  0.9022
 7623TIP3   OH244359   3.725   1.417   0.952  0.7853 -0.2190 -0.2839
 7623TIP3    H144360   3.689   1.483   1.011  0.3615  1.4477 -2.3515
 7623TIP3    H244361   3.650   1.363   0.926  1.1898 -1.8221  1.6944
 7624TIP3   OH244362   4.834   0.557  16.008  0.2773 -0.2768  0.4226
 7624TIP3    H144363   4.757   0.577  16.061  0.8356 -0.1108  1.1852
 7624TIP3    H244364   4.814   0.474  15.966 -0.6677  0.1917 -0.0573
 7625TIP3   OH244365   3.043   5.983   6.437 -0.5199 -0.3028 -0.9708
 7625TIP3    H144366   3.126   5.954   6.476 -0.4961  0.2050 -0.6370
 7625TIP3    H244367   3.023   5.917   6.371 -0.3422 -0.9480 -0.3875
 7626TIP3   OH244368   6.537   6.242  14.839 -0.2376  0.1082  0.5199
 7626TIP3    H144369   6.558   6.198  14.921  0.8815  1.5557  1.0271
 7626TIP3    H244370   6.506   6.172  14.782  1.4310 -1.3206  1.3245
 7627TIP3   OH244371   1.486   5.477   5.444 -0.7301 -0.1884  0.3132
 7627TIP3    H144372   1.398   5.457   5.412  0.3540 -2.7094 -1.1860
 7627TIP3    H244373   1.534   5.507   5.366  0.0736  0.0118  0.8731
 7628TIP3   OH244374   6.418   2.609  16.910  0.5024 -0.0820 -0.0439
 7628TIP3    H144375   6.447   2.652  16.990  0.5678  2.0428 -1.1632
 7628TIP3    H244376   6.495   2.562  16.879  1.4105  1.6315 -0.4732
 7629TIP3   OH244377   3.545   3.281   4.606  0.0162  0.0376  0.1058
 7629TIP3    H144378   3.595   3.244   4.679 -0.5399 -1.6372 -0.3437
 7629TIP3    H244379   3.517   3.366   4.637 -0.2941 -0.6970  1.9006
 7630TIP3   OH244380   4.867   5.401   2.789 -0.4323  0.4120 -0.4254
 7630TIP3    H144381   4.816   5.478   2.816 -1.4332 -0.1756 -0.6062
 7630TIP3    H244382   4.881   5.413   2.695 -0.3497  0.5048 -0.4014
 7631TIP3   OH244383   5.310   6.096   3.758 -0.0725 -0.0111  0.6206
 7631TIP3    H144384   5.358   6.016   3.737  0.2003  0.1151  0.7638
 7631TIP3    H244385   5.234   6.094   3.699 -0.9615 -1.2061  1.7660
 7632TIP3   OH244386   5.428   0.627  15.319 -0.6393  0.2772  0.1046
 7632TIP3    H144387   5.503   0.649  15.265 -1.4923  0.8072 -0.8715
 7632TIP3    H244388   5.353   0.632  15.260 -1.7825  2.4410  1.6897
 7633TIP3   OH244389   5.439   0.392   3.957  0.5487 -0.1943  0.1826
 7633TIP3    H144390   5.494   0.315   3.971  0.8387 -0.1846 -0.8813
 7633TIP3    H244391   5.353   0.356   3.934  0.8597 -0.2123 -0.9911
 7634TIP3   OH244392   3.955   1.418   3.428  0.5825  0.2318  0.4297
 7634TIP3    H144393   3.940   1.459   3.513  1.4972  1.4857  0.0018
 7634TIP3    H244394   4.017   1.476   3.384 -0.0571 -0.2679 -1.1843
 7635TIP3   OH244395   4.347   4.352  15.819  0.1097 -0.7147  0.1818
 7635TIP3    H144396   4.297   4.289  15.871  1.6978 -2.7198 -0.5965
 7635TIP3    H244397   4.438   4.322  15.827  0.7267  0.6524 -1.3673
 7636TIP3   OH244398   4.196   1.990   5.767 -0.0629 -0.4100 -0.1816
 7636TIP3    H144399   4.235   2.075   5.785 -1.8410  0.4393 -0.2153
 7636TIP3    H244400   4.213   1.938   5.846 -2.4023  1.2739  1.4892
 7637TIP3   OH244401   5.151   2.731   0.505  0.1597  0.3421 -0.4622
 7637TIP3    H144402   5.187   2.707   0.420  0.1897 -0.9199 -0.0927
 7637TIP3    H244403   5.203   2.683   0.568  1.5367  2.9269  0.4256
 7638TIP3   OH244404   2.446   1.594   2.811 -0.1726 -0.0355 -0.0981
 7638TIP3    H144405   2.470   1.681   2.779 -1.5433  0.1108 -0.8044
 7638TIP3    H244406   2.525   1.542   2.803  0.5332  1.0209 -0.1165
 7639TIP3   OH244407   2.321   1.741   4.494  0.1983 -0.1068  0.5712
 7639TIP3    H144408   2.315   1.759   4.588 -1.0582 -0.5719  0.5904
 7639TIP3    H244409   2.387   1.672   4.487  0.2255 -0.1410  1.1222
 7640TIP3   OH244410   5.649   5.581   1.145 -0.2201 -0.5303  0.1246
 7640TIP3    H144411   5.613   5.537   1.068  0.1198 -0.7438  0.0847
 7640TIP3    H244412   5.584   5.566   1.213 -0.8995  0.3461 -0.3241
 7641TIP3   OH244413   6.554   0.851   1.043 -0.4303 -0.5134  0.2817
 7641TIP3    H144414   6.509   0.804   1.113 -0.7161  1.2693  1.3430
 7641TIP3    H244415   6.634   0.884   1.084 -0.2977  0.0235 -0.3943
 7642TIP3   OH244416   0.402   4.790   6.527  0.7009 -0.4193 -0.5271
 7642TIP3    H144417   0.486   4.751   6.502  0.3201 -1.9278  0.4754
 7642TIP3    H244418   0.369   4.733   6.596  1.2181  2.9762  2.6732
 7643TIP3   OH244419   2.163   0.501  12.867 -0.0850 -0.2108 -0.7253
 7643TIP3    H144420   2.161   0.554  12.947  0.8509  0.2284 -0.9834
 7643TIP3    H244421   2.074   0.468  12.858 -0.8598  1.8279 -0.8736
 7644TIP3   OH244422   0.702   1.828  13.230  0.4860  0.0939  0.2280
 7644TIP3    H144423   0.623   1.881  13.217  3.2990  3.8128 -3.0204
 7644TIP3    H244424   0.743   1.825  13.144  3.4268 -2.5185  1.6266
 7645TIP3   OH244425   6.756   4.275  16.923 -0.1801  0.5339 -0.2118
 7645TIP3    H144426   6.847   4.305  16.923  0.0236 -0.0520 -1.4605
 7645TIP3    H244427   6.745   4.232  17.008  1.5990 -2.0105 -1.2201
 7646TIP3   OH244428   0.848   5.604   5.106  0.1642 -0.3080  0.7730
 7646TIP3    H144429   0.881   5.694   5.097  1.0333 -0.4980  1.9383
 7646TIP3    H244430   0.832   5.575   5.016  0.1160  0.9264  0.3759
 7647TIP3   OH244431   4.716   2.906   5.675  0.1208 -0.0628  0.2867
 7647TIP3    H144432   4.703   2.907   5.580  0.4558  1.6784  0.2378
 7647TIP3    H244433   4.671   2.985   5.706  1.2582  0.1546  1.4091
 7648TIP3   OH244434   3.039   0.865  12.422  0.8626  0.8596 -0.8463
 7648TIP3    H144435   3.065   0.796  12.361  0.1276 -1.4091  1.3143
 7648TIP3    H244436   2.986   0.925  12.371  0.0603 -1.1273 -2.3709
 7649TIP3   OH244437   2.206   1.381  13.812 -0.1634 -0.0499  0.3020
 7649TIP3    H144438   2.121   1.365  13.770 -0.0500 -1.2287  0.4880
 7649TIP3    H244439   2.228   1.297  13.854  0.8962  0.3661  0.6013
 7650TIP3   OH244440   3.589   2.374   4.453 -0.1532  0.1956 -0.3947
 7650TIP3    H144441   3.551   2.367   4.365 -0.2969  1.2092 -0.4192
 7650TIP3    H244442   3.671   2.324   4.448 -1.4638 -2.0385 -0.3380
 7651TIP3   OH244443   4.221   4.378   0.627 -0.2814 -0.0691 -0.3400
 7651TIP3    H144444   4.296   4.318   0.622 -0.0070  0.2799 -0.4784
 7651TIP3    H244445   4.190   4.370   0.717 -0.7853 -1.0612 -0.5866
 7652TIP3   OH244446   5.459   2.509   3.599 -0.8659 -0.1834 -0.7335
 7652TIP3    H144447   5.472   2.555   3.681  3.4063 -3.1825  0.4461
 7652TIP3    H244448   5.417   2.427   3.624 -1.4156 -0.2297 -1.7951
 7653TIP3   OH244449   6.816   0.562   2.317 -0.5491  0.1620 -0.3014
 7653TIP3    H144450   6.840   0.500   2.248  0.3031 -1.1325  1.1235
 7653TIP3    H244451   6.726   0.538   2.341 -0.6538  0.2613 -0.5984
 7654TIP3   OH244452   0.165   3.930  15.845 -0.2859  0.1562  0.2717
 7654TIP3    H144453   0.219   3.890  15.913  0.1483  1.9065  0.9938
 7654TIP3    H244454   0.075   3.911  15.871 -0.0736 -0.8615  0.2687
 7655TIP3   OH244455   3.990   1.457   0.507 -0.0565  0.7700  0.1301
 7655TIP3    H144456   4.013   1.458   0.414 -1.4606  1.7404 -0.2227
 7655TIP3    H244457   3.895   1.460   0.508 -0.0321  1.5371  1.6144
 7656TIP3   OH244458   2.696   3.257   3.339  0.2822  0.1260  0.0841
 7656TIP3    H144459   2.635   3.238   3.268 -0.9718 -1.8425  1.6344
 7656TIP3    H244460   2.650   3.320   3.394 -0.5692 -1.6356  1.4513
 7657TIP3   OH244461   0.146   5.949  11.971 -0.4963  0.3820 -0.4428
 7657TIP3    H144462   0.052   5.964  11.964 -0.7025 -0.8432 -0.2651
 7657TIP3    H244463   0.180   5.977  11.886 -1.0197  0.8255 -0.5105
 7658TIP3   OH244464   6.734   3.103   1.785 -0.5535 -0.3764  0.1887
 7658TIP3    H144465   6.775   3.136   1.705 -2.4270 -1.3533 -1.2068
 7658TIP3    H244466   6.659   3.160   1.799 -1.4798 -1.5279  0.0152
 7659TIP3   OH244467   1.290   1.255   5.782  0.3505 -0.2176  0.2426
 7659TIP3    H144468   1.347   1.283   5.853 -0.4583 -1.7462  1.5461
 7659TIP3    H244469   1.256   1.170   5.811  0.1421 -0.9698 -2.0543
 7660TIP3   OH244470   6.755   4.697  16.159  0.1334 -0.2478  0.0370
 7660TIP3    H144471   6.778   4.789  16.171 -1.3944  0.3782 -1.4967
 7660TIP3    H244472   6.780   4.678  16.069 -3.4765 -0.0385 -1.1137
 7661TIP3   OH244473   6.662   0.176  12.307 -0.8680 -0.1722 -0.6678
 7661TIP3    H144474   6.663   0.251  12.248  1.2782  2.4698  2.5158
 7661TIP3    H244475   6.622   0.209  12.387  3.0052 -1.3585  1.9240
 7662TIP3   OH244476   3.222   0.241  15.354  0.3097  0.4207 -0.3120
 7662TIP3    H144477   3.144   0.193  15.383 -0.6963  2.1773 -0.0438
 7662TIP3    H244478   3.289   0.221  15.419 -0.6842  0.9218  0.8873
 7663TIP3   OH244479   2.969   1.136   3.302  0.2719  0.2825 -0.5003
 7663TIP3    H144480   3.013   1.217   3.328  1.2471  0.1036 -1.5313
 7663TIP3    H244481   3.028   1.066   3.331 -1.3733 -0.1499  1.9115
 7664TIP3   OH244482   1.140   2.765   4.639 -0.5154  0.0961 -0.2527
 7664TIP3    H144483   1.117   2.791   4.550 -1.0054 -0.5806 -0.3277
 7664TIP3    H244484   1.105   2.677   4.648  0.7167 -0.3635  0.1535
 7665TIP3   OH244485   5.023   0.776  15.886 -0.2014  0.4533  0.1577
 7665TIP3    H144486   5.019   0.698  15.941  3.6406 -2.9049 -4.0096
 7665TIP3    H244487   4.938   0.779  15.841 -0.2534 -1.4824  0.1173
 7666TIP3   OH244488   2.100   4.905   6.089 -1.0876  0.2121  0.7132
 7666TIP3    H144489   2.017   4.926   6.048 -0.6464 -0.6668 -0.6956
 7666TIP3    H244490   2.155   4.873   6.016 -0.2366 -1.2294  1.9516
 7667TIP3   OH244491   2.963   1.630  12.020 -0.4007  0.0552  0.1240
 7667TIP3    H144492   2.946   1.715  11.978 -1.5616 -1.0668 -1.7405
 7667TIP3    H244493   3.006   1.653  12.102 -0.9715  2.4758 -0.1940
 7668TIP3   OH244494   6.173   4.065  16.538  0.0961 -0.4043 -0.6379
 7668TIP3    H144495   6.213   4.057  16.452  1.5788  1.6960 -0.1752
 7668TIP3    H244496   6.087   4.104  16.521 -0.1323 -1.1664 -1.2610
 7669TIP3   OH244497   0.068   5.202   5.560  0.1565 -0.6839  0.1490
 7669TIP3    H144498  -0.003   5.191   5.623  0.7686  0.6377  1.0983
 7669TIP3    H244499   0.032   5.173   5.477 -1.3092 -0.5767  0.7444
 7670TIP3   OH244500   5.189   5.145   1.344 -0.4950 -0.2312  0.1313
 7670TIP3    H144501   5.104   5.163   1.303 -0.0691  1.2070 -0.1434
 7670TIP3    H244502   5.252   5.190   1.288  0.4208 -1.0793  0.4824
 7671TIP3   OH244503   3.357   6.515   5.986 -0.1208 -0.3806 -0.3314
 7671TIP3    H144504   3.445   6.478   5.994  0.3863  0.6267 -1.1393
 7671TIP3    H244505   3.322   6.514   6.075  1.4517  1.0153  0.3154
 7672TIP3   OH244506   3.075   5.664   0.105  0.2251 -0.5678  0.6531
 7672TIP3    H144507   3.100   5.587   0.054 -0.9052  1.2565 -2.8271
 7672TIP3    H244508   3.149   5.725   0.093  0.0604 -0.2119  1.4191
 7673TIP3   OH244509   5.021   5.316  13.637  0.1692 -0.3335 -0.1265
 7673TIP3    H144510   4.971   5.310  13.556  0.9768  1.7719 -0.8183
 7673TIP3    H244511   5.079   5.240  13.635  0.3293 -0.1939 -1.6346
 7674TIP3   OH244512   5.848   2.311  13.991  0.6512  0.4038 -0.2428
 7674TIP3    H144513   5.890   2.388  14.031  2.5445 -1.2988  1.1482
 7674TIP3    H244514   5.901   2.292  13.914 -0.2336  0.8690 -0.9850
 7675TIP3   OH244515   6.314   5.129  13.721  0.0432  0.7843 -0.2665
 7675TIP3    H144516   6.327   5.157  13.812  0.0500  1.1303 -0.3719
 7675TIP3    H244517   6.399   5.143  13.679  0.1138  0.3759 -0.2640
 7676TIP3   OH244518   2.911   5.321   5.139  0.7651  0.0259 -0.1544
 7676TIP3    H144519   2.902   5.412   5.167  0.2101  0.4347 -1.5805
 7676TIP3    H244520   3.006   5.306   5.138  0.9001  0.8421 -0.6495
 7677TIP3   OH244521   1.031   5.544  12.341  0.0864  0.3952  0.4785
 7677TIP3    H144522   1.082   5.606  12.289 -0.2451  1.6800  1.6613
 7677TIP3    H244523   1.094   5.507  12.404  0.5532 -1.3707 -0.9808
 7678TIP3   OH244524   5.307   5.978  11.550  0.2078  0.2352 -1.5651
 7678TIP3    H144525   5.247   6.045  11.519  0.3208  1.6164  1.0933
 7678TIP3    H244526   5.280   5.960  11.640  3.8354  1.0616 -0.2032
 7679TIP3   OH244527   3.490   0.826  16.015  0.1752  0.0689  0.1919
 7679TIP3    H144528   3.429   0.760  15.982  0.5501 -0.4799  0.5975
 7679TIP3    H244529   3.465   0.906  15.970 -1.7319  0.1565  1.3773
 7680TIP3   OH244530   0.789   0.328   6.127  0.1812 -0.1100  0.2113
 7680TIP3    H144531   0.831   0.243   6.115  0.9552 -0.0348  2.2585
 7680TIP3    H244532   0.777   0.336   6.221 -0.3604  1.8319  0.0005
 7681TIP3   OH244533   4.693   5.425  13.693 -0.4001 -0.4718 -0.4249
 7681TIP3    H144534   4.765   5.381  13.738  0.0005 -0.3459 -0.9420
 7681TIP3    H244535   4.626   5.436  13.761  2.3789  4.8821  1.8479
 7682TIP3   OH244536   0.265   1.013  13.128  0.0963 -0.0835  0.3626
 7682TIP3    H144537   0.357   1.036  13.136  0.1978 -0.9395  1.8809
 7682TIP3    H244538   0.228   1.079  13.070  1.4794  0.7858  0.4664
 7683TIP3   OH244539   3.860   1.231   0.246 -0.3143 -0.2896 -0.7672
 7683TIP3    H144540   3.790   1.193   0.193 -0.9809  0.5508 -0.4903
 7683TIP3    H244541   3.849   1.191   0.333  0.3698 -1.1600 -1.0700
 7684TIP3   OH244542   4.419   6.563  11.262 -0.3116 -0.0101  0.1706
 7684TIP3    H144543   4.439   6.553  11.169 -1.0275 -0.2390  0.0369
 7684TIP3    H244544   4.482   6.629  11.293  0.1362 -0.1666 -0.3997
 7685TIP3   OH244545   6.419   2.956  11.716 -0.5063 -0.2952  0.2372
 7685TIP3    H144546   6.412   2.881  11.658 -0.9656 -0.4386  0.4762
 7685TIP3    H244547   6.367   2.932  11.793 -0.4252  0.1524  0.4328
 7686TIP3   OH244548   6.079   1.996  11.427 -0.2890 -0.2180 -0.6715
 7686TIP3    H144549   6.024   1.979  11.503  1.2397  0.7002  0.6740
 7686TIP3    H244550   6.018   2.020  11.358 -1.7263 -1.4275  0.1647
 7687TIP3   OH244551   5.337   6.766   2.821 -0.0870  0.3050  0.6531
 7687TIP3    H144552   5.268   6.832   2.831 -0.0054  0.5492 -0.3214
 7687TIP3    H244553   5.304   6.706   2.754 -0.0354 -0.4892  1.3345
 7688TIP3   OH244554   5.287   5.165   3.569  0.0621 -0.7745  0.0159
 7688TIP3    H144555   5.193   5.182   3.570  0.1532  0.1095 -2.1454
 7688TIP3    H244556   5.296   5.074   3.542 -0.1826 -1.1113  1.0566
 7689TIP3   OH244557   3.659   5.603  16.939 -0.2932 -0.0903  0.2150
 7689TIP3    H144558   3.689   5.527  16.888  1.5814  0.8128 -0.0973
 7689TIP3    H244559   3.674   5.578  17.030 -1.1669 -0.6969  0.1969
 7690TIP3   OH244560   0.226   6.709  12.173  0.1457  0.0907  0.2457
 7690TIP3    H144561   0.160   6.770  12.140  0.5975  1.0787  1.1662
 7690TIP3    H244562   0.232   6.728  12.266  1.0062 -0.6956  0.3536
 7691TIP3   OH244563   0.413   0.005   4.821  0.6588  0.0707 -0.0439
 7691TIP3    H144564   0.332  -0.022   4.777  1.4290  1.1267 -2.1896
 7691TIP3    H244565   0.391   0.090   4.860 -0.3648 -1.3963  2.6441
 7692TIP3   OH244566   6.086   6.526  11.592 -0.3102  0.5047 -0.3218
 7692TIP3    H144567   6.007   6.519  11.646  0.0946 -0.0152  0.2011
 7692TIP3    H244568   6.142   6.587  11.639  1.0915 -1.8283  1.1614
 7693TIP3   OH244569   5.791   4.855   6.146 -0.6472  0.3539 -0.2927
 7693TIP3    H144570   5.866   4.803   6.118 -1.3206 -0.8099  0.0238
 7693TIP3    H244571   5.825   4.910   6.217 -0.3405 -0.9547  0.5937
 7694TIP3   OH244572   2.569   1.457  11.076  0.3482 -0.1105  0.1456
 7694TIP3    H144573   2.542   1.546  11.055 -0.6394  0.1822  2.4582
 7694TIP3    H244574   2.487   1.410  11.091  0.8973 -1.1555 -0.0588
 7695TIP3   OH244575   1.712   5.832   3.449  0.2351 -0.5724  0.2433
 7695TIP3    H144576   1.656   5.818   3.525  1.2777  1.1422  1.3551
 7695TIP3    H244577   1.776   5.761   3.453 -0.3137 -1.0664  0.3889
 7696TIP3   OH244578   4.279   5.609   0.010  0.1032  0.0475  0.1820
 7696TIP3    H144579   4.309   5.694   0.041  1.1874 -1.1331  2.4654
 7696TIP3    H244580   4.269   5.620  -0.085 -1.4232  3.1884  0.6409
 7697TIP3   OH244581   1.958   3.468   2.632  0.4641 -0.4970 -0.9189
 7697TIP3    H144582   1.887   3.531   2.633  0.4602 -0.4906  0.7309
 7697TIP3    H244583   1.934   3.405   2.564 -0.8469 -0.2067 -0.7348
 7698TIP3   OH244584   0.125   2.248   5.502 -0.1399 -0.2841 -0.0711
 7698TIP3    H144585   0.156   2.286   5.420  0.0508  0.9763  0.5600
 7698TIP3    H244586   0.177   2.292   5.570 -2.1068  0.6261  0.8977
 7699TIP3   OH244587   5.815   3.816   1.118  0.0595  0.2736 -0.0819
 7699TIP3    H144588   5.774   3.737   1.084 -1.1554  0.9127 -0.1602
 7699TIP3    H244589   5.823   3.801   1.212  1.8585 -0.8173 -0.4031
 7700TIP3   OH244590   5.503   2.734  14.390  0.6558 -0.1608  0.4688
 7700TIP3    H144591   5.495   2.747  14.484  0.1111  1.3661  0.2286
 7700TIP3    H244592   5.429   2.678  14.367  1.8480 -2.0878  1.2138
 7701TIP3   OH244593   2.466   2.378   4.067 -0.0791 -0.2309 -0.8026
 7701TIP3    H144594   2.503   2.341   3.986 -0.1776 -0.5468 -0.7039
 7701TIP3    H244595   2.386   2.422   4.039  0.6349  0.8949 -1.0989
 7702TIP3   OH244596   2.191   5.990   1.336  0.8340 -0.2143 -0.9100
 7702TIP3    H144597   2.274   6.023   1.301 -0.0435  2.0164 -1.0187
 7702TIP3    H244598   2.174   6.045   1.412 -0.3236 -0.9561 -0.6282
 7703TIP3   OH244599   2.938   2.644  11.936  0.2678  0.1657 -0.1669
 7703TIP3    H144600   2.866   2.691  11.978  0.9259  0.1800  0.9434
 7703TIP3    H244601   2.979   2.708  11.878  1.3609  1.0714  1.5740
 7704TIP3   OH244602   1.921   4.941   0.505  0.4595  0.9835 -0.1647
 7704TIP3    H144603   1.979   4.953   0.430  1.3410  1.5949  0.5945
 7704TIP3    H244604   1.918   4.846   0.518 -1.2067  0.7290 -2.1104
 7705TIP3   OH244605   6.254   2.510   2.090  0.5944  0.2571  0.4688
 7705TIP3    H144606   6.307   2.590   2.091  2.7177 -1.1079  1.3575
 7705TIP3    H244607   6.251   2.483   2.182 -0.3537 -0.5101  0.2134
 7706TIP3   OH244608   0.114   5.530   6.337  0.1507 -0.2712  0.1639
 7706TIP3    H144609   0.034   5.523   6.390 -1.0668  0.5047 -1.5259
 7706TIP3    H244610   0.166   5.597   6.381 -1.0203  0.6535  0.1689
 7707TIP3   OH244611   4.780   5.073   0.933  0.4131  0.5345  0.4926
 7707TIP3    H144612   4.728   5.007   0.887  2.3505 -0.2811 -0.6127
 7707TIP3    H244613   4.779   5.046   1.024 -0.3233  0.0056  0.3345
 7708TIP3   OH244614   6.699   1.023  15.587 -0.1729 -0.5059  0.6728
 7708TIP3    H144615   6.705   0.951  15.525  1.5736 -0.4340  0.7185
 7708TIP3    H244616   6.629   1.079  15.553 -0.1426 -1.1594 -0.4877
 7709TIP3   OH244617   1.455   6.468   1.333 -0.3873 -0.5906  0.4373
 7709TIP3    H144618   1.546   6.496   1.336 -0.5934  0.1010  0.1888
 7709TIP3    H244619   1.415   6.504   1.412 -0.4703 -0.8169  0.5008
 7710TIP3   OH244620   5.335   4.085  16.736  0.2077 -0.0785  0.4106
 7710TIP3    H144621   5.379   4.169  16.720  1.1667 -0.5848  0.3224
 7710TIP3    H244622   5.371   4.026  16.669 -1.6657 -0.1470 -0.5577
 7711TIP3   OH244623   4.546   1.847   6.000 -0.0225  0.1704 -0.2065
 7711TIP3    H144624   4.598   1.908   6.053 -0.9524 -0.2420  1.2073
 7711TIP3    H244625   4.603   1.772   5.986 -0.1099 -0.1304  1.0414
 7712TIP3   OH244626   4.341   3.982   0.567  0.9493 -0.1941 -0.0564
 7712TIP3    H144627   4.330   3.905   0.622  1.0791 -0.3589 -0.2629
 7712TIP3    H244628   4.253   4.018   0.559  0.8813 -0.3484 -0.0033
 7713TIP3   OH244629   4.520   0.401   3.132  0.3789  0.5427 -0.7533
 7713TIP3    H144630   4.567   0.325   3.098 -2.4642 -1.5977 -0.1256
 7713TIP3    H244631   4.515   0.386   3.227 -0.2854  1.4505 -0.6379
 7714TIP3   OH244632   2.859   5.269  14.588 -0.5130 -0.4909 -0.1931
 7714TIP3    H144633   2.911   5.340  14.624 -0.2331 -0.0259 -1.4937
 7714TIP3    H244634   2.921   5.196  14.577 -0.4247 -0.3768 -0.4637
 7715TIP3   OH244635   2.714   3.445   2.106  0.5358 -0.5001 -0.0084
 7715TIP3    H144636   2.642   3.508   2.096  0.7566 -0.1798  0.4397
 7715TIP3    H244637   2.784   3.480   2.052  0.8805 -0.0298  0.7391
 7716TIP3   OH244638   2.550   1.537  11.800 -0.8256  0.3366 -0.1242
 7716TIP3    H144639   2.592   1.452  11.811 -1.7605 -0.5057 -2.6594
 7716TIP3    H244640   2.552   1.577  11.887  2.6194 -0.8600  0.4169
 7717TIP3   OH244641   4.794   1.628   1.024  0.5123  0.2717 -0.5532
 7717TIP3    H144642   4.758   1.677   0.950 -0.0771  0.3286 -0.2382
 7717TIP3    H244643   4.748   1.544   1.022 -0.0638  0.5655  0.1971
 7718TIP3   OH244644   5.227   5.453   4.650  0.0758 -0.5042 -0.2439
 7718TIP3    H144645   5.267   5.514   4.587  2.3446 -1.0451  0.5982
 7718TIP3    H244646   5.263   5.368   4.627  0.0252 -0.8925  1.0471
 7719TIP3   OH244647   3.376   0.463  11.885 -0.9944  0.3924  0.0374
 7719TIP3    H144648   3.471   0.475  11.886 -1.0095  0.5011  0.1631
 7719TIP3    H244649   3.351   0.454  11.977 -1.0317 -0.2502 -0.0362
 7720TIP3   OH244650   5.769   1.027   5.542 -0.0798  0.2906  0.0091
 7720TIP3    H144651   5.784   1.118   5.566 -0.2020  0.6650 -1.3169
 7720TIP3    H244652   5.853   0.984   5.559  0.4251  0.9556 -0.7344
 7721TIP3   OH244653   3.307   5.629   5.613 -0.6507  0.1056  0.0014
 7721TIP3    H144654   3.250   5.587   5.678 -0.3963 -0.8951 -0.4070
 7721TIP3    H244655   3.268   5.606   5.529 -0.0385 -0.0030 -0.2550
 7722TIP3   OH244656   3.065   6.616  12.549  0.1217  0.3263  0.4685
 7722TIP3    H144657   2.981   6.658  12.529 -0.3174 -0.3839  0.8167
 7722TIP3    H244658   3.111   6.680  12.603 -0.1594  0.7558  0.2040
 7723TIP3   OH244659   3.219   3.402   0.925 -0.2519 -0.1056 -0.0212
 7723TIP3    H144660   3.215   3.429   1.017  0.6946 -0.5336  0.1536
 7723TIP3    H244661   3.178   3.474   0.878  0.5602  0.7872  0.6109
 7724TIP3   OH244662   5.178   3.559   3.466  0.3566 -0.0772 -0.3309
 7724TIP3    H144663   5.235   3.629   3.436  1.4883 -0.5317  0.7048
 7724TIP3    H244664   5.223   3.478   3.441 -0.2523 -0.4443 -0.2772
 7725TIP3   OH244665   6.099   2.757   2.018  0.6381  0.2784  0.0331
 7725TIP3    H144666   6.028   2.773   2.081  0.4870  2.6288 -0.6690
 7725TIP3    H244667   6.176   2.742   2.072  0.3856  1.6735  0.8227
 7726TIP3   OH244668   3.413   1.568  13.197  0.5420  0.7979 -0.7899
 7726TIP3    H144669   3.449   1.485  13.229  0.3167  0.4334 -1.4648
 7726TIP3    H244670   3.372   1.607  13.274  1.0728  0.5087 -0.3561
 7727TIP3   OH244671   2.241   5.448  14.614  0.2846 -0.3081 -0.5365
 7727TIP3    H144672   2.172   5.477  14.673  1.8957  0.1130  1.2071
 7727TIP3    H244673   2.237   5.353  14.618 -0.4713 -0.2872 -0.7688
 7728TIP3   OH244674   4.680   3.259   4.824 -0.9694  0.2715 -0.0364
 7728TIP3    H144675   4.600   3.309   4.809 -0.3886  0.9124 -1.0690
 7728TIP3    H244676   4.736   3.318   4.874 -0.1021  0.8670 -1.6586
 7729TIP3   OH244677   4.262   0.828  11.781 -0.6153 -1.0417 -0.6995
 7729TIP3    H144678   4.333   0.856  11.840 -0.8104  0.3989 -1.1459
 7729TIP3    H244679   4.284   0.737  11.761  1.8473 -0.2556 -1.8569
 7730TIP3   OH244680   6.698   4.648  11.569  0.2497 -0.3150  0.6267
 7730TIP3    H144681   6.652   4.564  11.566  1.6496 -1.0227 -2.8832
 7730TIP3    H244682   6.635   4.711  11.537  0.4909 -0.6823 -0.5843
 7731TIP3   OH244683   3.494   5.551  13.402 -0.0523 -0.4280 -0.2154
 7731TIP3    H144684   3.472   5.611  13.331 -0.3962 -0.1245  0.1478
 7731TIP3    H244685   3.590   5.543  13.397  0.4405  2.9883  1.9607
 7732TIP3   OH244686   5.100   6.342   5.695 -0.1311 -0.2274 -0.3242
 7732TIP3    H144687   5.057   6.427   5.684  2.2231  1.2455  1.4965
 7732TIP3    H244688   5.156   6.333   5.618 -0.1613 -0.0368 -0.3669
 7733TIP3   OH244689   2.361   5.194   6.143 -0.3056  0.4874 -0.2235
 7733TIP3    H144690   2.298   5.265   6.130 -0.2269  0.7439  0.7373
 7733TIP3    H244691   2.341   5.159   6.230 -0.2109 -0.5431 -0.6042
 7734TIP3   OH244692   1.626   4.792   5.843 -0.0251 -0.1201 -0.2343
 7734TIP3    H144693   1.622   4.885   5.868 -0.6153 -0.3651  0.5945
 7734TIP3    H244694   1.572   4.786   5.764  1.4795  0.5749 -1.3419
 7735TIP3   OH244695   2.818   2.941   0.449  0.4426  0.1413 -0.0577
 7735TIP3    H144696   2.849   2.973   0.365  1.5113 -0.6835  0.0243
 7735TIP3    H244697   2.866   2.860   0.464 -0.6261 -0.3590  0.7825
 7736TIP3   OH244698   2.172   2.199   4.360 -0.3116  0.1259  0.4605
 7736TIP3    H144699   2.207   2.244   4.436  1.3204 -0.9141  0.3549
 7736TIP3    H244700   2.201   2.108   4.370  0.5090  0.1033 -1.7050
 7737TIP3   OH244701   4.875   5.455   4.402  0.2104  0.6423 -0.1300
 7737TIP3    H144702   4.938   5.477   4.334 -0.9901  1.8313 -0.8587
 7737TIP3    H244703   4.808   5.522   4.397 -1.1668 -0.6357  0.6068
 7738TIP3   OH244704   4.851   6.552   2.359 -0.1149  0.3767 -0.0478
 7738TIP3    H144705   4.818   6.481   2.414 -0.9247  1.0376  0.3138
 7738TIP3    H244706   4.822   6.632   2.402 -0.2550  0.9121 -1.1248
 7739TIP3   OH244707   0.508   0.745   0.918 -0.0444 -0.2635  0.2656
 7739TIP3    H144708   0.458   0.826   0.923  1.3661  0.6802 -0.5956
 7739TIP3    H244709   0.591   0.765   0.961  0.8486 -0.8106 -1.1711
 7740TIP3   OH244710   6.541   3.595   5.844 -0.1509  0.0093  0.0315
 7740TIP3    H144711   6.462   3.571   5.796 -1.1614  0.3364  1.4920
 7740TIP3    H244712   6.575   3.511   5.877 -0.8027  0.0367  0.7793
 7741TIP3   OH244713   3.238   0.052   3.837 -0.2331  0.5632  0.3444
 7741TIP3    H144714   3.209   0.032   3.926  0.0068  0.9457  0.5101
 7741TIP3    H244715   3.262  -0.033   3.800  0.2932  0.4808  0.8704
 7742TIP3   OH244716   6.216   1.962   1.455  0.2996 -0.1456 -0.1669
 7742TIP3    H144717   6.248   2.034   1.400 -0.0461  0.9753  1.0732
 7742TIP3    H244718   6.285   1.896   1.449  1.9734  1.4446  0.9141
 7743TIP3   OH244719   5.769   4.140   5.041 -0.3522  0.2346  0.2097
 7743TIP3    H144720   5.805   4.102   5.121  1.5951  0.6107 -0.4539
 7743TIP3    H244721   5.686   4.094   5.027 -0.3892 -0.2779  2.0870
 7744TIP3   OH244722   0.083   5.269   3.037 -0.1125  0.2887  0.1141
 7744TIP3    H144723   0.012   5.265   3.101 -0.1588 -0.8198  0.0158
 7744TIP3    H244724   0.048   5.322   2.966 -1.7328 -2.0873 -0.9541
 7745TIP3   OH244725   0.816   5.435   4.885  0.0033  0.1103  0.2989
 7745TIP3    H144726   0.798   5.405   4.795 -1.5535 -0.7629  0.8731
 7745TIP3    H244727   0.767   5.374   4.940 -0.9376  2.0332  1.6482
 7746TIP3   OH244728   6.518   2.239   3.966 -0.0815  0.0835  0.0696
 7746TIP3    H144729   6.469   2.217   3.887 -1.4224  0.1474  0.8649
 7746TIP3    H244730   6.578   2.166   3.978  1.5463  0.9863 -2.0830
 7747TIP3   OH244731   5.321   4.200  13.815  1.0739  0.6765  0.6818
 7747TIP3    H144732   5.308   4.284  13.859 -1.5241  0.8098 -0.2437
 7747TIP3    H244733   5.315   4.135  13.885 -2.2012  0.9401  0.7260
 7748TIP3   OH244734   3.029   4.944  13.212  0.2932  0.3394  0.3520
 7748TIP3    H144735   2.973   4.886  13.263  0.7352  1.8075  2.5448
 7748TIP3    H244736   2.993   4.940  13.123 -2.6817  0.4824  1.5097
 7749TIP3   OH244737   4.775   2.021  16.500 -1.1167 -0.5321  0.9022
 7749TIP3    H144738   4.749   1.954  16.437 -0.2935 -0.5706  0.5985
 7749TIP3    H244739   4.814   1.971  16.572  1.5352 -0.2796 -0.2976
 7750TIP3   OH244740   0.619   4.257  13.787  0.2740 -0.1914  0.4248
 7750TIP3    H144741   0.524   4.243  13.791 -0.1497  2.0226 -1.1572
 7750TIP3    H244742   0.629   4.338  13.738  2.9770  0.0037  1.2461
 7751TIP3   OH244743   0.284   0.917  15.722  0.0968 -0.1932  0.1592
 7751TIP3    H144744   0.346   0.845  15.736  0.3005  0.4336  2.9017
 7751TIP3    H244745   0.298   0.974  15.798 -1.4771  1.6918 -0.9533
 7752TIP3   OH244746   1.258   6.337  14.305  0.0917  0.0076 -0.3830
 7752TIP3    H144747   1.191   6.395  14.340 -0.3020 -1.1805  0.8660
 7752TIP3    H244748   1.213   6.285  14.240 -0.0344 -0.3036 -0.0471
 7753TIP3   OH244749   4.529   2.925   2.883  0.0741  0.2851 -0.1919
 7753TIP3    H144750   4.586   2.850   2.903 -0.5688 -0.6212 -1.7147
 7753TIP3    H244751   4.588   2.991   2.847  0.3000 -0.3457 -0.9977
 7754TIP3   OH244752   6.683   3.325   4.016  0.0241  0.2072  0.3060
 7754TIP3    H144753   6.588   3.326   4.023 -0.1873  0.7738 -2.2448
 7754TIP3    H244754   6.713   3.351   4.104 -2.1294 -0.5667  1.3142
 7755TIP3   OH244755   3.773   5.388  17.113  0.2120 -0.5495 -0.0323
 7755TIP3    H144756   3.767   5.361  17.021  0.7427 -0.5621 -0.0680
 7755TIP3    H244757   3.864   5.417  17.124  0.1950 -0.6991  0.5302
 7756TIP3   OH244758   3.761   2.432  11.904  0.1936  0.4415  0.2445
 7756TIP3    H144759   3.740   2.482  11.825 -1.2793  0.1357  0.4189
 7756TIP3    H244760   3.795   2.348  11.871  0.8480  0.8152 -0.0497
 7757TIP3   OH244761   4.918   1.481   0.272 -0.0637  0.0495 -0.4987
 7757TIP3    H144762   4.913   1.527   0.188  0.2041  2.0458  0.5608
 7757TIP3    H244763   4.844   1.420   0.270 -1.5144  1.7800 -1.2034
 7758TIP3   OH244764   1.845   2.988   1.044  0.4783  0.2275 -0.6504
 7758TIP3    H144765   1.778   3.056   1.047 -0.1369 -0.4369  1.2540
 7758TIP3    H244766   1.805   2.912   1.085  2.5425 -0.0310  1.0010
 7759TIP3   OH244767   1.453   5.718  12.018  0.8272  0.4428  0.1605
 7759TIP3    H144768   1.532   5.724  12.071  0.5293 -0.2078  0.6719
 7759TIP3    H244769   1.402   5.796  12.041  1.0591  0.5683  0.2437
 7760TIP3   OH244770   4.529   5.140  13.999 -0.4356  0.3521  0.1718
 7760TIP3    H144771   4.532   5.234  14.013 -3.3401  0.3629  1.0247
 7760TIP3    H244772   4.497   5.129  13.910  0.3808  0.1449 -0.1077
 7761TIP3   OH244773   4.337   5.478  15.941  0.6311  0.5403 -0.2805
 7761TIP3    H144774   4.244   5.476  15.964  1.0648  0.5970  1.5568
 7761TIP3    H244775   4.339   5.450  15.849 -1.2206  0.8240 -0.4340
 7762TIP3   OH244776   5.639   3.944  15.926  0.4817  0.5653 -0.3207
 7762TIP3    H144777   5.704   3.891  15.972 -2.1030 -2.7340 -0.3244
 7762TIP3    H244778   5.688   3.984  15.853  2.3790 -2.3550 -0.7353
 7763TIP3   OH244779   0.661   2.600  11.869 -0.4213 -0.1847 -0.1284
 7763TIP3    H144780   0.670   2.571  11.960  0.5402  0.5267  0.0049
 7763TIP3    H244781   0.571   2.631  11.863 -1.0603 -1.9036  0.0919
 7764TIP3   OH244782   1.846   1.648  12.379 -0.0691 -0.0885 -0.2231
 7764TIP3    H144783   1.865   1.641  12.286  1.2806  0.8641 -0.0349
 7764TIP3    H244784   1.761   1.604  12.390  0.2371 -1.0835 -1.7227
 7765TIP3   OH244785   4.774   2.193  10.711  0.5696  0.9065  0.1688
 7765TIP3    H144786   4.854   2.165  10.666  0.3677 -0.7199  0.7935
 7765TIP3    H244787   4.719   2.114  10.713  0.8905  0.7040  3.9885
 7766TIP3   OH244788   3.455   4.655   4.067  0.2224  0.3503  0.2056
 7766TIP3    H144789   3.489   4.688   4.150 -1.9500  0.3869  1.1410
 7766TIP3    H244790   3.511   4.581   4.046  0.1745 -0.3262  2.2986
 7767TIP3   OH244791   6.613   2.250   0.047  0.2430  0.0769  0.2559
 7767TIP3    H144792   6.562   2.278  -0.029 -0.2482  1.1984  0.9796
 7767TIP3    H244793   6.609   2.324   0.107  0.6233 -0.7951  1.3814
 7768TIP3   OH244794   3.826   0.139  14.182 -0.0852 -0.6669 -0.3493
 7768TIP3    H144795   3.895   0.155  14.246  0.9892  1.8047 -2.0228
 7768TIP3    H244796   3.866   0.082  14.116  0.3985  0.7590 -1.3149
 7769TIP3   OH244797   5.202   1.839  11.385  0.6710 -0.0675  0.3885
 7769TIP3    H144798   5.207   1.900  11.311 -0.2664 -0.0439  0.3452
 7769TIP3    H244799   5.229   1.891  11.460  0.3113  0.2813  0.2780
 7770TIP3   OH244800   3.378   6.467   5.550  0.2799  0.3378  0.6100
 7770TIP3    H144801   3.427   6.509   5.620 -1.6865  0.9057  1.6969
 7770TIP3    H244802   3.308   6.529   5.530  0.6733  0.0709 -1.7093
 7771TIP3   OH244803   4.287   1.743  13.907 -0.4988  0.3430 -0.3650
 7771TIP3    H144804   4.334   1.725  13.826 -2.4748 -0.1629 -1.4340
 7771TIP3    H244805   4.240   1.824  13.889 -1.1169  0.1078  0.1897
 7772TIP3   OH244806   5.037   5.595  14.920 -0.1460  0.0018  0.7246
 7772TIP3    H144807   5.030   5.674  14.866 -1.9373 -0.5716  0.0924
 7772TIP3    H244808   4.946   5.571  14.940  0.3983 -1.5796  1.3931
 7773TIP3   OH244809   6.540   3.205  14.538 -0.7809  0.1372 -0.0355
 7773TIP3    H144810   6.525   3.206  14.443 -1.5775  0.2710  0.0893
 7773TIP3    H244811   6.534   3.297  14.564 -0.4763  0.1101  0.1365
 7774TIP3   OH244812   2.841   5.203  16.295 -0.1244 -0.9182 -0.0801
 7774TIP3    H144813   2.833   5.155  16.377  0.7398 -0.4434  0.2782
 7774TIP3    H244814   2.752   5.233  16.276  0.1565  1.4131  2.1293
 7775TIP3   OH244815   5.074   0.029   4.000  0.2146  0.6770 -0.7456
 7775TIP3    H144816   5.136  -0.036   3.965  0.4751  1.6241 -2.0567
 7775TIP3    H244817   4.988  -0.005   3.975  0.1371 -0.8229  1.3784
 7776TIP3   OH244818   5.232   3.105  13.877 -0.0351 -0.0901  0.6434
 7776TIP3    H144819   5.214   3.188  13.922 -2.5374 -0.9513  1.3161
 7776TIP3    H244820   5.156   3.092  13.819  1.2230 -0.9955 -0.8366
 7777TIP3   OH244821   6.493   5.770  15.569  0.1313 -0.2540 -0.4597
 7777TIP3    H144822   6.446   5.826  15.632 -1.1186 -0.1719 -1.4462
 7777TIP3    H244823   6.555   5.829  15.526 -0.5709  0.1861 -0.8761
 7778TIP3   OH244824   3.124   5.584   2.189 -0.2347  1.1089  0.3963
 7778TIP3    H144825   3.189   5.515   2.203 -0.9061  0.0049 -1.6379
 7778TIP3    H244826   3.133   5.606   2.096 -1.2170  2.5446  0.6315
 7779TIP3   OH244827   4.583   1.118   2.508 -0.1804  0.9160  0.4731
 7779TIP3    H144828   4.552   1.068   2.433  0.8670  2.0612 -0.7488
 7779TIP3    H244829   4.676   1.094   2.516 -0.2375  0.9525  1.2726
 7780TIP3   OH244830   2.033   5.911   6.433 -0.8084  0.4168  0.4822
 7780TIP3    H144831   1.946   5.897   6.470 -0.8741 -1.9026 -0.5156
 7780TIP3    H244832   2.092   5.914   6.509 -1.5271  0.2773  1.0425
 7781TIP3   OH244833   4.313   0.573  12.331 -0.4067 -0.0438  0.4929
 7781TIP3    H144834   4.275   0.573  12.419  1.3380 -1.2671  1.2785
 7781TIP3    H244835   4.347   0.484  12.320  2.1223  0.9824 -0.2145
 7782TIP3   OH244836   6.073   3.875   5.179  0.4385  0.3160 -0.3956
 7782TIP3    H144837   6.054   3.789   5.142  0.8373 -0.4610  1.1783
 7782TIP3    H244838   6.002   3.892   5.240  1.0249  0.5356  0.2390
 7783TIP3   OH244839   4.820   6.067  12.570  0.1488  0.1332 -0.2109
 7783TIP3    H144840   4.766   6.144  12.550  1.4187  1.2114  0.4343
 7783TIP3    H244841   4.910   6.097  12.557  0.6803 -1.0667  0.6556
 7784TIP3   OH244842   2.407   1.649  12.882 -1.0356 -0.5599 -0.5763
 7784TIP3    H144843   2.321   1.659  12.924 -0.8696  0.1908 -0.4104
 7784TIP3    H244844   2.461   1.717  12.923  0.0603 -1.9926  0.4307
 7785TIP3   OH244845   2.972   0.084   2.611  0.1583  0.0190 -0.0100
 7785TIP3    H144846   2.933   0.161   2.571 -0.5526 -1.7842 -2.9538
 7785TIP3    H244847   3.064   0.086   2.584  0.3687  0.3614  0.7335
 7786TIP3   OH244848   3.655   3.223   4.150  0.0230 -0.1082 -0.1260
 7786TIP3    H144849   3.628   3.285   4.218 -0.9134 -0.0115 -0.5826
 7786TIP3    H244850   3.681   3.279   4.077 -0.7343 -0.2505 -0.5054
 7787TIP3   OH244851   3.553   5.026  15.394  0.7549 -0.2413 -0.1194
 7787TIP3    H144852   3.560   5.040  15.300 -0.4676 -0.1838 -0.2146
 7787TIP3    H244853   3.523   5.110  15.429 -0.3306 -0.7124  0.1132
 7788TIP3   OH244854   4.407   0.679  10.313  0.6598  0.5010  0.0916
 7788TIP3    H144855   4.344   0.623  10.359  0.9857  0.5595  0.6257
 7788TIP3    H244856   4.363   0.704  10.232  0.4174 -0.3340 -0.0420
 7789TIP3   OH244857   3.339   3.206   5.927  0.1801  0.3639 -0.2106
 7789TIP3    H144858   3.417   3.254   5.954 -0.1562  1.2994 -0.8777
 7789TIP3    H244859   3.266   3.261   5.953 -0.2202 -0.0090 -0.5351
 7790TIP3   OH244860   1.676   5.130  13.480  0.1808  0.1043  0.4037
 7790TIP3    H144861   1.765   5.104  13.458 -0.2667 -0.8172 -0.3188
 7790TIP3    H244862   1.636   5.153  13.396  0.0709  1.5911  0.8430
 7791TIP3   OH244863   5.057   3.226  14.269  0.2670 -0.7062 -0.2420
 7791TIP3    H144864   5.094   3.248  14.183 -0.0064 -2.3068 -0.7898
 7791TIP3    H244865   5.120   3.164  14.306 -0.7124 -1.6882 -0.2170
 7792TIP3   OH244866   1.672   0.134  16.518  0.5555 -0.2411  0.4856
 7792TIP3    H144867   1.577   0.147  16.517  0.8776  2.2245 -0.0480
 7792TIP3    H244868   1.682   0.039  16.532 -1.9586 -0.4814  1.0420
 7793TIP3   OH244869   1.542   1.727   2.789  0.0839 -0.1954  0.5278
 7793TIP3    H144870   1.480   1.762   2.852  0.0366 -0.6467  0.7323
 7793TIP3    H244871   1.488   1.696   2.716  0.2154  1.5309 -0.3398
 7794TIP3   OH244872   5.756   1.143   2.492 -0.1254 -0.1708 -0.4144
 7794TIP3    H144873   5.730   1.051   2.493  1.3524 -0.5886  1.7524
 7794TIP3    H244874   5.851   1.141   2.481 -0.0672  1.1050 -0.1761
 7795TIP3   OH244875   2.562   1.484   2.335  0.0460 -0.6119  0.1544
 7795TIP3    H144876   2.600   1.513   2.253  1.2708 -2.1857  0.1579
 7795TIP3    H244877   2.628   1.506   2.401 -0.8369  0.4441  0.7141
 7796TIP3   OH244878   4.721   4.030  14.809  0.0272 -0.3028  0.1350
 7796TIP3    H144879   4.628   4.008  14.800 -0.9644  3.7553 -0.5511
 7796TIP3    H244880   4.753   4.029  14.719 -0.5373  2.8614 -0.1374
 7797TIP3   OH244881   1.814   4.402   0.680 -0.3532  0.7529 -0.0327
 7797TIP3    H144882   1.884   4.407   0.614  0.6910 -0.9511  0.9155
 7797TIP3    H244883   1.791   4.309   0.683 -1.1696  0.9912  1.2251
 7798TIP3   OH244884   2.713   2.651   3.014 -0.1217 -0.3051 -0.1647
 7798TIP3    H144885   2.736   2.699   2.935  1.1783 -1.8498 -0.7743
 7798TIP3    H244886   2.653   2.708   3.061  2.0570  2.2946 -0.4085
 7799TIP3   OH244887   3.800   4.124  11.998  0.0227 -0.1369  0.1420
 7799TIP3    H144888   3.822   4.116  11.905 -3.7210 -1.1287 -0.7660
 7799TIP3    H244889   3.803   4.034  12.031  0.9023  0.1625  0.9131
 7800TIP3   OH244890   4.044   3.192   5.111 -0.6320 -0.0860 -0.1650
 7800TIP3    H144891   4.120   3.239   5.077 -1.1535  0.0919 -1.0996
 7800TIP3    H244892   4.066   3.099   5.099 -0.0507 -0.0637  0.6999
 7801TIP3   OH244893   5.126   0.873  16.894 -0.0077 -0.1959  0.2028
 7801TIP3    H144894   5.156   0.958  16.926  1.5511 -1.0027  0.9112
 7801TIP3    H244895   5.205   0.818  16.893 -1.1011 -1.7949  0.2540
 7802TIP3   OH244896   5.802   6.168  16.380  0.0035  0.0087  0.0573
 7802TIP3    H144897   5.779   6.229  16.310  1.0562 -0.8404 -1.0562
 7802TIP3    H244898   5.727   6.170  16.440 -0.6893  1.1166 -0.8289
 7803TIP3   OH244899   0.260   0.846   5.565  0.1157  0.2352 -0.3135
 7803TIP3    H144900   0.330   0.840   5.500  1.0691  0.2707  0.7044
 7803TIP3    H244901   0.294   0.798   5.641 -0.9129  0.3580  0.2250
 7804TIP3   OH244902   3.560   5.620   5.392 -0.3987 -0.9178 -0.4593
 7804TIP3    H144903   3.512   5.667   5.324 -0.1719  1.0323  0.6783
 7804TIP3    H244904   3.494   5.565   5.435 -1.6081  1.4812  0.8757
 7805TIP3   OH244905   4.149   0.766   3.221 -0.4826  0.7733 -0.0557
 7805TIP3    H144906   4.055   0.755   3.236 -0.6555 -1.5842 -2.5495
 7805TIP3    H244907   4.190   0.728   3.299 -1.5418  2.1902  1.2425
 7806TIP3   OH244908   0.208   6.458  12.088  0.1099 -0.1585  0.0731
 7806TIP3    H144909   0.244   6.527  12.144 -0.2202  0.2852 -0.2538
 7806TIP3    H244910   0.119   6.487  12.070  0.1645 -0.3842 -0.5532
 7807TIP3   OH244911   6.470   3.651   4.793  0.2440 -0.9220  0.4928
 7807TIP3    H144912   6.495   3.596   4.867  1.2977 -0.1326  0.7334
 7807TIP3    H244913   6.484   3.597   4.716  0.8083 -1.1487  0.7545
 7808TIP3   OH244914   6.797   6.180  12.844 -0.3596  0.0351 -0.2067
 7808TIP3    H144915   6.832   6.095  12.815 -0.3267  0.4168 -1.3050
 7808TIP3    H244916   6.875   6.233  12.861 -0.3892  0.8079 -2.4160
 7809TIP3   OH244917   3.654   0.747   4.100 -0.2142  0.2124 -0.3334
 7809TIP3    H144918   3.728   0.754   4.040  0.5173  1.9707  0.7099
 7809TIP3    H244919   3.694   0.736   4.187 -1.1256  1.4164  0.2674
 7810TIP3   OH244920   3.180   2.508   1.822 -0.6232  0.6148 -0.0265
 7810TIP3    H144921   3.196   2.444   1.891 -1.5340  1.1866  0.7365
 7810TIP3    H244922   3.093   2.543   1.842  0.3772  3.0247  0.3382
 7811TIP3   OH244923   2.261   2.372   5.097  0.1874  0.6187  0.2613
 7811TIP3    H144924   2.290   2.282   5.085 -0.9423 -0.1122  2.6129
 7811TIP3    H244925   2.196   2.386   5.029 -0.0432 -0.5400  0.2318
 7812TIP3   OH244926   2.560   2.873  12.674 -0.1757 -0.2327 -0.4615
 7812TIP3    H144927   2.613   2.934  12.724  1.0972 -1.4228 -0.3302
 7812TIP3    H244928   2.567   2.903  12.583  2.3329 -1.4877 -0.7228
 7813TIP3   OH244929   4.564   5.435  11.222  0.1409 -0.3399 -0.5336
 7813TIP3    H144930   4.525   5.366  11.275  0.2680 -0.3222 -0.4148
 7813TIP3    H244931   4.530   5.517  11.259  0.6790 -0.3031 -0.1119
 7814TIP3   OH244932   0.753   1.582  15.617 -0.4871 -0.2484 -0.1142
 7814TIP3    H144933   0.752   1.561  15.711 -2.7331 -0.9930 -0.2654
 7814TIP3    H244934   0.766   1.497  15.574  1.0662  0.1679 -0.4600
 7815TIP3   OH244935   1.282   4.106   4.107  0.0161 -0.3890 -0.1991
 7815TIP3    H144936   1.337   4.031   4.084  0.4915  0.1722 -0.8991
 7815TIP3    H244937   1.209   4.102   4.046 -0.0222 -0.3464 -0.1560
 7816TIP3   OH244938   6.804   5.850  11.613 -0.7281 -0.4809 -0.2864
 7816TIP3    H144939   6.733   5.872  11.554 -1.3328  1.2991  1.0581
 7816TIP3    H244940   6.763   5.843  11.699  0.8947  1.8433  0.7146
 7817TIP3   OH244941   6.181   4.583   6.509  0.3421  0.6149  0.0557
 7817TIP3    H144942   6.245   4.653   6.497  1.0434 -0.3777 -2.3103
 7817TIP3    H244943   6.234   4.504   6.520 -0.4752  0.0006 -0.4122
 7818TIP3   OH244944   5.027   5.493   3.324  0.5896  0.1023 -0.0502
 7818TIP3    H144945   5.017   5.523   3.234  0.4523  0.8435  0.2054
 7818TIP3    H244946   4.938   5.482   3.356  0.6324  0.2828  0.1353
 7819TIP3   OH244947   4.175   6.698   0.479 -0.3999  0.0192 -0.1454
 7819TIP3    H144948   4.099   6.740   0.437 -0.8655  0.1974  0.8514
 7819TIP3    H244949   4.141   6.614   0.510 -0.4064  0.4466  1.0224
 7820TIP3   OH244950   5.957   2.447   3.021 -0.4593  0.1394  0.1024
 7820TIP3    H144951   5.883   2.457   2.960 -1.7004  0.8675  1.7041
 7820TIP3    H244952   5.917   2.447   3.108  1.4119  0.2303  0.9843
 7821TIP3   OH244953   5.427   0.747  11.377 -0.0729  0.4642 -0.5924
 7821TIP3    H144954   5.419   0.773  11.285  0.1967  2.0181 -0.1931
 7821TIP3    H244955   5.515   0.774  11.402  0.6957 -2.0630 -0.5078
 7822TIP3   OH244956   5.947   1.696   0.791 -0.0461  0.2069 -0.1034
 7822TIP3    H144957   5.888   1.745   0.848  0.4162  1.0758 -0.3643
 7822TIP3    H244958   6.032   1.738   0.803  0.4440 -0.7959 -0.0177
 7823TIP3   OH244959   4.575   2.919   0.201  0.0569  0.0094  0.0637
 7823TIP3    H144960   4.520   2.884   0.131 -0.7558  0.7863  0.3081
 7823TIP3    H244961   4.537   3.005   0.221 -0.4432 -0.7008  2.2624
 7824TIP3   OH244962   1.465   4.697  12.469  0.0025 -0.0369 -0.2284
 7824TIP3    H144963   1.383   4.745  12.479  0.0040 -0.1490  0.3209
 7824TIP3    H244964   1.510   4.707  12.553  0.6062  0.1200 -0.5619
 7825TIP3   OH244965   1.918   0.398  12.866 -0.2873 -0.1364  1.1076
 7825TIP3    H144966   1.856   0.361  12.928  2.5618 -0.4475  3.9174
 7825TIP3    H244967   1.973   0.324  12.840 -0.0929  0.4276 -0.1227
 7826TIP3   OH244968   3.621   1.287   1.528  0.4660 -1.0152 -0.1731
 7826TIP3    H144969   3.665   1.300   1.445 -1.0388 -3.9833 -1.4964
 7826TIP3    H244970   3.532   1.260   1.505  0.5279 -3.6587  2.3125
 7827TIP3   OH244971   4.281   2.909  14.653  0.8153  0.4551 -0.3118
 7827TIP3    H144972   4.203   2.941  14.699 -0.6614 -0.3477 -2.1723
 7827TIP3    H244973   4.324   2.851  14.716 -1.4063 -0.9742 -0.0630
 7828TIP3   OH244974   0.194   6.750   1.335  0.0252 -0.0844  0.1718
 7828TIP3    H144975   0.108   6.791   1.340  0.5394  0.9547  0.7931
 7828TIP3    H244976   0.213   6.744   1.242 -0.3390  0.4919  0.0585
 7829TIP3   OH244977   5.432   4.632   1.595 -0.3117 -0.0570 -0.5131
 7829TIP3    H144978   5.481   4.689   1.537 -1.5079 -0.1791 -1.6495
 7829TIP3    H244979   5.497   4.604   1.661  0.6206  1.4370 -0.7708
 7830TIP3   OH244980   2.732   0.631   4.626 -0.7539  0.6624 -0.1460
 7830TIP3    H144981   2.691   0.665   4.546 -0.2255  1.7737  0.0581
 7830TIP3    H244982   2.815   0.677   4.632 -0.6667  0.3712  0.9101
 7831TIP3   OH244983   0.658   5.461  15.556 -0.9067 -0.1178  0.1955
 7831TIP3    H144984   0.612   5.385  15.521 -0.3513 -0.0764 -0.6533
 7831TIP3    H244985   0.721   5.484  15.487  1.0612 -0.7901  1.7178
 7832TIP3   OH244986   3.456   5.278   4.772 -0.2393 -0.3886  0.3532
 7832TIP3    H144987   3.424   5.307   4.858 -1.7009  0.5343 -0.4725
 7832TIP3    H244988   3.544   5.245   4.788 -0.3488  0.1681  2.1339
 7833TIP3   OH244989   1.733   0.394   5.571  0.0212 -0.2153  0.0431
 7833TIP3    H144990   1.776   0.411   5.487 -1.5504  0.3473 -0.6658
 7833TIP3    H244991   1.794   0.337   5.618  0.4578 -1.3725 -1.8738
 7834TIP3   OH244992   0.581   2.443   2.541  0.4028  0.1533 -0.6184
 7834TIP3    H144993   0.489   2.421   2.528  0.2122  0.8186 -0.3896
 7834TIP3    H244994   0.616   2.370   2.593 -0.6241  1.1945  1.5793
 7835TIP3   OH244995   3.981   3.601  11.957  0.2309 -0.4159 -0.6457
 7835TIP3    H144996   3.887   3.608  11.972  0.4181  0.2789  0.1974
 7835TIP3    H244997   4.000   3.508  11.970 -0.2184 -0.4343 -0.1083
 7836TIP3   OH244998   4.436   0.567   0.730 -0.1011  0.3677 -0.3541
 7836TIP3    H144999   4.412   0.544   0.819 -2.8556  1.7410 -0.6857
 7836TIP3    H245000   4.359   0.546   0.677  0.6277  1.7347 -2.0319
 7837TIP3   OH245001   1.302   3.539   3.776 -0.5132 -0.3103 -0.8332
 7837TIP3    H145002   1.372   3.505   3.833 -1.7113  0.6293  1.2638
 7837TIP3    H245003   1.337   3.620   3.741 -0.1227 -0.4136 -0.6914
 7838TIP3   OH245004   0.628   6.614   0.180 -0.3748  0.3709  0.6452
 7838TIP3    H145005   0.621   6.518   0.173  0.6772  0.3582 -0.3114
 7838TIP3    H245006   0.537   6.644   0.171 -0.6422 -0.4958  0.3038
 7839TIP3   OH245007   2.144   4.639  14.891 -0.1737  0.4450 -0.1100
 7839TIP3    H145008   2.091   4.562  14.869  0.7768 -0.1915 -0.2070
 7839TIP3    H245009   2.081   4.702  14.926 -1.1845  0.1527 -1.3363
 7840TIP3   OH245010   2.327   4.702  11.193 -0.0578  0.3357  0.0816
 7840TIP3    H145011   2.250   4.717  11.139 -0.2679  0.9295  0.5393
 7840TIP3    H245012   2.331   4.607  11.203 -0.8074  0.3117  0.1746
 7841TIP3   OH245013   4.348   1.219   3.112 -0.2109 -0.1464  0.0766
 7841TIP3    H145014   4.403   1.140   3.109 -0.0931 -0.1182  1.1117
 7841TIP3    H245015   4.380   1.266   3.189 -0.0850  1.0670 -0.7162
 7842TIP3   OH245016   0.224   0.380   0.352  0.5335 -0.1081 -0.3416
 7842TIP3    H145017   0.265   0.457   0.312  0.4673 -0.3049 -0.7914
 7842TIP3    H245018   0.297   0.322   0.373  0.9200  1.4495  3.0324
 7843TIP3   OH245019   4.395   4.338  16.889  0.4257  0.1646 -0.2953
 7843TIP3    H145020   4.371   4.306  16.802  0.4271 -0.5173 -0.0475
 7843TIP3    H245021   4.334   4.294  16.948  0.3959  0.6627  0.0428
 7844TIP3   OH245022   3.208   1.315  13.067 -0.1369 -0.4449 -0.4881
 7844TIP3    H145023   3.174   1.334  13.155 -1.7385 -1.3076 -0.9193
 7844TIP3    H245024   3.190   1.394  13.017  0.4408 -0.0922 -0.1501
 7845TIP3   OH245025   1.073   6.340  11.633  0.0360 -0.0497  0.0373
 7845TIP3    H145026   1.106   6.389  11.708  1.1639 -0.4877 -0.1500
 7845TIP3    H245027   1.140   6.273  11.618 -0.8781 -0.8533 -0.4749
 7846TIP3   OH245028   2.365   1.417   1.855 -0.2486 -0.2644 -0.1251
 7846TIP3    H145029   2.420   1.488   1.823 -0.5145 -0.7766 -1.7882
 7846TIP3    H245030   2.419   1.374   1.922 -0.4856  2.0850  1.6432
 7847TIP3   OH245031   5.285   2.690  12.270  0.0847 -0.2848  0.3839
 7847TIP3    H145032   5.241   2.702  12.186  0.4034  0.6907  0.3401
 7847TIP3    H245033   5.237   2.620  12.313 -0.1407 -0.7267 -0.5714
 7848TIP3   OH245034   4.735   3.137   1.744  0.0002 -0.1513 -0.4616
 7848TIP3    H145035   4.790   3.213   1.726 -0.7685 -0.3310 -3.9018
 7848TIP3    H245036   4.648   3.174   1.759 -0.4028 -0.3191 -2.2728
 7849TIP3   OH245037   6.486   1.777  14.203  0.3772 -0.0644 -0.3121
 7849TIP3    H145038   6.427   1.720  14.154  0.2834  1.4922 -2.0749
 7849TIP3    H245039   6.428   1.843  14.242  0.7091  0.1880 -0.2471
 7850TIP3   OH245040   0.911   3.826  11.179  0.7668 -0.0143 -0.0344
 7850TIP3    H145041   0.910   3.909  11.227 -0.1428  0.3376 -0.6383
 7850TIP3    H245042   0.978   3.773  11.222  0.9120  0.8074  0.7484
 7851TIP3   OH245043   6.067   3.955  15.605  0.3487  0.1614  0.4244
 7851TIP3    H145044   6.048   4.002  15.523 -1.6898 -1.2600  0.0530
 7851TIP3    H245045   6.155   3.919  15.592 -0.1192 -0.3958 -1.3228
 7852TIP3   OH245046   4.231   0.563   0.532 -0.2628  0.1482 -0.3094
 7852TIP3    H145047   4.290   0.488   0.527 -0.2198  0.0790  1.0211
 7852TIP3    H245048   4.174   0.555   0.456 -2.3176 -2.9877  1.4772
 7853TIP3   OH245049   0.881   2.170   2.781 -0.0573 -0.0791 -0.2271
 7853TIP3    H145050   0.968   2.132   2.770  0.0305 -0.0343  0.3104
 7853TIP3    H245051   0.897   2.253   2.827 -0.2671  0.4928 -1.1665
 7854TIP3   OH245052   0.304   3.794   4.259  0.3141  0.1794 -0.1252
 7854TIP3    H145053   0.210   3.803   4.244  0.3313  1.8845  0.6673
 7854TIP3    H245054   0.315   3.708   4.298 -0.6068 -1.1440 -2.6496
 7855TIP3   OH245055   5.850   3.560   3.564  0.0514 -0.2759  0.1733
 7855TIP3    H145056   5.860   3.466   3.546 -1.1540 -1.1138  3.5748
 7855TIP3    H245057   5.936   3.587   3.596  0.7555  0.1135 -1.9357
 7856TIP3   OH245058   2.832   2.115   5.141 -0.3565  0.3366 -0.1586
 7856TIP3    H145059   2.916   2.092   5.181  0.2638  0.7755 -1.1984
 7856TIP3    H245060   2.855   2.170   5.067 -1.5080 -0.3251 -1.0218
 7857TIP3   OH245061   1.830   0.320  12.049  0.5257 -0.1220 -0.5519
 7857TIP3    H145062   1.792   0.399  12.011 -0.2430  0.5122  1.4367
 7857TIP3    H245063   1.773   0.249  12.021 -0.5002  0.4448  0.0960
 7858TIP3   OH245064   5.059   2.563  14.029 -0.8136  0.2257  0.4544
 7858TIP3    H145065   5.059   2.488  13.969  0.4318 -0.6341  1.4982
 7858TIP3    H245066   5.016   2.531  14.108  1.4074 -0.0258  1.6105
 7859TIP3   OH245067   1.352   1.517  15.948 -0.0500 -0.1759 -0.6723
 7859TIP3    H145068   1.341   1.536  15.855 -1.5511 -1.9020 -0.8616
 7859TIP3    H245069   1.277   1.558  15.990  0.2256 -0.0517 -0.2954
 7860TIP3   OH245070   1.370   4.715   4.454 -0.1285  0.3041  0.2476
 7860TIP3    H145071   1.292   4.660   4.447 -0.1608  0.1971  1.4499
 7860TIP3    H245072   1.433   4.676   4.392 -0.6450 -0.2379  0.0656
 7861TIP3   OH245073   2.903   6.601   5.404  0.2480 -0.6413  0.0985
 7861TIP3    H145074   2.930   6.525   5.352  1.8610 -0.0480  0.0496
 7861TIP3    H245075   2.833   6.568   5.460  0.9398 -2.1678  0.0938
 7862TIP3   OH245076   6.731   6.734  15.102 -0.5595 -0.1019  0.3498
 7862TIP3    H145077   6.723   6.660  15.162  2.5760  0.9387  2.1806
 7862TIP3    H245078   6.681   6.804  15.143 -0.9261 -0.2856  0.2156
 7863TIP3   OH245079   0.925   5.203   3.438  0.2828  0.4987  0.5045
 7863TIP3    H145080   0.852   5.156   3.480 -0.4688  0.6880 -0.5695
 7863TIP3    H245081   0.943   5.153   3.359 -0.6574  2.0925 -0.7529
 7864TIP3   OH245082   1.228   6.524  17.180  0.5616  0.2773 -0.0930
 7864TIP3    H145083   1.192   6.451  17.229 -0.6016 -0.4820 -1.9999
 7864TIP3    H245084   1.300   6.487  17.130 -1.6789 -0.2432 -3.0954
 7865TIP3   OH245085   0.922   1.586  13.913  0.2546  0.2628 -0.2722
 7865TIP3    H145086   0.963   1.636  13.983  1.4610  2.1525 -2.2958
 7865TIP3    H245087   0.828   1.606  13.921  0.4378  0.8214  0.4994
 7866TIP3   OH245088   3.075   5.792   2.890  0.0066 -0.0735 -0.5728
 7866TIP3    H145089   2.996   5.809   2.838 -1.1389 -0.6985  0.9101
 7866TIP3    H245090   3.136   5.753   2.829 -0.7435  0.6682 -1.8164
 7867TIP3   OH245091   3.287   5.517  13.808  0.0452 -0.3711 -0.5141
 7867TIP3    H145092   3.327   5.604  13.809 -1.4374  0.4220 -3.7253
 7867TIP3    H245093   3.297   5.486  13.718 -0.1774 -3.2066  0.3699
 7868TIP3   OH245094   5.294   3.743  16.813 -0.0083 -0.0484  0.1576
 7868TIP3    H145095   5.317   3.663  16.764 -1.1961 -0.9139  0.9988
 7868TIP3    H245096   5.220   3.780  16.764 -0.7606 -0.5521  0.9097
 7869TIP3   OH245097   1.235   4.297  17.242  0.4627  0.3293  0.1153
 7869TIP3    H145098   1.147   4.261  17.237  0.2747  0.6133  1.1813
 7869TIP3    H245099   1.262   4.284  17.333  0.3124  3.0000  0.6019
 7870TIP3   OH245100   1.496   0.281   4.469  0.1022 -0.2584 -0.1654
 7870TIP3    H145101   1.537   0.196   4.451  0.2980 -0.1186 -0.3809
 7870TIP3    H245102   1.508   0.332   4.389  0.7413  0.2670  0.2549
 7871TIP3   OH245103   3.543   6.208   0.144  0.2560 -0.2147  0.8242
 7871TIP3    H145104   3.477   6.200   0.213  0.5209 -0.4323  1.0563
 7871TIP3    H245105   3.521   6.139   0.082  0.7726 -0.8431  1.3327
 7872TIP3   OH245106   2.803   5.678   1.914 -0.5712  0.5545  0.2554
 7872TIP3    H145107   2.830   5.625   1.988  0.0227  0.5174  0.0104
 7872TIP3    H245108   2.818   5.769   1.942  0.7152  0.4970 -0.2413
 7873TIP3   OH245109   4.432   2.632  12.754  0.1272  0.2748  0.4519
 7873TIP3    H145110   4.509   2.668  12.797  0.3709  0.1864  0.0924
 7873TIP3    H245111   4.375   2.605  12.826  0.4949  0.2067  0.7201
 7874TIP3   OH245112   6.715   2.608   6.290 -0.2664  0.4006 -0.2014
 7874TIP3    H145113   6.664   2.645   6.362  0.7627  1.5980 -0.0702
 7874TIP3    H245114   6.676   2.645   6.211  0.4879  1.4406 -0.0929
 7875TIP3   OH245115   3.871   3.082  12.613 -0.4212 -0.3604 -0.0095
 7875TIP3    H145116   3.857   3.175  12.632 -4.8677 -0.8235 -0.3594
 7875TIP3    H245117   3.924   3.081  12.533  0.9226  1.8213  0.8123
 7876TIP3   OH245118   3.531   5.788   2.374 -0.0166  0.6501 -0.0418
 7876TIP3    H145119   3.511   5.743   2.456  2.0855  0.8191  0.5893
 7876TIP3    H245120   3.532   5.718   2.308  1.6535 -0.0180  0.6657
 7877TIP3   OH245121   5.080   3.933   5.014 -0.5812 -0.0980  0.6524
 7877TIP3    H145122   5.076   3.862   4.950 -1.8713  1.7069 -1.3562
 7877TIP3    H245123   5.036   3.898   5.092 -1.3133 -1.4473 -0.3542
 7878TIP3   OH245124   5.883   0.297   1.814  0.6005 -0.3170 -0.6877
 7878TIP3    H145125   5.806   0.242   1.805  2.6443 -3.1193 -1.6613
 7878TIP3    H245126   5.955   0.236   1.830  3.1929  1.9243 -3.2708
 7879TIP3   OH245127   5.816   5.475  14.660 -0.2152  0.6215  0.0575
 7879TIP3    H145128   5.782   5.412  14.725  1.4367  0.4798  0.8146
 7879TIP3    H245129   5.765   5.458  14.581 -0.8755 -0.5876  0.7259
 7880TIP3   OH245130   5.505   2.563   5.239  0.6713  0.0132 -0.4980
 7880TIP3    H145131   5.575   2.629   5.243  0.0858  0.5734  0.8636
 7880TIP3    H245132   5.437   2.597   5.297  0.0401 -1.4272 -0.3841
 7881TIP3   OH245133   6.433   2.318  11.175 -0.1406 -0.1190  0.1061
 7881TIP3    H145134   6.346   2.284  11.197  1.1327 -3.1488  0.7843
 7881TIP3    H245135   6.417   2.381  11.106 -3.0504  0.6445  1.3842
 7882TIP3   OH245136   5.199   3.425  11.864  0.2985 -0.1466 -0.1229
 7882TIP3    H145137   5.255   3.363  11.817 -2.4515 -2.4516 -0.5352
 7882TIP3    H245138   5.207   3.400  11.956 -1.4450 -1.7169 -0.3715
 7883TIP3   OH245139   6.622   6.416   1.625  0.3994 -0.0979 -0.0886
 7883TIP3    H145140   6.689   6.452   1.683 -0.8352  0.0089  1.2728
 7883TIP3    H245141   6.627   6.321   1.638  1.9041 -0.2940 -1.7870
 7884TIP3   OH245142   6.405   1.754   1.458 -0.0914 -0.6660  0.0506
 7884TIP3    H145143   6.497   1.727   1.467  0.3466  1.0279  0.9767
 7884TIP3    H245144   6.374   1.709   1.380  1.7291 -0.7863 -0.6320
 7885TIP3   OH245145   3.983   2.929   0.117 -0.1989  0.1995 -0.8969
 7885TIP3    H145146   4.002   2.986   0.191 -0.6203  1.9619 -2.1068
 7885TIP3    H245147   4.013   2.842   0.145  0.9517  1.1052  0.7711
 7886TIP3   OH245148   0.353   4.966  15.415 -0.0478 -0.2925 -0.4910
 7886TIP3    H145149   0.438   4.942  15.451  1.0308  2.1329 -1.3913
 7886TIP3    H245150   0.329   5.047  15.460 -0.0299  1.1804 -3.0646
 7887TIP3   OH245151   5.516   1.462  11.364  0.0676 -0.0820  0.2631
 7887TIP3    H145152   5.519   1.389  11.426 -1.1241  0.5729  1.1096
 7887TIP3    H245153   5.465   1.529  11.409 -1.5162  0.1126 -1.7434
 7888TIP3   OH245154   4.777   4.464   3.848  0.4460  0.4286  0.2045
 7888TIP3    H145155   4.842   4.504   3.905  1.2180 -0.3557 -0.1239
 7888TIP3    H245156   4.827   4.421   3.779 -0.4691  0.9924 -0.8284
 7889TIP3   OH245157   0.577   3.443  12.511  0.8422 -0.1380  1.0644
 7889TIP3    H145158   0.558   3.351  12.492 -0.8091  0.4146 -0.1241
 7889TIP3    H245159   0.567   3.452  12.605  0.7259 -1.1132  1.1423
 7890TIP3   OH245160   5.828   2.714  15.795  0.4270  0.1653  0.4477
 7890TIP3    H145161   5.915   2.675  15.800  1.2023  2.0235  1.9222
 7890TIP3    H245162   5.830   2.769  15.716  0.9228  1.0087  1.0511
 7891TIP3   OH245163   3.000   3.313  12.611  0.5155 -0.0854  0.1524
 7891TIP3    H145164   2.957   3.251  12.670  0.9649 -0.4759  0.0730
 7891TIP3    H245165   2.930   3.346  12.555  0.0016  0.6209  1.1940
 7892TIP3   OH245166   0.580   6.784  11.376  0.1526  0.0791  0.1926
 7892TIP3    H145167   0.597   6.858  11.318 -0.8415 -1.1011 -1.6314
 7892TIP3    H245168   0.648   6.720  11.355 -1.0683 -0.9388 -0.7108
 7893TIP3   OH245169   1.182   4.144  15.922  0.4003  0.3136 -0.3860
 7893TIP3    H145170   1.225   4.228  15.942 -0.8020  0.7338  0.4746
 7893TIP3    H245171   1.144   4.156  15.835  1.8924 -0.0234 -1.1112
 7894TIP3   OH245172   2.711   2.352   4.499  0.0265 -0.8999 -0.0301
 7894TIP3    H145173   2.632   2.357   4.444  1.3459 -0.1578 -1.8962
 7894TIP3    H245174   2.728   2.443   4.525  1.9525 -0.6093 -2.1289
 7895TIP3   OH245175   2.222   1.050  10.435  0.5227 -0.6702  0.2437
 7895TIP3    H145176   2.204   1.087  10.349  0.9184 -0.4866  0.2388
 7895TIP3    H245177   2.144   0.998  10.456  0.8364 -1.5125 -0.6501
 7896TIP3   OH245178   2.254   5.016   2.006  0.2195 -0.0715 -0.1825
 7896TIP3    H145179   2.258   4.924   2.034 -1.6420  0.2635  1.2752
 7896TIP3    H245180   2.197   5.015   1.929 -0.6572 -0.0026  0.4620
 7897TIP3   OH245181   4.372   2.036  13.485  0.3599 -0.3091 -0.4841
 7897TIP3    H145182   4.281   2.064  13.481 -0.0258 -1.4306  0.4732
 7897TIP3    H245183   4.414   2.097  13.545  0.2420  0.1685 -0.8774
 7898TIP3   OH245184   3.302   3.238   1.792 -0.1748  0.9808  0.6066
 7898TIP3    H145185   3.233   3.184   1.830 -1.0261  0.1737 -1.9730
 7898TIP3    H245186   3.275   3.328   1.810 -1.1975  0.6376  0.8171
 7899TIP3   OH245187   5.749   3.176  14.487 -0.0848  0.0970 -0.0984
 7899TIP3    H145188   5.826   3.232  14.487  2.4244 -3.2076 -0.2304
 7899TIP3    H245189   5.726   3.167  14.394 -0.3100  0.6363 -0.0969
 7900TIP3   OH245190   6.690   3.117  15.879 -0.3481 -0.0571 -0.6463
 7900TIP3    H145191   6.724   3.087  15.964  0.2224 -0.8627 -1.1505
 7900TIP3    H245192   6.718   3.050  15.817 -0.4924  0.6879 -1.5284
 7901TIP3   OH245193   4.095   3.112  16.720 -0.1129  0.2951  0.1258
 7901TIP3    H145194   4.033   3.135  16.651  0.8551  3.6746  0.2817
 7901TIP3    H245195   4.141   3.194  16.739  1.0497 -1.0284  3.3709
 7902TIP3   OH245196   4.226   4.255  14.983  0.1165 -0.4870 -0.2279
 7902TIP3    H145197   4.280   4.314  15.037 -1.0605 -0.9366  1.5005
 7902TIP3    H245198   4.155   4.311  14.951 -0.6687 -0.7833  0.9254
 7903TIP3   OH245199   1.582   5.995   1.694  0.3862 -0.5684  0.1212
 7903TIP3    H145200   1.656   6.002   1.754  1.2813 -1.7730 -0.8165
 7903TIP3    H245201   1.620   5.966   1.611 -0.6507  2.3317 -1.4395
 7904TIP3   OH245202   2.222   2.427   3.295  0.4598 -0.1672 -0.1675
 7904TIP3    H145203   2.185   2.341   3.316  0.4859 -0.4498 -1.2650
 7904TIP3    H245204   2.296   2.435   3.355  0.6967 -1.0867 -0.3174
 7905TIP3   OH245205   4.571   2.337  15.360  0.3612  0.0067  0.3307
 7905TIP3    H145206   4.601   2.348  15.450 -1.2149 -1.6685  1.1136
 7905TIP3    H245207   4.540   2.246  15.356 -0.4074  0.3201 -1.6538
 7906TIP3   OH245208   4.629   3.219   3.599 -0.0441 -0.3791  0.4686
 7906TIP3    H145209   4.716   3.198   3.633  0.3564  0.7235  0.1462
 7906TIP3    H245210   4.579   3.250   3.676 -0.4925 -2.0282  0.8558
 7907TIP3   OH245211   5.796   2.619  13.600 -0.3172 -0.8736  0.0923
 7907TIP3    H145212   5.765   2.689  13.543  0.0599 -0.2586  0.6303
 7907TIP3    H245213   5.762   2.642  13.687  1.5360 -0.2114  0.6847
 7908TIP3   OH245214   3.128   1.301   4.976 -0.5240  0.2542  0.4278
 7908TIP3    H145215   3.086   1.329   4.894  0.3438  1.5816  0.4120
 7908TIP3    H245216   3.059   1.309   5.042 -0.9731  0.0712 -0.0120
 7909TIP3   OH245217   0.243   1.780  13.754 -0.2810 -0.3175  0.1672
 7909TIP3    H145218   0.157   1.812  13.783  0.1846 -0.3100  1.5452
 7909TIP3    H245219   0.296   1.858  13.744 -0.2219 -0.3779  0.0038
 7910TIP3   OH245220   5.303   1.314  14.597  0.3854 -0.3750 -0.0635
 7910TIP3    H145221   5.316   1.270  14.681 -0.8537 -0.8610 -0.1084
 7910TIP3    H245222   5.249   1.390  14.618  1.0873  0.1848 -0.2466
 7911TIP3   OH245223   0.002   6.279  12.275  0.0935  0.1506  0.0454
 7911TIP3    H145224   0.034   6.191  12.295  0.3926  0.3322  0.3717
 7911TIP3    H245225   0.077   6.323  12.235 -0.8581 -0.5962 -2.6360
 7912TIP3   OH245226   5.981   3.854  16.894 -0.1709  0.1991 -0.4103
 7912TIP3    H145227   6.027   3.880  16.974 -1.0700 -1.5692  0.7157
 7912TIP3    H245228   6.051   3.847  16.828  0.4687  2.4196  0.0021
 7913TIP3   OH245229   4.225   0.198   0.881 -0.5849 -0.1789  0.2874
 7913TIP3    H145230   4.275   0.122   0.853 -1.4061 -0.9206  0.8046
 7913TIP3    H245231   4.257   0.270   0.827  0.4523 -0.8196  0.0503
 7914TIP3   OH245232   0.104   0.840  13.776  0.3570 -0.4264  0.0264
 7914TIP3    H145233   0.134   0.853  13.866 -0.0326  0.0658  0.0864
 7914TIP3    H245234   0.048   0.915  13.759 -0.0127 -0.8114 -0.4434
 7915TIP3   OH245235   6.722   6.626   3.848  0.2666 -0.1636 -0.1899
 7915TIP3    H145236   6.776   6.547   3.837  0.1232 -0.3022  0.0919
 7915TIP3    H245237   6.756   6.666   3.928  1.1273  0.6940 -0.9737
 7916TIP3   OH245238   2.664   2.265  13.402  0.0268 -0.6519  0.0162
 7916TIP3    H145239   2.728   2.317  13.450  0.8660 -0.2765 -1.4821
 7916TIP3    H245240   2.580   2.304  13.424  0.4473 -0.1428  0.7505
 7917TIP3   OH245241   1.633   4.979  15.219 -0.0132 -0.5759 -0.3858
 7917TIP3    H145242   1.714   4.937  15.245  0.3883 -0.9032 -2.1205
 7917TIP3    H245243   1.652   5.073  15.221  0.0564 -0.6056  0.3383
 7918TIP3   OH245244   2.089   1.594   0.113 -0.3522 -0.3111 -0.2755
 7918TIP3    H145245   2.174   1.636   0.111 -0.2706 -0.4140  0.9412
 7918TIP3    H245246   2.028   1.664   0.137 -0.5819 -0.2862 -0.9239
 7919TIP3   OH245247   6.181   3.883  12.646  0.3023  0.1463 -0.4329
 7919TIP3    H145248   6.199   3.836  12.564 -0.6712 -0.5756 -0.2341
 7919TIP3    H245249   6.091   3.861  12.667  0.7941 -0.2957  1.2510
 7920TIP3   OH245250   3.303   1.471  10.621  0.0563 -0.3266  0.2804
 7920TIP3    H145251   3.209   1.453  10.627  0.3354 -1.5597  1.2033
 7920TIP3    H245252   3.343   1.384  10.615  1.0643  0.2403 -1.3580
 7921TIP3   OH245253   1.922   2.043   4.849 -0.3289  0.6221 -0.7268
 7921TIP3    H145254   1.836   2.043   4.891  1.0458 -1.1376  2.2377
 7921TIP3    H245255   1.908   1.996   4.767 -1.8730 -1.1055  0.4854
 7922TIP3   OH245256   5.189   1.597   1.142 -0.4787 -0.4809  0.1303
 7922TIP3    H145257   5.253   1.536   1.104 -1.7484 -1.2921 -0.7454
 7922TIP3    H245258   5.227   1.684   1.127  0.5637 -0.9644 -0.0992
 7923TIP3   OH245259   6.256   5.558  12.799 -0.1922  0.4557 -0.5004
 7923TIP3    H145260   6.330   5.618  12.802  0.6458 -0.5694 -0.4553
 7923TIP3    H245261   6.218   5.562  12.886  0.9928 -0.4742  0.0713
 7924TIP3   OH245262   6.550   1.358   2.106 -0.5675  0.2090 -0.1206
 7924TIP3    H145263   6.466   1.335   2.145  0.4111 -3.4589  0.0597
 7924TIP3    H245264   6.531   1.374   2.014 -1.4864 -0.5986 -0.0756
 7925TIP3   OH245265   1.648   3.488  13.718  0.2120  0.1290 -0.0959
 7925TIP3    H145266   1.700   3.411  13.694 -0.3174 -0.4975  0.7750
 7925TIP3    H245267   1.561   3.453  13.739  0.1621  0.8835  0.9823
 7926TIP3   OH245268   5.929   4.459  16.007 -0.2891  0.1502  0.0170
 7926TIP3    H145269   5.934   4.554  16.018 -1.0851 -0.0600  2.5469
 7926TIP3    H245270   5.837   4.438  16.022  0.0845 -1.1537  0.5534
 7927TIP3   OH245271   4.093   2.678   0.174 -0.4688 -0.2408 -0.4236
 7927TIP3    H145272   4.073   2.598   0.223 -1.6473 -0.9466 -1.9951
 7927TIP3    H245273   4.115   2.647   0.086  1.8798  0.9761 -0.3135
 7928TIP3   OH245274   5.882   1.296  17.045  0.2658  0.3526 -0.5060
 7928TIP3    H145275   5.948   1.265  17.106  0.3502  2.4033  0.4523
 7928TIP3    H245276   5.809   1.324  17.100 -0.5230  0.2168 -1.4621
 7929TIP3   OH245277   5.399   2.125  16.169 -0.7042  0.3982  0.7185
 7929TIP3    H145278   5.457   2.088  16.235 -1.1661 -0.7022  0.5185
 7929TIP3    H245279   5.443   2.106  16.086 -1.8023 -1.3033  0.5042
 7930TIP3   OH245280   3.023   3.593   0.848 -0.2839 -0.0745  0.7397
 7930TIP3    H145281   2.983   3.554   0.926 -2.0368  1.9006  0.8509
 7930TIP3    H245282   3.075   3.665   0.881 -0.0610  0.0235  0.1833
 7931TIP3   OH245283   1.405   0.082  13.185 -0.3876 -0.8508 -0.2144
 7931TIP3    H145284   1.342   0.118  13.248 -0.5286 -0.2968 -0.6683
 7931TIP3    H245285   1.485   0.131  13.200 -0.7646  0.1224 -1.2727
 7932TIP3   OH245286   6.052   5.753  10.707 -0.0116  0.1909 -0.1592
 7932TIP3    H145287   6.080   5.794  10.789  0.7866 -0.1566 -0.2574
 7932TIP3    H245288   6.090   5.807  10.638  0.4797 -0.3255 -0.2946
 7933TIP3   OH245289   5.653   2.088   1.381  0.2700  0.3780  0.0704
 7933TIP3    H145290   5.627   2.077   1.473 -0.5303 -1.2890 -0.3179
 7933TIP3    H245291   5.743   2.119   1.384  0.4485 -0.2474  1.4261
 7934TIP3   OH245292   6.761   4.953   4.487  0.5206  0.1401 -0.0258
 7934TIP3    H145293   6.818   4.877   4.472  0.9008  0.2907  0.6407
 7934TIP3    H245294   6.812   5.010   4.544 -0.3239  0.2463  0.6310
 7935TIP3   OH245295   4.332   4.657   5.053 -0.3646  0.0563  0.0572
 7935TIP3    H145296   4.358   4.696   5.136  0.0863  1.5810 -0.7701
 7935TIP3    H245297   4.275   4.584   5.077 -1.0926  1.1212  1.6751
 7936TIP3   OH245298   3.860   4.516   1.093 -0.2314 -0.5394  0.1462
 7936TIP3    H145299   3.859   4.578   1.167  0.1215 -1.0003  0.5428
 7936TIP3    H245300   3.772   4.479   1.091  0.2166 -1.6855  1.3279
 7937TIP3   OH245301   1.257   6.747   3.454  0.0594  0.2625  0.3857
 7937TIP3    H145302   1.249   6.710   3.542 -3.0866  0.5284  0.2416
 7937TIP3    H245303   1.232   6.676   3.395  1.3505  0.3439 -0.2878
 7938TIP3   OH245304   4.442   0.831  11.082 -0.0384 -0.0845 -0.9678
 7938TIP3    H145305   4.396   0.915  11.091  0.5212  0.0930  0.2360
 7938TIP3    H245306   4.522   0.853  11.034  0.1273  0.0794 -0.6180
 7939TIP3   OH245307   5.596   0.804   4.541  0.6525 -0.4242 -0.5214
 7939TIP3    H145308   5.664   0.825   4.605 -1.4783 -0.7380  1.9555
 7939TIP3    H245309   5.554   0.888   4.522  1.3670 -0.3115 -1.6470
 7940TIP3   OH245310   0.308   4.762  15.690  0.3139 -0.3703 -0.4497
 7940TIP3    H145311   0.377   4.788  15.630 -0.7100  1.4203 -0.8996
 7940TIP3    H245312   0.340   4.789  15.776  0.4549 -0.1258 -0.5796
 7941TIP3   OH245313   6.370   4.426   0.975 -0.6562 -0.3183  0.4808
 7941TIP3    H145314   6.369   4.515   1.011  0.1318 -0.9918  2.2388
 7941TIP3    H245315   6.279   4.410   0.950 -1.1830  0.2896  1.9524
 7942TIP3   OH245316   3.858   2.860  16.098  0.2948  0.2496  0.0412
 7942TIP3    H145317   3.775   2.814  16.088 -0.5240  1.2230  2.1615
 7942TIP3    H245318   3.924   2.791  16.091 -0.8895 -1.2069  2.5447
 7943TIP3   OH245319   2.599   4.230   3.002 -0.4743 -0.3890  0.0927
 7943TIP3    H145320   2.673   4.285   2.974 -0.1986 -0.6447  0.3165
 7943TIP3    H245321   2.601   4.234   3.097 -0.8598 -0.2519  0.0941
 7944TIP3   OH245322   0.227   1.925   2.803 -0.0366 -0.2387 -0.0758
 7944TIP3    H145323   0.181   1.842   2.804  0.8336 -0.8151 -2.3664
 7944TIP3    H245324   0.316   1.904   2.833 -0.4395  0.3133  1.5423
 7945TIP3   OH245325   6.549   0.790  15.088  0.8631  0.4845  0.3638
 7945TIP3    H145326   6.482   0.840  15.135  1.2129 -0.3595  1.8146
 7945TIP3    H245327   6.501   0.739  15.023  0.0630 -0.2692  1.5366
 7946TIP3   OH245328   4.241   0.153  16.443  0.3449 -0.3697  0.2933
 7946TIP3    H145329   4.264   0.080  16.384 -0.4240 -0.2459 -0.1650
 7946TIP3    H245330   4.196   0.216  16.386  1.3511  0.6483  0.6036
 7947TIP3   OH245331   2.838   4.659   4.939  0.4278 -0.2850 -0.3731
 7947TIP3    H145332   2.854   4.753   4.933  0.9829 -0.2621  1.3617
 7947TIP3    H245333   2.921   4.619   4.914  0.4334 -0.3026 -0.3269
 7948TIP3   OH245334   3.004   2.709   0.447  0.3872  0.0658  0.0464
 7948TIP3    H145335   3.086   2.718   0.495  0.5513  1.1378 -0.4377
 7948TIP3    H245336   2.947   2.659   0.506  0.8795  0.6215  0.9989
 7949TIP3   OH245337   4.886   1.901   3.762  0.2006 -0.8091 -0.4090
 7949TIP3    H145338   4.930   1.910   3.678  0.1500 -0.6376 -0.4161
 7949TIP3    H245339   4.819   1.834   3.747 -0.0534 -0.5124 -0.6030
 7950TIP3   OH245340   4.541   2.609  15.338 -0.7619  0.0662  0.3446
 7950TIP3    H145341   4.513   2.635  15.426  0.7091  1.2983  0.4844
 7950TIP3    H245342   4.555   2.515  15.343 -1.3212  0.0280  1.2429
 7951TIP3   OH245343   3.813   4.873  14.095 -0.3306  0.7486 -0.4830
 7951TIP3    H145344   3.803   4.780  14.075  0.1997  0.8078 -1.0511
 7951TIP3    H245345   3.732   4.897  14.140 -0.0095 -0.2316  0.6296
 7952TIP3   OH245346   5.454   0.986   0.930 -0.2901 -0.0762 -0.2264
 7952TIP3    H145347   5.480   1.075   0.905 -1.1885 -0.1883 -1.6464
 7952TIP3    H245348   5.535   0.935   0.927  0.1686  0.6168  0.2504
 7953TIP3   OH245349   0.522   1.170  11.434  0.0349 -0.1254 -0.2470
 7953TIP3    H145350   0.590   1.103  11.421 -0.6801 -0.9367  0.1713
 7953TIP3    H245351   0.449   1.123  11.473 -0.6410  0.8243 -0.3565
 7954TIP3   OH245352   5.078   2.816   3.195  0.2383 -0.2639  0.3118
 7954TIP3    H145353   5.170   2.838   3.177  0.4855 -1.1307  0.4752
 7954TIP3    H245354   5.030   2.855   3.122  0.8986 -1.1066 -0.5907
 7955TIP3   OH245355   5.367   1.037   1.194 -0.0850 -0.6164 -0.5802
 7955TIP3    H145356   5.409   1.014   1.111 -0.2084 -0.3228 -0.7242
 7955TIP3    H245357   5.392   1.128   1.209 -1.7654 -0.0119 -1.3408
 7956TIP3   OH245358   0.500   1.093   5.437  0.3493 -0.5662 -0.9133
 7956TIP3    H145359   0.499   0.999   5.418 -1.8950 -0.2975 -2.2918
 7956TIP3    H245360   0.466   1.100   5.526  0.2761 -1.0440 -0.9021
 7957TIP3   OH245361   1.278   5.722  15.735 -0.0131  0.0600 -0.2052
 7957TIP3    H145362   1.361   5.688  15.703 -0.2626  0.0274 -0.8280
 7957TIP3    H245363   1.298   5.813  15.760 -0.4546  1.0807 -3.2666
 7958TIP3   OH245364   3.445   5.737   6.751  0.0809  0.1692  0.6709
 7958TIP3    H145365   3.452   5.658   6.697  2.2305  0.1826  0.8911
 7958TIP3    H245366   3.524   5.735   6.806 -1.8827  0.3096  3.5945
 7959TIP3   OH245367   4.346   6.511   3.227 -0.3235  0.4995  0.3538
 7959TIP3    H145368   4.371   6.512   3.320 -0.5811  0.3914  0.4244
 7959TIP3    H245369   4.358   6.421   3.200 -0.4708  0.4826  0.3434
 7960TIP3   OH245370   1.737   0.780   1.576  0.1545  0.1574 -0.7617
 7960TIP3    H145371   1.813   0.732   1.544  1.2073  0.2941  1.4569
 7960TIP3    H245372   1.761   0.872   1.567 -0.4313  0.2302 -1.6330
 7961TIP3   OH245373   5.713   1.176  10.755  0.2752  0.2598 -0.0481
 7961TIP3    H145374   5.726   1.197  10.663 -0.6439  0.5723 -0.1084
 7961TIP3    H245375   5.692   1.082  10.756 -1.5036  0.6423 -0.3296
 7962TIP3   OH245376   4.029   2.727  15.727 -0.2170 -0.1333 -0.2853
 7962TIP3    H145377   4.023   2.786  15.652 -0.6327  0.9361  0.5839
 7962TIP3    H245378   3.956   2.666  15.716 -0.5858  0.3457 -0.4665
 7963TIP3   OH245379   1.638   4.776  16.233 -0.0796 -0.3622  0.0298
 7963TIP3    H145380   1.573   4.718  16.193 -1.0114  0.0318  0.9569
 7963TIP3    H245381   1.722   4.744  16.199 -0.6177 -1.9310  0.1170
 7964TIP3   OH245382   1.968   5.535  12.437 -0.1701 -0.3335 -0.1421
 7964TIP3    H145383   2.001   5.450  12.466  2.1828 -0.2510 -2.4007
 7964TIP3    H245384   2.018   5.599  12.488 -2.4604 -0.2459  2.0966
 7965TIP3   OH245385   4.410   6.678   3.754 -0.5983 -0.4752  0.0694
 7965TIP3    H145386   4.404   6.709   3.844  0.1889 -4.3119  1.5035
 7965TIP3    H245387   4.320   6.652   3.731 -1.0759  1.8049 -0.8121
 7966TIP3   OH245388   5.373   6.322  11.421  0.3130  0.0041 -0.3203
 7966TIP3    H145389   5.295   6.275  11.394 -0.5982  1.0231  0.4740
 7966TIP3    H245390   5.437   6.304  11.353 -1.2300  0.7121 -2.0064
 7967TIP3   OH245391   1.739   5.652   1.384  0.0991  0.3303  0.1640
 7967TIP3    H145392   1.813   5.634   1.442  0.8110  0.3754 -0.7266
 7967TIP3    H245393   1.708   5.739   1.412  0.9714  0.7207 -0.0842
 7968TIP3   OH245394   5.722   4.879   1.083  0.2931  0.0210  0.4446
 7968TIP3    H145395   5.628   4.881   1.062  0.3841 -0.9799 -0.1298
 7968TIP3    H245396   5.752   4.968   1.068 -0.3859  0.1351 -0.2912
 7969TIP3   OH245397   3.770   5.522  12.782  0.0108  0.2291 -0.5245
 7969TIP3    H145398   3.817   5.446  12.817 -0.2903 -0.6604 -2.0284
 7969TIP3    H245399   3.694   5.485  12.737  0.2847  1.3567 -1.9532
 7970TIP3   OH245400   1.486   4.330   6.707 -0.5921 -0.1336  0.0084
 7970TIP3    H145401   1.427   4.374   6.646 -0.2612 -0.2836 -0.4241
 7970TIP3    H245402   1.428   4.294   6.774 -0.7308  2.3224  1.2525
 7971TIP3   OH245403   3.220   1.386  15.835  0.0356  0.5386 -0.0839
 7971TIP3    H145404   3.144   1.337  15.869  0.7887  0.8011  2.0784
 7971TIP3    H245405   3.276   1.319  15.795  0.7415 -0.3353  2.2524
 7972TIP3   OH245406   3.142   1.919  16.498 -0.0850 -0.3365 -0.3544
 7972TIP3    H145407   3.067   1.872  16.534  1.7117 -1.6361  1.8559
 7972TIP3    H245408   3.206   1.920  16.569  1.3056  2.3805 -1.5514
 7973TIP3   OH245409   4.770   5.685  12.298 -0.0600  0.3306  0.2982
 7973TIP3    H145410   4.768   5.776  12.269 -2.0244  0.2578  0.1415
 7973TIP3    H245411   4.826   5.686  12.376  0.1606  1.6005  0.1407
 7974TIP3   OH245412   0.269   3.678   4.686 -0.3581 -0.2413 -0.6964
 7974TIP3    H145413   0.324   3.663   4.764 -0.9567 -2.9771 -0.7674
 7974TIP3    H245414   0.180   3.676   4.719 -0.5843 -0.4035 -1.3193
 7975TIP3   OH245415   0.978   3.384   3.399  0.4313 -0.0970 -0.4122
 7975TIP3    H145416   1.021   3.359   3.317 -0.6475 -0.2874 -0.9273
 7975TIP3    H245417   0.902   3.327   3.404  0.2684  0.1995  0.5235
 7976TIP3   OH245418   0.054   2.220   3.458  0.0208  0.2499  0.0276
 7976TIP3    H145419   0.016   2.133   3.465 -0.4953  0.5522  1.0949
 7976TIP3    H245420  -0.010   2.278   3.500 -1.9551  1.8329 -4.7758
 7977TIP3   OH245421   2.541   3.633  16.866  0.2146 -0.4652  0.2908
 7977TIP3    H145422   2.478   3.705  16.858  1.2500  0.8031  2.7863
 7977TIP3    H245423   2.599   3.643  16.791  0.0127  1.0026  0.3179
 7978TIP3   OH245424   0.153   2.285   5.027  0.2121  0.2319 -0.2962
 7978TIP3    H145425   0.154   2.201   4.980 -0.7375 -0.0301  0.1337
 7978TIP3    H245426   0.082   2.334   4.987 -0.2380  0.2255  0.4732
 7979TIP3   OH245427   6.737   3.789   5.823 -0.1886 -0.2493  0.1262
 7979TIP3    H145428   6.674   3.717   5.818 -0.5228  0.0562 -0.1584
 7979TIP3    H245429   6.815   3.757   5.778  0.0947 -0.8708  1.0439
 7980TIP3   OH245430   6.101   2.003  14.429 -0.3544  0.4053  0.2058
 7980TIP3    H145431   6.030   1.967  14.375 -1.6960  2.8612  0.2743
 7980TIP3    H245432   6.067   1.998  14.518  1.3220 -2.3827  0.7558
 7981TIP3   OH245433   5.577   5.648  12.360  0.2900 -0.1518 -0.3195
 7981TIP3    H145434   5.520   5.606  12.295 -1.6268  1.3999  0.3193
 7981TIP3    H245435   5.570   5.592  12.437 -0.9023  0.3877 -0.0275
 7982TIP3   OH245436   2.365   0.464   1.605 -0.0192  0.1166  0.0561
 7982TIP3    H145437   2.352   0.495   1.695 -0.3182  3.4910 -1.0979
 7982TIP3    H245438   2.459   0.447   1.600 -0.0338 -0.3474  1.0814
 7983TIP3   OH245439   0.490   1.829   5.437  0.6845  0.0224 -0.1387
 7983TIP3    H145440   0.414   1.867   5.393  1.1247  1.6374  0.4501
 7983TIP3    H245441   0.491   1.871   5.523  1.3964 -1.0839  0.4077
 7984TIP3   OH245442   2.296   1.539   2.417  0.3849 -0.3222 -0.5467
 7984TIP3    H145443   2.281   1.630   2.441  1.1821 -0.3533  0.1224
 7984TIP3    H245444   2.391   1.531   2.412  0.3303 -1.1719 -0.3785
 7985TIP3   OH245445   6.228   5.111   0.567  0.3755 -0.1070 -0.1629
 7985TIP3    H145446   6.169   5.069   0.631  0.6958  0.7363  0.6919
 7985TIP3    H245447   6.277   5.038   0.529 -1.1594 -0.8153 -0.8311
 7986TIP3   OH245448   5.876   0.781  11.168  0.1106  0.4472 -0.3711
 7986TIP3    H145449   5.810   0.825  11.223 -1.1835 -0.5920 -1.0591
 7986TIP3    H245450   5.884   0.838  11.091  0.3698  0.8244 -0.0662
 7987TIP3   OH245451   1.900   0.539  16.282  0.6049  0.0825  0.1925
 7987TIP3    H145452   1.829   0.530  16.219 -0.9166 -0.1165  1.9027
 7987TIP3    H245453   1.869   0.604  16.345  2.0929  0.2901  0.7470
 7988TIP3   OH245454   1.054   1.924  16.987 -0.4231  0.0262  0.2301
 7988TIP3    H145455   0.975   1.880  17.021  0.6565 -0.7655  1.7733
 7988TIP3    H245456   1.122   1.857  16.992  0.4981  0.9083 -0.4791
 7989TIP3   OH245457   0.779   0.679  11.017  0.0361 -0.2757 -0.1417
 7989TIP3    H145458   0.787   0.587  10.995 -0.2896  0.0923 -1.8326
 7989TIP3    H245459   0.856   0.699  11.070  0.7741 -1.1938 -0.8719
 7990TIP3   OH245460   3.986   0.882  11.802  0.3619  0.1139 -0.6658
 7990TIP3    H145461   4.078   0.859  11.796  0.3259 -0.2217 -0.0261
 7990TIP3    H245462   3.958   0.846  11.886 -0.2830  0.4522 -0.7325
 7991TIP3   OH245463   0.647   3.655   6.511  0.2942 -0.1484  0.3289
 7991TIP3    H145464   0.669   3.576   6.560 -0.4200 -1.4413 -1.4155
 7991TIP3    H245465   0.719   3.667   6.450  1.4499  1.7670  1.9895
 7992TIP3   OH245466   0.534   3.212  15.960 -0.1688 -0.1256 -0.9016
 7992TIP3    H145467   0.517   3.256  16.043  0.9113 -1.6512  0.1579
 7992TIP3    H245468   0.589   3.273  15.911  0.4619  0.1542  0.1348
 7993TIP3   OH245469   1.308   0.281   0.188 -0.1151  1.0466  0.0988
 7993TIP3    H145470   1.394   0.272   0.148 -0.7411  1.3282 -1.3181
 7993TIP3    H245471   1.326   0.278   0.282  1.2432 -0.8680 -0.1805
 7994TIP3   OH245472   6.442   3.730  10.934  0.3590  0.2474 -0.3980
 7994TIP3    H145473   6.404   3.644  10.917  1.5756 -0.1389 -1.2450
 7994TIP3    H245474   6.372   3.780  10.975 -0.6194 -0.8893 -0.6732
 7995TIP3   OH245475   3.498   1.994  15.121  0.0624  0.4584 -0.1034
 7995TIP3    H145476   3.488   2.088  15.128 -1.5498  0.2990 -0.2916
 7995TIP3    H245477   3.517   1.978  15.029 -1.6588  0.4221 -0.4620
 7996TIP3   OH245478   2.670   1.887   1.416 -0.1323  0.1405 -0.0772
 7996TIP3    H145479   2.759   1.910   1.388 -0.2795  0.3990 -0.3373
 7996TIP3    H245480   2.620   1.968   1.405  0.4829  1.1604  3.7842
 7997TIP3   OH245481   2.492   3.140   4.407  0.2288  0.0926 -0.0454
 7997TIP3    H145482   2.537   3.223   4.388 -0.9173  0.9525  0.9149
 7997TIP3    H245483   2.420   3.165   4.465  1.5958 -1.9400  2.6855
 7998TIP3   OH245484   1.847   4.903  13.511  0.9520 -0.4574  0.6013
 7998TIP3    H145485   1.928   4.853  13.525  0.2889 -1.5978  0.4425
 7998TIP3    H245486   1.786   4.839  13.475 -0.5860 -0.0512  2.4106
 7999TIP3   OH245487   4.916   3.892   0.093 -0.2622  0.5452 -0.2358
 7999TIP3    H145488   4.909   3.985   0.072  0.1654  0.4958 -0.6013
 7999TIP3    H245489   4.833   3.854   0.065 -0.5749  0.8741  0.2290
 8000TIP3   OH245490   2.902   2.722  11.610  0.7539  0.1050  0.0871
 8000TIP3    H145491   2.994   2.706  11.588  0.6823 -0.4924  0.2105
 8000TIP3    H245492   2.853   2.676  11.541  0.5524  1.4444 -0.6764
 8001TIP3   OH245493   2.489   3.293   5.619  0.6292 -0.0611 -0.2790
 8001TIP3    H145494   2.535   3.333   5.692 -0.7315  0.5318  0.2536
 8001TIP3    H245495   2.440   3.220   5.657 -0.6325  0.6713 -0.4673
 8002TIP3   OH245496   2.604   3.247   2.316  0.1142  0.1076  0.8512
 8002TIP3    H145497   2.655   3.290   2.248 -1.7422  0.0805 -0.6268
 8002TIP3    H245498   2.647   3.270   2.398  1.4034  1.5538 -0.2101
 8003TIP3   OH245499   6.232   1.091  15.686  0.2468 -0.3702 -0.5568
 8003TIP3    H145500   6.191   1.153  15.746  0.7502 -0.2179 -0.3662
 8003TIP3    H245501   6.244   1.011  15.738 -0.4590 -0.6532 -0.8204
 8004TIP3   OH245502   4.970   5.432   2.086 -0.2726  0.2363  0.4042
 8004TIP3    H145503   5.025   5.411   2.011  0.5454  0.5125  0.9238
 8004TIP3    H245504   4.982   5.358   2.146 -0.4290  0.3209  0.5398
 8005TIP3   OH245505   6.646   5.343   2.108 -0.4138 -0.0194 -0.4235
 8005TIP3    H145506   6.691   5.262   2.083  0.6462  0.5785 -0.5023
 8005TIP3    H245507   6.609   5.324   2.194  0.9801 -0.1734  0.1668
 8006TIP3   OH245508   2.967   6.112   6.681  0.2917 -0.2537  0.1259
 8006TIP3    H145509   2.981   6.066   6.598  1.8968  0.0436  0.2127
 8006TIP3    H245510   2.875   6.096   6.702  0.6840 -3.1001 -0.0572
 8007TIP3   OH245511   0.499   5.943  15.039  0.0789  0.3504  0.3792
 8007TIP3    H145512   0.461   5.958  15.125  1.3087  1.3748  0.7548
 8007TIP3    H245513   0.584   5.986  15.042  0.5824 -0.5023 -1.0003
 8008TIP3   OH245514   6.712   0.071  10.944  0.0326 -0.4352  0.0897
 8008TIP3    H145515   6.796   0.094  10.982 -0.2946  0.7094  0.1394
 8008TIP3    H245516   6.647   0.115  10.999 -0.5043  0.1738 -1.0016
 8009TIP3   OH245517   6.307   4.963  16.775 -0.2121 -0.2967 -0.5696
 8009TIP3    H145518   6.303   5.042  16.722  0.3061  0.3641  0.3513
 8009TIP3    H245519   6.219   4.927  16.772 -0.4240  0.2575 -1.0863
 8010TIP3   OH245520   0.327   0.841  14.364  0.3244 -0.2699 -0.0095
 8010TIP3    H145521   0.262   0.771  14.353  0.9519 -0.6757 -1.2346
 8010TIP3    H245522   0.364   0.826  14.451  1.7373 -2.5835 -0.9508
 8011TIP3   OH245523   2.182   0.410  15.863 -0.2359 -0.0112 -0.0707
 8011TIP3    H145524   2.126   0.476  15.824 -3.3368 -2.4712 -0.0284
 8011TIP3    H245525   2.162   0.414  15.957  0.9851  0.2651  0.1885
 8012TIP3   OH245526   1.202   0.957   2.446  0.3982 -0.1703 -0.2368
 8012TIP3    H145527   1.119   0.911   2.431 -0.0632 -0.2439  2.2374
 8012TIP3    H245528   1.269   0.889   2.438  0.2049 -0.1641 -1.9876
 8013TIP3   OH245529   5.798   6.427   1.455 -0.1540  0.0057  0.0248
 8013TIP3    H145530   5.842   6.371   1.519 -1.0183  0.0014  0.6341
 8013TIP3    H245531   5.801   6.377   1.373 -0.1453 -0.5421  0.3578
 8014TIP3   OH245532   3.049   3.516  16.796 -0.0149  0.1385  0.2115
 8014TIP3    H145533   2.991   3.477  16.730  0.9016 -3.7647  1.5373
 8014TIP3    H245534   3.135   3.520  16.753 -0.1640  1.0252 -0.0162
 8015TIP3   OH245535   4.021   4.983  13.989 -0.0879 -0.3657 -0.1947
 8015TIP3    H145536   3.955   4.922  14.020  0.9907 -1.3160  0.2596
 8015TIP3    H245537   4.035   4.959  13.897  1.9724 -2.3273  0.5846
 8016TIP3   OH245538   1.438   4.630  15.874  0.5950  0.1784  0.0517
 8016TIP3    H145539   1.412   4.645  15.965 -0.5164  3.2890 -0.7134
 8016TIP3    H245540   1.404   4.706  15.826  0.3205 -1.8541 -3.1439
 8017TIP3   OH245541   1.671   3.511  13.056  0.4281 -0.2975  0.1606
 8017TIP3    H145542   1.724   3.470  12.988  0.3292  1.0043 -0.7170
 8017TIP3    H245543   1.704   3.600  13.062 -0.9092  0.1846  0.4224
 8018TIP3   OH245544   2.799   6.061   1.431  0.1200 -0.1808 -0.0951
 8018TIP3    H145545   2.796   6.008   1.510 -0.7040 -0.6104 -0.4063
 8018TIP3    H245546   2.863   6.018   1.375  0.2937 -0.1931  0.1117
 8019TIP3   OH245547   0.523   6.425   3.285  0.3310  0.2405 -0.5736
 8019TIP3    H145548   0.517   6.443   3.379 -0.8890 -1.0921 -0.3648
 8019TIP3    H245549   0.458   6.484   3.245 -1.3764 -1.3436 -0.2265
 8020TIP3   OH245550   5.265   0.716  16.524 -0.0549 -0.1483 -0.0647
 8020TIP3    H145551   5.332   0.649  16.536 -0.7240 -0.9459 -0.8370
 8020TIP3    H245552   5.183   0.675  16.552 -0.7069 -0.1523 -1.9674
 8021TIP3   OH245553   1.040   1.212  14.753  0.1248 -0.2971  0.4583
 8021TIP3    H145554   1.002   1.124  14.748  0.0435 -0.1719 -1.6545
 8021TIP3    H245555   0.965   1.270  14.738  0.3156  0.1176  1.1109
 8022TIP3   OH245556   1.293   4.672   2.626  0.5939  0.8402 -0.1202
 8022TIP3    H145557   1.254   4.757   2.644  0.8871  0.8775  0.3365
 8022TIP3    H245558   1.319   4.676   2.534 -1.5916  0.3752 -0.7805
 8023TIP3   OH245559   1.111   2.626  11.050  0.1214 -0.3425  0.1940
 8023TIP3    H145560   1.055   2.554  11.020  1.1854 -1.3034  0.4386
 8023TIP3    H245561   1.107   2.691  10.980  1.1132 -1.7582 -1.2264
 8024TIP3   OH245562   6.284   5.332  13.251 -0.2202  0.3741  0.2384
 8024TIP3    H145563   6.274   5.278  13.173  0.6111 -0.9445  1.0331
 8024TIP3    H245564   6.254   5.277  13.323 -1.1699  1.6494  0.8500
 8025TIP3   OH245565   4.397   1.656   5.022  0.0164  0.1540 -0.8440
 8025TIP3    H145566   4.478   1.638   5.069 -0.9798 -0.9999  0.4794
 8025TIP3    H245567   4.339   1.696   5.087 -0.8518 -0.0774 -1.4567
 8026TIP3   OH245568   3.851   1.379   3.070 -0.3025  0.0687  0.3229
 8026TIP3    H145569   3.911   1.305   3.077  1.2389  1.3977  1.4881
 8026TIP3    H245570   3.776   1.344   3.022 -0.0146 -2.4891  1.6712
 8027TIP3   OH245571   5.346   2.110  15.537  0.0450 -0.5035  0.3888
 8027TIP3    H145572   5.324   2.194  15.576 -0.4742 -1.2396  1.7226
 8027TIP3    H245573   5.281   2.098  15.468  1.9374  1.5381 -1.8203
 8028TIP3   OH245574   4.271   3.946  16.608  0.7650 -0.1336 -0.4426
 8028TIP3    H145575   4.181   3.914  16.615  0.5744  0.4682 -0.0508
 8028TIP3    H245576   4.322   3.886  16.661  0.3063  0.5975  0.8438
 8029TIP3   OH245577   5.375   1.186  13.744  0.2971  0.3139  0.0425
 8029TIP3    H145578   5.292   1.160  13.785  0.2675 -0.8317 -0.7315
 8029TIP3    H245579   5.425   1.226  13.815 -0.5774  0.2302  0.7165
 8030TIP3   OH245580   2.132   3.642  13.604  0.2030 -0.2999  0.3820
 8030TIP3    H145581   2.040   3.652  13.629  0.7551  0.4391  2.2156
 8030TIP3    H245582   2.172   3.597  13.678  1.5924  0.6201  0.2149
 8031TIP3   OH245583   1.168   3.620   4.250  0.5157  0.7999 -0.3925
 8031TIP3    H145584   1.243   3.597   4.196  1.3061  2.6282 -0.0911
 8031TIP3    H245585   1.112   3.542   4.247  2.5139 -0.6757 -0.4243
 8032TIP3   OH245586   1.148   3.015  13.669  0.0055  0.5322 -0.0496
 8032TIP3    H145587   1.101   3.097  13.654  1.2539  1.5689  1.6310
 8032TIP3    H245588   1.239   3.034  13.647  0.7104  0.2702  2.4370
 8033TIP3   OH245589   0.387   3.576   3.254  0.3003  0.3152 -0.1897
 8033TIP3    H145590   0.347   3.627   3.324  1.8857  0.8193  0.3767
 8033TIP3    H245591   0.457   3.526   3.297  0.6005 -0.1877 -1.2276
 8034TIP3   OH245592   5.037   4.189   2.826  0.4122 -0.2966 -0.0345
 8034TIP3    H145593   5.053   4.169   2.734 -0.9693  2.0491 -0.8235
 8034TIP3    H245594   4.945   4.213   2.830  0.4064 -0.5593  2.0027
 8035TIP3   OH245595   4.964   2.258  14.980  0.3825  0.3345 -0.4546
 8035TIP3    H145596   4.912   2.285  15.056 -2.8442  1.9023 -3.0758
 8035TIP3    H245597   4.995   2.170  15.002 -0.2361  0.8370  2.7325
 8036TIP3   OH245598   5.579   3.740   5.934 -0.4340 -0.0787 -0.0022
 8036TIP3    H145599   5.625   3.706   5.858 -2.3185 -0.9540 -0.7954
 8036TIP3    H245600   5.638   3.804   5.972 -0.2401  1.8010 -3.3030
 8037TIP3   OH245601   5.524   2.371   4.405 -0.3561  0.1601  0.0967
 8037TIP3    H145602   5.533   2.304   4.473  0.4193 -0.1931 -0.3568
 8037TIP3    H245603   5.432   2.397   4.410 -0.3111  0.1117  1.2594
 8038TIP3   OH245604   5.896   0.135  13.897  0.1677 -0.3745 -0.2901
 8038TIP3    H145605   5.968   0.177  13.850  0.7008 -1.5224 -0.5154
 8038TIP3    H245606   5.937   0.063  13.945 -0.7327 -0.6812  0.0335
 8039TIP3   OH245607   0.786   2.798   1.079  0.0700 -0.4808 -0.5307
 8039TIP3    H145608   0.782   2.778   1.172 -0.2957  0.5102 -0.3290
 8039TIP3    H245609   0.697   2.783   1.047  0.3387 -1.4152 -0.8456
 8040TIP3   OH245610   6.250   3.924   1.323  0.2132  0.6602 -0.5675
 8040TIP3    H145611   6.249   4.018   1.303 -1.0538  0.6053 -0.7980
 8040TIP3    H245612   6.196   3.885   1.254 -2.2623  0.1978  1.5533
 8041TIP3   OH245613   3.814   4.808  16.630 -0.4428 -0.3185  0.1557
 8041TIP3    H145614   3.847   4.849  16.550  2.5093 -0.8970  1.0437
 8041TIP3    H245615   3.844   4.864  16.701  0.3078 -1.9136  1.1240
 8042TIP3   OH245616   1.334   1.508   5.637 -0.1276 -0.3098  0.0446
 8042TIP3    H145617   1.343   1.451   5.713 -0.4976  1.0128  1.0978
 8042TIP3    H245618   1.406   1.571   5.645  0.6318 -0.9664 -1.4217
 8043TIP3   OH245619   3.500   4.043   2.467 -0.0502  0.1569 -0.2761
 8043TIP3    H145620   3.592   4.018   2.474  0.6410  2.5388 -0.2695
 8043TIP3    H245621   3.499   4.110   2.399 -1.6356  0.8143  0.3768
 8044TIP3   OH245622   2.904   3.594  13.975 -0.2786  0.1780  0.5298
 8044TIP3    H145623   2.870   3.546  14.050  0.5822 -0.2277  0.6671
 8044TIP3    H245624   2.976   3.646  14.011  0.8526 -0.8454 -0.1973
 8045TIP3   OH245625   0.018   5.154   4.645  0.3107  0.4568  0.1746
 8045TIP3    H145626   0.107   5.187   4.631 -0.0532  1.3697 -0.0223
 8045TIP3    H245627  -0.033   5.189   4.573 -0.4169  0.7193  0.8039
 8046TIP3   OH245628   6.167   1.436  11.812  0.1434 -0.3638 -0.2888
 8046TIP3    H145629   6.173   1.471  11.723 -0.2574 -0.8619 -0.5138
 8046TIP3    H245630   6.098   1.488  11.853  1.7216  1.2553  0.3849
 8047TIP3   OH245631   0.422   0.207   0.434 -0.3366 -0.0237 -0.0097
 8047TIP3    H145632   0.399   0.215   0.526 -1.3626 -2.1676 -0.0501
 8047TIP3    H245633   0.413   0.114   0.415  1.4608  0.1446 -1.8675
 8048TIP3   OH245634   3.680   4.041   3.470 -0.1209  0.7798  0.2982
 8048TIP3    H145635   3.639   4.075   3.390  0.5033 -0.8204 -0.7166
 8048TIP3    H245636   3.764   4.006   3.441 -0.8650 -1.9044  1.2517
 8049TIP3   OH245637   2.324   0.969  13.037  0.4890  0.2415  0.0921
 8049TIP3    H145638   2.307   0.955  13.130  2.0319  1.1058  0.5230
 8049TIP3    H245639   2.241   0.948  12.994 -0.1249 -0.5378  1.6191
 8050TIP3   OH245640   0.021   6.178  11.607  0.5702  0.5993  0.6938
 8050TIP3    H145641  -0.052   6.240  11.601  1.1802  1.3433  0.9709
 8050TIP3    H245642  -0.005   6.106  11.550 -0.8668  0.3746  1.6061
 8051TIP3   OH245643   1.186   5.895  13.495  0.5862  0.7354  0.4059
 8051TIP3    H145644   1.240   5.855  13.427 -1.5677 -2.4986  0.4627
 8051TIP3    H245645   1.130   5.957  13.447 -0.0174 -0.5675 -0.6081
 8052TIP3   OH245646   4.063   2.599  10.418  0.5814 -0.0689  0.0983
 8052TIP3    H145647   4.082   2.693  10.413  1.2230 -0.2365 -0.9277
 8052TIP3    H245648   3.981   2.594  10.466  0.0464  1.0955 -0.6415
 8053TIP3   OH245649   6.020   0.608   1.325 -0.0585 -0.3006 -0.0326
 8053TIP3    H145650   6.029   0.618   1.230  0.6332 -2.0759 -0.1653
 8053TIP3    H245651   5.981   0.521   1.336 -1.3184  0.4201  1.2625
 8054TIP3   OH245652   5.624   5.835  11.720 -0.3110  0.1412 -0.4322
 8054TIP3    H145653   5.559   5.791  11.666 -1.8390 -0.4308  1.8093
 8054TIP3    H245654   5.589   5.924  11.732 -0.2704  0.0919  0.0679
 8055TIP3   OH245655   2.544   2.010  17.041  0.1631  0.4010  0.6551
 8055TIP3    H145656   2.579   2.093  17.010  0.9162 -0.3011 -0.3907
 8055TIP3    H245657   2.603   1.984  17.112 -0.7903  1.3494  1.8268
 8056TIP3   OH245658   1.946   6.757   4.458 -0.0302  1.0296  0.7529
 8056TIP3    H145659   1.936   6.676   4.507  2.3870 -0.4349 -1.1062
 8056TIP3    H245660   2.026   6.797   4.493  1.8147 -0.1073 -2.0170
 8057TIP3   OH245661   3.320   4.833  15.331 -0.8073  1.2836  0.5084
 8057TIP3    H145662   3.361   4.897  15.389  0.1110  1.8967 -0.8071
 8057TIP3    H245663   3.319   4.874  15.245  1.6811 -1.2353 -0.8015
 8058TIP3   OH245664   6.157   3.066  14.294 -0.0666 -0.3046 -0.1643
 8058TIP3    H145665   6.165   3.101  14.383  1.5405  0.4049 -0.5744
 8058TIP3    H245666   6.100   3.129  14.249 -1.8845 -1.3184  0.6873
 8059TIP3   OH245667   0.282   3.883   5.644  0.0495 -0.0076 -0.5144
 8059TIP3    H145668   0.226   3.808   5.625 -1.2531  1.1226 -1.1783
 8059TIP3    H245669   0.338   3.892   5.567  1.1635 -1.1281  0.1443
 8060TIP3   OH245670   3.116   6.727  17.081 -0.0609  0.1098 -0.3716
 8060TIP3    H145671   3.169   6.806  17.067 -1.4001  1.1138  0.0925
 8060TIP3    H245672   3.158   6.684  17.155 -0.5754  1.5210  0.7656
 8061TIP3   OH245673   6.807   5.345   5.108 -0.5092 -0.3737  0.1501
 8061TIP3    H145674   6.786   5.304   5.192 -1.7759 -0.8356 -0.3814
 8061TIP3    H245675   6.782   5.280   5.042  1.9446 -0.6564 -0.5605
 8062TIP3   OH245676   1.887   1.579  16.931  0.8139  0.2110  0.0590
 8062TIP3    H145677   1.933   1.615  16.855  0.5329  1.1014  0.3027
 8062TIP3    H245678   1.795   1.596  16.913  0.7007 -0.1523  0.3058
 8063TIP3   OH245679   0.780   4.653   3.396  0.5871  0.3440  0.6040
 8063TIP3    H145680   0.741   4.651   3.483  0.0367  2.0201  0.3952
 8063TIP3    H245681   0.871   4.626   3.411  0.2668 -0.2616  1.5523
 8064TIP3   OH245682   5.423   1.671  11.530  0.1032  0.2674  0.2161
 8064TIP3    H145683   5.399   1.761  11.509  2.0528  1.0992  1.4120
 8064TIP3    H245684   5.394   1.659  11.621 -0.5273 -0.4603 -0.0744
 8065TIP3   OH245685   0.933   2.789  16.542  0.5226  0.5201 -0.2490
 8065TIP3    H145686   0.998   2.776  16.611  0.6116  0.6709 -0.3034
 8065TIP3    H245687   0.983   2.825  16.469  0.4244  0.3784 -0.3839
 8066TIP3   OH245688   5.936   2.923  16.420  0.5930 -0.4081 -0.5757
 8066TIP3    H145689   5.864   2.910  16.482 -0.0694 -0.0514 -1.2596
 8066TIP3    H245690   5.933   3.017  16.399  2.6411  0.0804  1.0454
 8067TIP3   OH245691   6.679   0.625   4.874  1.0112 -0.1185  0.3243
 8067TIP3    H145692   6.618   0.561   4.910 -0.1566 -0.2531 -1.7854
 8067TIP3    H245693   6.631   0.666   4.802  2.1150  2.4059  0.9703
 8068TIP3   OH245694   3.214   2.370   5.343  0.1262  0.6946 -0.5002
 8068TIP3    H145695   3.266   2.290   5.333 -0.2859  0.7121 -3.2854
 8068TIP3    H245696   3.124   2.342   5.325  0.2242  2.1008 -3.3617
 8069TIP3   OH245697   5.324   6.077  13.945  0.0567  0.1076  0.4595
 8069TIP3    H145698   5.416   6.088  13.970  0.1813  0.0249  0.0395
 8069TIP3    H245699   5.298   5.995  13.986  0.2424 -0.0007  0.3596
 8070TIP3   OH245700   1.706   3.964  11.396 -0.8641 -0.3054 -0.4241
 8070TIP3    H145701   1.721   3.955  11.302  0.1587 -0.1719 -0.2837
 8070TIP3    H245702   1.696   3.874  11.428 -2.6870 -0.2910 -0.8741
 8071TIP3   OH245703   6.782   2.687   1.434 -0.0935  0.6657  0.0848
 8071TIP3    H145704   6.718   2.693   1.364 -1.1017 -0.9576  0.8231
 8071TIP3    H245705   6.752   2.613   1.488  1.4401  0.9668  1.4104
 8072TIP3   OH245706   3.533   0.271   2.410 -0.0657  0.5535  0.4849
 8072TIP3    H145707   3.438   0.256   2.405  0.2549 -1.6755  0.7010
 8072TIP3    H245708   3.562   0.217   2.484  1.2984  1.7520  0.8621
 8073TIP3   OH245709   4.731   2.389   3.369 -0.4857  0.0676 -0.0760
 8073TIP3    H145710   4.673   2.349   3.434 -0.1326 -0.1467  0.1097
 8073TIP3    H245711   4.792   2.442   3.420 -1.1817  1.1521 -0.3470
 8074TIP3   OH245712   1.321   4.530  13.843  0.3643  0.2428  0.2880
 8074TIP3    H145713   1.389   4.591  13.814 -0.5534  0.7064 -0.9690
 8074TIP3    H245714   1.292   4.564  13.927  1.2048  0.4404  0.4974
 8075TIP3   OH245715   5.320   0.634   3.812 -0.3739 -0.0193  0.1719
 8075TIP3    H145716   5.238   0.593   3.784 -0.5400  0.4654 -0.0463
 8075TIP3    H245717   5.382   0.561   3.820 -1.0240 -0.4909  1.0610
 8076TIP3   OH245718   2.753   2.369   0.298  0.3093  0.3367  0.1002
 8076TIP3    H145719   2.730   2.328   0.382 -0.5920 -0.7649 -0.6866
 8076TIP3    H245720   2.786   2.456   0.323  0.3254 -0.0951  1.6220
 8077TIP3   OH245721   0.294   4.999  14.485 -0.0780 -0.1852  0.0689
 8077TIP3    H145722   0.311   5.061  14.414  0.4790 -0.4637 -0.0451
 8077TIP3    H245723   0.240   5.048  14.547  0.1354  0.3272 -0.1481
 8078TIP3   OH245724   0.808   3.947   5.836 -0.2707  0.7206  0.4656
 8078TIP3    H145725   0.820   4.029   5.885  0.0423 -0.6612  2.7691
 8078TIP3    H245726   0.841   3.879   5.895 -0.4535 -1.0714 -1.4531
 8079TIP3   OH245727   3.525   2.408  11.399 -0.4358  0.4454 -0.2382
 8079TIP3    H145728   3.540   2.501  11.385  0.6546  0.3488  0.2449
 8079TIP3    H245729   3.560   2.366  11.320  0.6554  0.3255  0.2937
 8080TIP3   OH245730   5.132   6.083   4.202 -0.0300  0.0529 -0.0810
 8080TIP3    H145731   5.105   6.120   4.118 -1.4675  0.8909  0.7275
 8080TIP3    H245732   5.207   6.136   4.229  0.8030 -0.5958 -1.1043
 8081TIP3   OH245733   0.859   5.171  14.081  0.1579 -0.0059 -0.6561
 8081TIP3    H145734   0.902   5.135  14.003  1.3212  0.6117 -0.3075
 8081TIP3    H245735   0.879   5.108  14.150 -1.2387 -0.7764 -0.9473
 8082TIP3   OH245736   4.770   1.878   5.704  0.2434  0.6529  0.3180
 8082TIP3    H145737   4.681   1.912   5.696  0.3106  0.9087  0.6327
 8082TIP3    H245738   4.811   1.933   5.771  0.3396 -0.0758  0.8613
 8083TIP3   OH245739   0.812   5.011   2.979  0.3471 -0.9336  0.1880
 8083TIP3    H145740   0.786   5.014   2.887  0.2248 -0.1156  0.2452
 8083TIP3    H245741   0.758   4.942   3.017 -1.9494  0.8982  0.3571
 8084TIP3   OH245742   0.514   4.058  14.941  0.1289  0.1436 -0.5283
 8084TIP3    H145743   0.548   4.127  14.998 -1.0456  1.3886 -1.3117
 8084TIP3    H245744   0.426   4.040  14.975 -0.8964  1.4586 -2.3850
 8085TIP3   OH245745   3.247   6.802  15.606 -0.7144 -0.3046  0.6853
 8085TIP3    H145746   3.275   6.790  15.515  0.2007  1.4663  0.7216
 8085TIP3    H245747   3.153   6.821  15.599 -0.8396 -1.0786  0.1830
 8086TIP3   OH245748   1.903   4.326  13.379  0.4393  0.1979  0.1725
 8086TIP3    H145749   1.931   4.271  13.452  0.6589  0.9866  0.6965
 8086TIP3    H245750   1.941   4.284  13.301 -0.4329 -1.0706  0.4200
 8087TIP3   OH245751   4.873   1.222   4.232 -0.1907  0.2438 -0.4784
 8087TIP3    H145752   4.888   1.285   4.302  0.6647 -0.5917  0.1194
 8087TIP3    H245753   4.846   1.142   4.277 -0.8482  0.0529 -1.1929
 8088TIP3   OH245754   4.321   2.746   6.508  0.1533  0.1464  0.1155
 8088TIP3    H145755   4.258   2.816   6.496  1.5924  1.2517 -1.2325
 8088TIP3    H245756   4.274   2.666   6.482 -1.0258  0.7930  0.2403
 8089TIP3   OH245757   1.799   4.228   2.787  0.1493 -0.7961 -0.1330
 8089TIP3    H145758   1.878   4.221   2.734 -0.1614 -0.1884 -0.6909
 8089TIP3    H245759   1.730   4.251   2.724 -0.2644 -0.2827  0.5029
 8090TIP3   OH245760   3.479   4.769   3.070 -0.2927 -0.1359 -0.7981
 8090TIP3    H145761   3.426   4.786   3.147  0.6727  0.3313 -0.2243
 8090TIP3    H245762   3.505   4.677   3.077 -1.1565 -0.4083 -1.1653
 8091TIP3   OH245763   0.643   4.950  15.878  0.3471 -0.0920 -0.5683
 8091TIP3    H145764   0.553   4.976  15.859  0.7667  2.0202  0.1461
 8091TIP3    H245765   0.641   4.854  15.880 -1.5619 -0.1105 -2.0348
 8092TIP3   OH245766   3.491   1.976   4.265  0.3804  0.4525 -0.2192
 8092TIP3    H145767   3.512   1.981   4.358  0.0204 -1.2756 -0.0335
 8092TIP3    H245768   3.404   1.937   4.261 -0.9717  3.4131 -1.1860
 8093TIP3   OH245769   1.492   1.312  11.561  0.1541 -0.0386  0.5776
 8093TIP3    H145770   1.402   1.334  11.584  0.1858  0.3455  0.3238
 8093TIP3    H245771   1.485   1.230  11.512 -0.0274 -0.1770  0.8339
 8094TIP3   OH245772   6.723   1.284  13.355 -0.3117  0.3920 -0.2063
 8094TIP3    H145773   6.778   1.305  13.280  0.3607 -1.8112 -0.3551
 8094TIP3    H245774   6.778   1.231  13.412 -1.0686  1.3822  1.4894
 8095TIP3   OH245775   5.002   5.422  15.182  0.2845 -0.2315  0.1069
 8095TIP3    H145776   5.093   5.421  15.153  0.5097  1.5581  0.6768
 8095TIP3    H245777   4.955   5.469  15.114 -0.2415 -1.2375 -0.2313
 8096TIP3   OH245778   1.895   5.412   5.314  0.1867  0.0832  0.6436
 8096TIP3    H145779   1.920   5.346   5.379  0.8040  0.3368  0.6676
 8096TIP3    H245780   1.886   5.493   5.365 -2.5101 -0.3724  0.9444
 8097TIP3   OH245781   1.241   5.944  15.314  0.1565  0.0517 -0.2684
 8097TIP3    H145782   1.206   5.857  15.332  0.8098 -1.0368 -3.7621
 8097TIP3    H245783   1.165   6.002  15.319 -0.7574 -1.1180 -0.3452
 8098TIP3   OH245784   5.439   5.368   6.557  0.1746  0.3178  0.0386
 8098TIP3    H145785   5.477   5.425   6.490  3.3091 -1.1497  0.5023
 8098TIP3    H245786   5.409   5.291   6.509 -1.5178  1.0819 -0.1969
 8099TIP3   OH245787   5.549   5.995   2.811 -0.1247  0.3886  0.2469
 8099TIP3    H145788   5.486   6.007   2.740  1.1908  0.5247 -0.8960
 8099TIP3    H245789   5.574   6.084   2.836 -0.1562  0.3260  0.5093
 8100TIP3   OH245790   5.259   0.275   1.697 -0.3752 -0.4479  0.2194
 8100TIP3    H145791   5.208   0.299   1.775 -1.1136 -0.6963 -0.1792
 8100TIP3    H245792   5.325   0.344   1.690  0.0197 -0.7010  1.3611
 8101TIP3   OH245793   2.870   6.080   2.801 -0.1288 -0.5227  0.3996
 8101TIP3    H145794   2.830   6.155   2.758  0.6716 -0.0775  0.4168
 8101TIP3    H245795   2.939   6.118   2.856  1.5961 -1.4119 -1.1079
 8102TIP3   OH245796   1.721   5.820  15.020  1.0545  0.6378 -0.2589
 8102TIP3    H145797   1.660   5.749  15.002  1.9488 -0.1478 -0.2695
 8102TIP3    H245798   1.672   5.882  15.074  0.2821 -0.0062 -0.2178
 8103TIP3   OH245799   3.282   3.409   2.827  0.3022 -0.1383 -0.0706
 8103TIP3    H145800   3.208   3.361   2.863 -0.0044 -0.6197 -1.3563
 8103TIP3    H245801   3.358   3.371   2.870 -0.0091 -1.2060 -0.4603
 8104TIP3   OH245802   6.672   5.257  15.598 -0.5674 -0.0442 -0.1484
 8104TIP3    H145803   6.662   5.162  15.607 -0.4301 -0.2566 -2.0669
 8104TIP3    H245804   6.600   5.283  15.540 -1.8614  1.3469  2.0013
 8105TIP3   OH245805   4.022   3.052  11.020  0.2244 -0.1012  0.1600
 8105TIP3    H145806   4.081   3.074  10.948  1.1143 -2.5246  0.1069
 8105TIP3    H245807   3.939   3.029  10.977 -0.0821  1.0494  0.1013
 8106TIP3   OH245808   2.408   5.377   3.847 -0.3308 -0.4785 -0.4264
 8106TIP3    H145809   2.418   5.295   3.895 -1.7423 -0.2073  0.3504
 8106TIP3    H245810   2.344   5.427   3.897  0.5010  1.0965 -0.9117
 8107TIP3   OH245811   0.006   6.415  13.757 -0.5128  0.1381  0.7694
 8107TIP3    H145812  -0.056   6.367  13.813  1.4325 -1.3673  1.7127
 8107TIP3    H245813   0.091   6.377  13.779  0.6257  1.4941 -1.2103
 8108TIP3   OH245814   6.094   0.791   1.484  0.1288  0.1586 -0.1576
 8108TIP3    H145815   6.054   0.876   1.465 -1.7201 -0.6516  0.0199
 8108TIP3    H245816   6.059   0.732   1.417  0.9540 -0.5899  0.0649
 8109TIP3   OH245817   1.151   2.659  15.504 -0.2634  0.1164  0.2784
 8109TIP3    H145818   1.167   2.662  15.409  0.1283 -0.6089  0.3247
 8109TIP3    H245819   1.105   2.741  15.522  1.9996  1.5147 -0.1094
 8110TIP3   OH245820   4.392   5.184   6.237 -0.4557 -0.0211  0.4994
 8110TIP3    H145821   4.434   5.257   6.283 -0.1832 -0.6166  1.2318
 8110TIP3    H245822   4.359   5.128   6.308 -2.4786  0.4302 -0.0821
 8111TIP3   OH245823   3.791   2.401  12.643 -0.3084 -0.0675 -0.3467
 8111TIP3    H145824   3.831   2.423  12.559 -1.7419 -1.1877 -1.3507
 8111TIP3    H245825   3.839   2.323  12.672  1.3973  1.3514  0.7834
 8112TIP3   OH245826   6.151   0.457  12.087 -0.8689  0.4668 -0.2611
 8112TIP3    H145827   6.164   0.536  12.035 -1.5712  0.8521  0.1474
 8112TIP3    H245828   6.173   0.482  12.176  2.2472 -0.7124 -0.6446
 8113TIP3   OH245829   5.085   0.494  16.527  0.1044 -0.0448 -1.0876
 8113TIP3    H145830   5.142   0.426  16.492  0.0145 -0.3635 -0.6251
 8113TIP3    H245831   5.034   0.450  16.596  1.1645  0.8532  0.3108
 8114TIP3   OH245832   6.101   0.285   1.353  0.5166  0.0119  0.0701
 8114TIP3    H145833   6.112   0.337   1.432  0.0657  1.3366 -0.7114
 8114TIP3    H245834   6.020   0.237   1.366  0.4550  0.2162  0.4249
 8115TIP3   OH245835   4.526   4.786   1.894  0.7122 -0.4777  0.4590
 8115TIP3    H145836   4.513   4.810   1.986  0.1722  2.5647 -0.3470
 8115TIP3    H245837   4.621   4.791   1.881  0.6712  0.5417  0.5058
 8116TIP3   OH245838   4.693   6.085  16.775  0.2566  0.3842  0.5202
 8116TIP3    H145839   4.738   6.129  16.847 -0.4374  0.9066  0.6440
 8116TIP3    H245840   4.758   6.082  16.704  0.3394  1.5725  0.5305
 8117TIP3   OH245841   0.109   4.705  14.336  0.4797 -0.6332  0.1862
 8117TIP3    H145842   0.051   4.645  14.289  0.0713  1.8257 -2.5916
 8117TIP3    H245843   0.050   4.761  14.387  0.7311 -1.1094  1.0190
 8118TIP3   OH245844   4.316   2.510  16.073 -0.6769 -0.0412 -0.0151
 8118TIP3    H145845   4.281   2.543  16.156 -0.7317 -1.6139  0.5951
 8118TIP3    H245846   4.407   2.489  16.092 -1.4532 -3.1836  0.4716
 8119TIP3   OH245847   3.128   4.260  13.837  0.1241 -0.2474 -0.1542
 8119TIP3    H145848   3.080   4.342  13.846  0.2917  0.3390 -3.7921
 8119TIP3    H245849   3.095   4.222  13.755 -0.3545 -4.0939  1.7097
 8120TIP3   OH245850   4.576   6.565   1.355 -0.1947 -0.3335 -0.3427
 8120TIP3    H145851   4.644   6.498   1.358  0.5592  0.4402 -0.0803
 8120TIP3    H245852   4.559   6.578   1.261 -2.1644 -2.7106 -0.3521
 8121TIP3   OH245853   1.453   5.972   3.302  0.1650  0.2774  0.0873
 8121TIP3    H145854   1.402   5.969   3.221  0.4749  0.8530 -0.1308
 8121TIP3    H245855   1.432   5.890   3.347 -1.3093  0.7291  0.2238
 8122TIP3   OH245856   3.719   3.352   1.481 -0.0199 -0.0653 -0.2283
 8122TIP3    H145857   3.768   3.356   1.399  2.1709  0.6765  1.0600
 8122TIP3    H245858   3.766   3.288   1.534 -1.5202 -0.6691  0.3926
 8123TIP3   OH245859   2.111   3.538   5.851  0.3749  0.1254 -0.1451
 8123TIP3    H145860   2.094   3.503   5.938  1.0532  1.5171  0.5573
 8123TIP3    H245861   2.199   3.508   5.829  0.4102  0.2187 -0.1306
 8124TIP3   OH245862   6.694   4.356  16.294 -0.5183  0.3016 -0.1137
 8124TIP3    H145863   6.642   4.318  16.366  1.8212  0.4044  1.6805
 8124TIP3    H245864   6.749   4.284  16.264 -0.7287  0.5498 -1.0933
 8125TIP3   OH245865   2.897   2.692   5.539  0.7877 -0.1843 -0.8342
 8125TIP3    H145866   2.975   2.746   5.528  0.2758  0.6026 -0.6804
 8125TIP3    H245867   2.900   2.664   5.631  1.4931 -1.1130 -1.1388
 8126TIP3   OH245868   1.346   5.773   4.154  0.7156 -0.2355 -0.0143
 8126TIP3    H145869   1.364   5.713   4.227  2.3600  0.5851  0.2775
 8126TIP3    H245870   1.252   5.793   4.162  0.5098 -1.4870  0.8455
 8127TIP3   OH245871   0.937   2.680  11.874  0.5002 -0.2362  0.5286
 8127TIP3    H145872   0.964   2.752  11.817  0.7356 -0.2468  0.6240
 8127TIP3    H245873   0.850   2.656  11.843  0.1083  0.5907  0.9771
 8128TIP3   OH245874   0.935   0.827  12.586  0.4787 -0.5579  0.1589
 8128TIP3    H145875   0.905   0.839  12.676  0.6098  2.5191 -0.1515
 8128TIP3    H245876   0.859   0.792  12.540 -0.5146  0.6496  0.8599
 8129TIP3   OH245877   3.551   1.787  15.393 -0.3730  0.5225  0.1278
 8129TIP3    H145878   3.498   1.707  15.398  2.7480 -1.7503 -1.5518
 8129TIP3    H245879   3.530   1.825  15.308 -2.7171  2.1682  1.4054
 8130TIP3   OH245880   5.807   3.408  16.802 -0.1273  0.0057 -0.0047
 8130TIP3    H145881   5.796   3.473  16.733 -1.0510  0.6040  0.6894
 8130TIP3    H245882   5.831   3.459  16.879 -1.0472 -0.4441  0.5896
 8131TIP3   OH245883   4.791   0.758  12.910 -0.1539 -0.3183 -0.3342
 8131TIP3    H145884   4.800   0.853  12.910  0.1757 -0.2887  2.7298
 8131TIP3    H245885   4.881   0.726  12.916 -0.4439 -0.7014  2.3878
 8132TIP3   OH245886   1.060   4.358  12.238 -0.2056  0.0643  0.8647
 8132TIP3    H145887   1.013   4.275  12.236  0.1730 -0.1436  0.5508
 8132TIP3    H245888   0.992   4.425  12.224 -0.1697 -0.3307 -1.3706
 8133TIP3   OH245889   0.321   1.684  12.484 -0.3913  0.1346  0.1547
 8133TIP3    H145890   0.367   1.689  12.400 -0.1263  0.9289  0.3412
 8133TIP3    H245891   0.315   1.590  12.503  0.7700  0.0111 -0.0745
 8134TIP3   OH245892   1.754   0.210   2.457 -0.1526  0.1597  0.6306
 8134TIP3    H145893   1.712   0.125   2.441  0.5692 -0.1450  0.3245
 8134TIP3    H245894   1.736   0.260   2.378 -0.7166  0.3526  0.8774
 8135TIP3   OH245895   2.573   6.168  12.051  0.0678  0.0034 -0.0480
 8135TIP3    H145896   2.593   6.074  12.045  0.5368  0.1584 -1.0980
 8135TIP3    H245897   2.526   6.187  11.969  0.3077  0.7679 -0.0093
 8136TIP3   OH245898   5.289   2.793   4.651  0.2724  0.2986  0.6237
 8136TIP3    H145899   5.286   2.884   4.680 -0.7108  0.0551  1.3339
 8136TIP3    H245900   5.329   2.745   4.724 -4.6029 -0.7315  2.8791
 8137TIP3   OH245901   1.270   2.481   2.404 -0.4564 -0.4796 -0.6342
 8137TIP3    H145902   1.221   2.563   2.399 -1.3642 -1.0619 -1.4667
 8137TIP3    H245903   1.213   2.423   2.455  0.7933 -0.1703  1.1280
 8138TIP3   OH245904   0.047   5.515  14.094 -0.1222 -0.0440 -0.6029
 8138TIP3    H145905   0.094   5.596  14.113  1.6069 -0.7206 -1.8616
 8138TIP3    H245906   0.047   5.467  14.177  1.0886  0.1254 -0.5054
 8139TIP3   OH245907   5.997   2.405   1.536  0.0537 -0.0117  0.2035
 8139TIP3    H145908   5.909   2.437   1.517 -0.5425 -0.2411  2.3839
 8139TIP3    H245909   6.048   2.485   1.554  0.1957  0.0945 -0.6508
 8140TIP3   OH245910   4.460   1.471  11.121 -0.7060  0.7887  0.1789
 8140TIP3    H145911   4.510   1.452  11.201 -0.1623 -1.1796 -0.6199
 8140TIP3    H245912   4.527   1.489  11.055 -1.0552 -0.8142 -0.6318
 8141TIP3   OH245913   2.678   1.196   2.413 -0.2951 -0.2521 -0.5010
 8141TIP3    H145914   2.724   1.197   2.497  0.4793  0.5578 -0.9227
 8141TIP3    H245915   2.648   1.286   2.401  0.8893  0.0139 -1.7709
 8142TIP3   OH245916   4.300   4.661   5.711  0.6938 -0.6903  0.2160
 8142TIP3    H145917   4.367   4.642   5.645 -0.2871 -0.5159 -0.8353
 8142TIP3    H245918   4.229   4.599   5.693  0.4334 -0.6733  1.1393
 8143TIP3   OH245919   5.503   3.726   6.540  0.3982  0.5973 -0.1669
 8143TIP3    H145920   5.480   3.633   6.543 -1.1071  0.9293 -0.8924
 8143TIP3    H245921   5.523   3.749   6.631 -2.0837  0.2448  0.5249
 8144TIP3   OH245922   0.593   3.354   0.727  0.8119  0.7850  0.1226
 8144TIP3    H145923   0.581   3.277   0.672 -0.9583 -0.1754  1.7766
 8144TIP3    H245924   0.650   3.324   0.798  0.7070  1.2076  0.3876
 8145TIP3   OH245925   5.306   5.151   1.903  0.6156 -0.0373  0.5486
 8145TIP3    H145926   5.282   5.061   1.927  0.1572  0.1442  0.7794
 8145TIP3    H245927   5.360   5.141   1.825  1.9020 -0.6165  1.4929
 8146TIP3   OH245928   5.573   1.613   6.562  0.0520 -0.3371  0.2242
 8146TIP3    H145929   5.625   1.612   6.642  1.4629  0.8523 -0.6391
 8146TIP3    H245930   5.555   1.521   6.543  0.3005 -0.6554  1.5279
 8147TIP3   OH245931   4.714   4.542   5.636  0.0434 -0.1435 -0.1583
 8147TIP3    H145932   4.704   4.533   5.730 -3.3745 -1.4254 -0.5572
 8147TIP3    H245933   4.757   4.462   5.608  0.0573 -0.2593  0.1961
 8148TIP3   OH245934   5.714   5.388  13.809  0.2579 -0.1837 -0.5656
 8148TIP3    H145935   5.779   5.368  13.876 -1.2084  0.1921  0.9977
 8148TIP3    H245936   5.665   5.306  13.797  0.9349 -0.4476 -1.6961
 8149TIP3   OH245937   6.068   3.483   2.244  0.1592  0.0042  0.0150
 8149TIP3    H145938   5.993   3.426   2.262 -0.5180  1.0815  0.6825
 8149TIP3    H245939   6.133   3.425   2.206 -1.1753 -0.8756 -1.0051
 8150TIP3   OH245940   4.124   3.242   4.819 -0.4493  0.1636  0.5751
 8150TIP3    H145941   4.056   3.175   4.807  1.0143 -1.4989  1.3711
 8150TIP3    H245942   4.185   3.202   4.881  2.2183  0.9172 -1.5138
 8151TIP3   OH245943   3.061   5.068   2.241  0.0630  0.0791  0.3494
 8151TIP3    H145944   3.144   5.109   2.220 -0.1863  0.2540 -0.3049
 8151TIP3    H245945   3.032   5.111   2.321  0.5453  0.1012  0.5101
 8152TIP3   OH245946   1.721   1.436  14.398  0.0623 -0.2375 -0.6387
 8152TIP3    H145947   1.752   1.429  14.308  0.4446  0.4054 -0.5573
 8152TIP3    H245948   1.800   1.451  14.450 -0.2604  0.3678 -0.3131
 8153TIP3   OH245949   1.152   3.428   5.748  0.4669 -0.4771 -0.2877
 8153TIP3    H145950   1.143   3.463   5.659  0.8095 -2.4327 -1.1206
 8153TIP3    H245951   1.073   3.456   5.793  0.4910  0.9042 -1.0712
 8154TIP3   OH245952   0.670   4.983  12.392 -0.6524 -0.3816  0.1635
 8154TIP3    H145953   0.721   4.916  12.348  0.1482 -0.3651  1.0563
 8154TIP3    H245954   0.649   5.047  12.324  0.3447 -0.4892 -0.2383
 8155TIP3   OH245955   6.110   4.807  14.227  0.2945  0.3216  0.7608
 8155TIP3    H145956   6.157   4.767  14.154 -0.7470  1.1868 -0.4048
 8155TIP3    H245957   6.159   4.887  14.246 -0.8738  1.3907 -0.6690
 8156TIP3   OH245958   6.265   0.444   0.437 -0.3957  0.3623 -0.2099
 8156TIP3    H145959   6.348   0.434   0.391  0.7022  1.5348  1.4566
 8156TIP3    H245960   6.289   0.477   0.524 -2.6041  0.8517  0.2525
 8157TIP3   OH245961   2.090   1.776  15.816  0.0952 -0.0069 -0.2548
 8157TIP3    H145962   1.998   1.793  15.800 -0.0354 -0.3002  0.1772
 8157TIP3    H245963   2.092   1.732  15.901  0.5183 -1.2702 -0.9168
 8158TIP3   OH245964   6.540   0.404   1.473  0.4733  0.0976 -0.2933
 8158TIP3    H145965   6.544   0.356   1.556  0.6341 -0.4958 -0.6372
 8158TIP3    H245966   6.510   0.491   1.497  0.1189 -0.1915  0.3455
 8159TIP3   OH245967   6.550   3.890  15.286 -0.0848  0.4592 -0.2643
 8159TIP3    H145968   6.502   3.810  15.264 -0.9155  0.9841 -0.3851
 8159TIP3    H245969   6.634   3.881  15.241  0.5935 -1.2123  1.2709
 8160TIP3   OH245970   0.368   6.743  10.722 -0.1699  0.6832 -0.6534
 8160TIP3    H145971   0.403   6.684  10.790 -3.0750  0.6256  0.8476
 8160TIP3    H245972   0.419   6.824  10.733  1.3662 -0.3077 -0.3254
 8161TIP3   OH245973   2.192   4.011  15.442  0.0248  0.1664 -0.6471
 8161TIP3    H145974   2.188   4.081  15.507  0.9829  0.0957 -0.4951
 8161TIP3    H245975   2.110   4.017  15.394 -0.3496  0.7224  0.0589
 8162TIP3   OH245976   1.362   0.250   2.086  0.4401  0.4023  0.3267
 8162TIP3    H145977   1.417   0.311   2.036  0.2665  0.3379  0.0530
 8162TIP3    H245978   1.419   0.174   2.102  0.9996  1.0877  1.6161
 8163TIP3   OH245979   4.854   5.366  13.916  0.1216  0.2179 -0.6456
 8163TIP3    H145980   4.869   5.321  13.999  1.5887 -1.4067 -1.7475
 8163TIP3    H245981   4.822   5.453  13.941 -1.8340 -1.0794  1.5425
 8164TIP3   OH245982   4.775   1.857   0.889  0.0018  0.2615  0.2905
 8164TIP3    H145983   4.825   1.914   0.831 -0.0946  0.2180  0.1641
 8164TIP3    H245984   4.774   1.902   0.973  2.5631 -0.9958  1.0479
 8165TIP3   OH245985   2.432   6.126  16.815  0.2174 -0.5393 -0.5745
 8165TIP3    H145986   2.380   6.168  16.748 -2.7292  0.3812  2.1732
 8165TIP3    H245987   2.417   6.032  16.802 -0.5516 -0.3544 -1.0245
 8166TIP3   OH245988   4.671   2.236   1.568  0.4732 -0.2802 -0.1937
 8166TIP3    H145989   4.661   2.231   1.663  0.7485  0.6604 -0.1048
 8166TIP3    H245990   4.760   2.268   1.555 -0.2283  1.5653 -0.7029
 8167TIP3   OH245991   6.087   5.562  13.013  0.5117  0.1213  0.4190
 8167TIP3    H145992   6.004   5.607  12.997 -0.6414 -1.5780  1.4704
 8167TIP3    H245993   6.097   5.562  13.108  0.3960 -2.0033  0.4437
 8168TIP3   OH245994   6.675   5.416   0.067 -0.5958 -0.0009 -0.1484
 8168TIP3    H145995   6.652   5.340   0.015 -0.4092  0.5396 -1.0359
 8168TIP3    H245996   6.593   5.444   0.108 -1.1996  0.9033 -1.9345
 8169TIP3   OH245997   1.898   5.658   1.620 -0.1927 -0.0015  0.1254
 8169TIP3    H145998   1.967   5.596   1.598 -0.2740  0.1287 -0.5003
 8169TIP3    H245999   1.863   5.626   1.703  0.1314 -0.4798  0.0806
 8170TIP3   OH246000   3.298   1.871  17.267 -0.0297 -1.1605 -0.2516
 8170TIP3    H146001   3.210   1.872  17.230  0.5028  1.0936 -1.5589
 8170TIP3    H246002   3.289   1.918  17.350 -0.0575 -1.0259 -0.3315
 8171TIP3   OH246003   0.181   2.791  14.162  0.2655  0.1522  0.4661
 8171TIP3    H146004   0.130   2.717  14.129 -1.1270  1.3414 -0.1118
 8171TIP3    H246005   0.241   2.753  14.226 -0.7858 -1.3923  0.5397
 8172TIP3   OH246006   4.282   0.820   1.247  0.0154  0.1852  0.5061
 8172TIP3    H146007   4.219   0.841   1.178 -1.4846 -0.2040  1.7373
 8172TIP3    H246008   4.363   0.864   1.220  0.0448 -1.5413 -2.5049
 8173TIP3   OH246009   3.410   4.072  13.092  0.3556 -0.5737 -0.1552
 8173TIP3    H146010   3.486   4.021  13.067  0.3847 -0.4487 -0.3226
 8173TIP3    H246011   3.443   4.161  13.104  0.4603 -0.7493  0.9278
 8174TIP3   OH246012   2.629   2.898  12.413  0.2817 -0.0795 -0.2562
 8174TIP3    H146013   2.585   2.834  12.357  0.7624 -1.0755  0.4852
 8174TIP3    H246014   2.620   2.981  12.366 -2.0511 -0.3143 -0.2926
 8175TIP3   OH246015   5.509   0.572  12.639  0.0522  0.3196 -0.0981
 8175TIP3    H146016   5.437   0.541  12.585 -0.4940  0.9720  0.2480
 8175TIP3    H246017   5.536   0.496  12.690  0.8690 -0.4276 -1.5973
 8176TIP3   OH246018   6.232   4.723  15.339 -0.0856  0.2343 -0.2882
 8176TIP3    H146019   6.233   4.636  15.298 -2.3679  0.2166 -0.4037
 8176TIP3    H246020   6.240   4.706  15.433  0.3701 -0.0375 -0.3744
 8177TIP3   OH246021   2.055   5.431  16.281 -0.2475 -0.1993  0.1322
 8177TIP3    H146022   1.973   5.454  16.239  0.0611 -1.4510 -1.2040
 8177TIP3    H246023   2.075   5.343  16.249  2.6800  0.9089 -1.2586
 8178TIP3   OH246024   1.192   0.117   3.230 -0.0694  0.1034 -0.0377
 8178TIP3    H146025   1.228   0.111   3.318  1.3364 -1.4098 -0.7000
 8178TIP3    H246026   1.118   0.056   3.230  0.3692 -0.4295 -0.1143
 8179TIP3   OH246027   6.425   1.134  14.989 -0.2411 -0.3067 -0.1708
 8179TIP3    H146028   6.356   1.121  14.924  1.3134 -0.4160 -1.8416
 8179TIP3    H246029   6.400   1.078  15.063 -2.0664 -0.1313 -0.6390
 8180TIP3   OH246030   1.789   3.962  17.067  0.1129 -0.2430  0.6174
 8180TIP3    H146031   1.814   3.974  17.159 -0.8095 -1.1183  0.9909
 8180TIP3    H246032   1.872   3.957  17.020  0.6100 -0.8957  1.5516
 8181TIP3   OH246033   5.967   6.322   5.585 -0.4767  0.4295 -0.3066
 8181TIP3    H146034   5.873   6.324   5.605 -0.7578  0.3956 -1.6322
 8181TIP3    H246035   6.001   6.402   5.625 -1.0041  0.2772  0.4677
 8182TIP3   OH246036   1.987   1.392   5.336  0.8255 -0.7513 -0.5362
 8182TIP3    H146037   1.963   1.301   5.318 -1.5362 -0.4785  1.0057
 8182TIP3    H246038   1.949   1.441   5.263 -1.1741 -0.6167  0.5595
 8183TIP3   OH246039   3.031   0.106  13.665 -0.3238 -0.7603 -0.0724
 8183TIP3    H146040   3.091   0.178  13.644 -0.2805 -0.4565  1.0675
 8183TIP3    H246041   3.085   0.028  13.666 -0.1834 -0.6657 -0.3281
 8184TIP3   OH246042   4.934   2.898  15.992 -0.2097 -0.0376  0.2821
 8184TIP3    H146043   4.846   2.933  15.980 -1.3122 -2.3748  1.0535
 8184TIP3    H246044   4.962   2.932  16.077 -1.0643 -0.6224  0.8060
 8185TIP3   OH246045   2.442   0.359   4.213 -0.0196  0.2472  0.3189
 8185TIP3    H146046   2.461   0.426   4.280  1.0392  0.9471 -0.6719
 8185TIP3    H246047   2.451   0.405   4.130  2.0408 -1.4490 -0.4331
 8186TIP3   OH246048   4.052   3.396   1.831  0.4516 -0.7634 -0.1991
 8186TIP3    H146049   4.040   3.422   1.740 -0.0608  0.5200  0.2216
 8186TIP3    H246050   4.134   3.438   1.857 -0.4988  0.6917  0.5537
 8187TIP3   OH246051   2.558   4.995   0.038  0.3985  0.7205 -0.4848
 8187TIP3    H146052   2.574   5.006   0.131  1.8577 -0.9018 -0.5252
 8187TIP3    H246053   2.605   5.068  -0.003  1.7940  0.0407 -0.1082
 8188TIP3   OH246054   3.317   6.020  11.404  0.6617 -0.6193 -0.1161
 8188TIP3    H146055   3.240   6.071  11.378  0.5833  0.3757  1.9363
 8188TIP3    H246056   3.391   6.073  11.375  0.5751 -0.0240  0.7407
 8189TIP3   OH246057   5.460   5.729  11.937  0.1355  0.0884  0.7586
 8189TIP3    H146058   5.494   5.668  11.871 -0.3749  1.3138 -0.6858
 8189TIP3    H246059   5.442   5.674  12.013  1.1745 -1.2954  0.0460
 8190TIP3   OH246060   1.556   2.394   0.744 -0.0937  0.5445 -0.3720
 8190TIP3    H146061   1.580   2.484   0.765  0.6281  0.4373 -0.7211
 8190TIP3    H246062   1.483   2.374   0.802  0.5648  0.9305  0.6030
 8191TIP3   OH246063   2.455   2.652   4.353 -0.3682 -0.0962  0.1935
 8191TIP3    H146064   2.518   2.702   4.301  2.7528 -1.8549  2.1107
 8191TIP3    H246065   2.476   2.675   4.444 -1.9385 -1.3939  0.9083
 8192TIP3   OH246066   5.008   3.745   4.803 -0.3817 -0.7510 -0.5559
 8192TIP3    H146067   4.927   3.789   4.777 -0.8045 -0.7129  0.7817
 8192TIP3    H246068   4.979   3.663   4.843  0.0861  0.2990  2.0068
 8193TIP3   OH246069   4.164   4.790   1.319 -0.7657  0.2873 -0.2563
 8193TIP3    H146070   4.189   4.877   1.291 -2.5510  0.8048 -0.3510
 8193TIP3    H246071   4.234   4.761   1.378  0.8029  0.9718 -1.7707
 8194TIP3   OH246072   2.450   3.359   4.076  0.3121  0.2590  0.3927
 8194TIP3    H146073   2.447   3.337   3.983  1.2572  0.6909  0.2506
 8194TIP3    H246074   2.434   3.453   4.079 -2.3363 -0.1678  0.8869
 8195TIP3   OH246075   2.808   3.970  11.986 -0.2577 -0.3157  0.4768
 8195TIP3    H146076   2.782   3.904  12.051  1.1374 -0.4388  0.9369
 8195TIP3    H246077   2.730   4.022  11.971 -1.2392 -1.7380  0.5250
 8196TIP3   OH246078   6.014   6.323  16.692 -0.6962  0.3268  0.1719
 8196TIP3    H146079   5.948   6.259  16.719 -1.1583 -0.0868 -1.8555
 8196TIP3    H246080   5.974   6.408  16.710 -1.2073  0.0678  0.2666
 8197TIP3   OH246081   0.352   2.404  11.113 -0.0278 -0.2229  0.0251
 8197TIP3    H146082   0.333   2.311  11.107 -0.0003 -0.1854 -0.7911
 8197TIP3    H246083   0.377   2.429  11.024  1.3099  0.2752  0.5312
 8198TIP3   OH246084   1.735   1.353  11.860 -0.3198  0.2979  0.4248
 8198TIP3    H146085   1.740   1.380  11.952 -0.9462  0.7172  0.3326
 8198TIP3    H246086   1.642   1.356  11.838 -0.0135  1.9501 -0.7444
 8199TIP3   OH246087   2.814   2.167   4.673 -0.3701  0.6823 -0.7234
 8199TIP3    H146088   2.781   2.231   4.611 -0.3332  0.7858 -0.6373
 8199TIP3    H246089   2.837   2.218   4.751  0.5858  0.6980 -1.0105
 8200TIP3   OH246090   3.344   0.684   6.418 -0.4969  0.0069  0.4647
 8200TIP3    H146091   3.385   0.662   6.502 -1.4030 -1.6438  0.4948
 8200TIP3    H246092   3.308   0.772   6.431  2.0631  1.0626  0.7811
 8201TIP3   OH246093   0.555   4.241  13.419 -0.7900  0.0157 -0.2799
 8201TIP3    H146094   0.576   4.155  13.457 -0.6106  0.4885  0.7028
 8201TIP3    H246095   0.610   4.246  13.341  0.9915  0.2162  0.9513
 8202TIP3   OH246096   0.019   0.226   4.618  0.2159  0.4303 -0.3568
 8202TIP3    H146097  -0.061   0.275   4.598  0.3618  0.3404 -1.1861
 8202TIP3    H246098   0.076   0.242   4.543  0.6070 -0.2825 -0.2145
 8203TIP3   OH246099   1.559   5.915  15.215 -0.0011  0.0275  0.1381
 8203TIP3    H146100   1.469   5.930  15.186  0.8042  1.2987 -1.8223
 8203TIP3    H246101   1.564   5.956  15.301 -1.0486  0.7522 -0.1389
 8204TIP3   OH246102   5.660   3.287  11.369  0.1554 -0.0092  0.3551
 8204TIP3    H146103   5.698   3.291  11.282 -1.1099 -1.7585 -0.3035
 8204TIP3    H246104   5.569   3.262  11.355 -0.3363  0.6837  2.1160
 8205TIP3   OH246105   4.608   5.793  10.746 -0.3853 -0.8282 -1.0523
 8205TIP3    H146106   4.572   5.765  10.831 -0.7928 -1.6322 -1.4782
 8205TIP3    H246107   4.555   5.868  10.721  1.2120  0.8345  0.4680
 8206TIP3   OH246108   1.372   5.232   0.497 -0.7084  0.1455 -0.5557
 8206TIP3    H146109   1.343   5.311   0.451  1.2195 -0.0213 -2.1341
 8206TIP3    H246110   1.443   5.262   0.553 -0.6858 -0.2934 -0.3513
 8207TIP3   OH246111   5.786   3.912  13.463 -0.1853 -0.0950  0.3051
 8207TIP3    H146112   5.704   3.949  13.494 -0.0795 -1.2482  2.0123
 8207TIP3    H246113   5.761   3.828  13.423 -0.0599  0.4070 -0.8363
 8208TIP3   OH246114   4.931   5.720   1.384  0.1483  0.2302  0.3481
 8208TIP3    H146115   4.969   5.737   1.470  1.5237  1.4425 -0.4783
 8208TIP3    H246116   4.859   5.784   1.377  0.5752  0.7106  0.2710
 8209TIP3   OH246117   6.262   0.320  12.611 -0.7741 -0.0618  0.7424
 8209TIP3    H146118   6.226   0.303  12.524  0.5212  0.0146  0.1820
 8209TIP3    H246119   6.342   0.267  12.615  0.2070  1.4243  1.1499
 8210TIP3   OH246120   6.727   5.991   3.700  0.2660 -0.1100  0.2048
 8210TIP3    H146121   6.804   6.046   3.716  0.7101 -0.8419  0.6412
 8210TIP3    H246122   6.759   5.921   3.643  0.0174 -0.6104  0.6696
 8211TIP3   OH246123   4.496   5.558  16.829 -0.7868  0.1068 -0.2726
 8211TIP3    H146124   4.568   5.533  16.887 -0.6719 -0.5312 -0.6922
 8211TIP3    H246125   4.510   5.652  16.813  0.4020 -0.1711 -0.9581
 8212TIP3   OH246126   6.038   5.671  15.622 -0.0820  0.1801  0.3100
 8212TIP3    H146127   6.088   5.668  15.704  0.2202 -1.2865  0.0899
 8212TIP3    H246128   6.068   5.750  15.578 -0.1592  0.9169  1.5654
 8213TIP3   OH246129   6.520   0.157   1.252 -0.5281 -0.6158  1.0243
 8213TIP3    H146130   6.503   0.111   1.170 -2.0241  0.3055  0.7952
 8213TIP3    H246131   6.478   0.103   1.319  0.7673 -1.4126  1.1958
 8214TIP3   OH246132   0.946   5.415   1.166  0.3009  0.8329 -0.6663
 8214TIP3    H146133   0.871   5.473   1.181 -0.1363  0.0064  0.4729
 8214TIP3    H246134   0.966   5.425   1.073 -0.2318  2.2467 -0.6362
 8215TIP3   OH246135   5.476   5.926  12.577  0.2488  0.7557  0.3969
 8215TIP3    H146136   5.418   5.887  12.511  0.1504  1.2773  0.1744
 8215TIP3    H246137   5.546   5.968  12.527  0.2729  0.9943  0.6290
 8216TIP3   OH246138   6.264   5.825   4.187  0.3667  0.3413 -0.0118
 8216TIP3    H146139   6.348   5.868   4.206 -0.7124  1.7117  1.7489
 8216TIP3    H246140   6.218   5.823   4.271 -0.8770 -1.5228 -0.7034
 8217TIP3   OH246141   3.437   0.408   4.347  0.1625  0.4215  0.1142
 8217TIP3    H146142   3.487   0.379   4.423 -0.5546 -0.3520  0.2937
 8217TIP3    H246143   3.495   0.394   4.272 -0.0096 -1.0659  0.2462
 8218TIP3   OH246144   6.585   0.366   4.254  0.0553  0.0252  0.0003
 8218TIP3    H146145   6.501   0.363   4.208 -0.4650 -0.1410  0.9494
 8218TIP3    H246146   6.621   0.278   4.242 -1.0146 -0.6530  1.6205
 8219TIP3   OH246147   5.732   4.234   1.063 -0.2019  0.4822  0.3342
 8219TIP3    H146148   5.659   4.270   1.012  0.0396 -0.8636 -0.9826
 8219TIP3    H246149   5.786   4.310   1.085 -2.0572  1.5077  1.4369
 8220TIP3   OH246150   5.236   3.058  11.030  0.2419  0.1922 -0.6316
 8220TIP3    H146151   5.197   3.030  10.947  0.3485 -2.0939  0.0479
 8220TIP3    H246152   5.236   3.154  11.026  0.5592  0.1179 -3.4164
 8221TIP3   OH246153   4.826   5.763   3.321 -0.3525  0.4921  0.5941
 8221TIP3    H146154   4.807   5.785   3.413  0.2515 -2.3016  1.4127
 8221TIP3    H246155   4.793   5.674   3.310  1.4276  0.0372 -1.3302
 8222TIP3   OH246156   0.736   1.512  11.771 -0.1552  0.2547  0.0441
 8222TIP3    H146157   0.662   1.547  11.722 -0.0394 -1.4213 -1.3488
 8222TIP3    H246158   0.721   1.543  11.861 -2.7697 -0.3994 -0.1151
 8223TIP3   OH246159   3.164   0.207  16.257  0.0858  0.8805 -0.2592
 8223TIP3    H146160   3.172   0.120  16.294  0.8479  1.5767  1.2440
 8223TIP3    H246161   3.089   0.201  16.197 -0.2417 -0.6274  0.2877
 8224TIP3   OH246162   2.528   0.449   5.440 -0.2562  0.0972  0.3572
 8224TIP3    H146163   2.496   0.359   5.445  0.7970 -0.2627  0.7771
 8224TIP3    H246164   2.603   0.451   5.499 -2.1196  2.0879  2.7830
 8225TIP3   OH246165   2.765   6.526  12.413  0.1862 -0.4002  0.2431
 8225TIP3    H146166   2.780   6.602  12.470  1.7815  0.9105 -1.8410
 8225TIP3    H246167   2.681   6.546  12.371  0.7806  0.4189 -0.5805
 8226TIP3   OH246168   0.044   2.547  13.053  0.1882  0.3784 -0.8514
 8226TIP3    H146169   0.086   2.524  12.970  1.5017 -1.0466  0.1680
 8226TIP3    H246170  -0.019   2.615  13.030  2.5184  2.0558 -2.5739
 8227TIP3   OH246171   4.447   2.015   3.770 -0.8474 -0.2445 -0.0232
 8227TIP3    H146172   4.541   2.036   3.769 -0.9289  0.1379  0.2281
 8227TIP3    H246173   4.436   1.952   3.699 -0.8013  1.4634 -1.5830
 8228TIP3   OH246174   0.490   5.926   5.180  0.5606 -0.0217  0.4576
 8228TIP3    H146175   0.483   5.892   5.091 -2.2840  0.5516  0.4282
 8228TIP3    H246176   0.581   5.909   5.205  1.3076 -0.4769 -2.4238
 8229TIP3   OH246177   6.088   0.952  13.154 -0.1576 -0.1770  0.3781
 8229TIP3    H146178   6.100   0.858  13.137  0.3376 -0.1941  0.8054
 8229TIP3    H246179   6.174   0.981  13.185 -0.6752  0.1392  1.5129
 8230TIP3   OH246180   4.881   4.673  13.676 -0.0373  0.1771  0.1001
 8230TIP3    H146181   4.861   4.654  13.585 -0.6619 -0.3315  0.3351
 8230TIP3    H246182   4.947   4.608  13.701 -1.8733 -1.4985  0.7840
 8231TIP3   OH246183   3.127   0.569  16.115 -0.7255 -0.3859 -0.0992
 8231TIP3    H146184   3.168   0.654  16.099 -0.9204 -0.2748 -0.0213
 8231TIP3    H246185   3.198   0.506  16.112 -0.9563 -0.5668 -2.9839
 8232TIP3   OH246186   3.261   3.399   0.574  0.3491 -0.1824  0.7165
 8232TIP3    H146187   3.214   3.328   0.617 -0.1208 -1.0979 -1.2425
 8232TIP3    H246188   3.327   3.355   0.520  0.8576  0.9253  0.4122
 8233TIP3   OH246189   4.059   1.429  13.281 -0.6646 -1.0565  0.2105
 8233TIP3    H146190   4.125   1.359  13.287  0.3196 -0.1132  0.4388
 8233TIP3    H246191   4.103   1.507  13.314 -2.4091 -0.7500  1.9013
 8234TIP3   OH246192   5.787   2.307   5.692 -0.0292  0.1189  0.0177
 8234TIP3    H146193   5.710   2.358   5.716  0.0509  0.0124  0.5246
 8234TIP3    H246194   5.752   2.229   5.649 -0.1938  0.1711  0.0571
 8235TIP3   OH246195   2.068   0.929   1.830 -0.2693  0.2936  0.5268
 8235TIP3    H146196   2.129   0.888   1.891  0.7013  1.2973  0.2569
 8235TIP3    H246197   1.981   0.913   1.867  0.2951  0.7096  2.0495
 8236TIP3   OH246198   1.814   0.651  12.870 -0.3961  0.4946  0.1815
 8236TIP3    H146199   1.723   0.624  12.884  0.1104 -1.7271 -0.5560
 8236TIP3    H246200   1.866   0.574  12.893  1.0690  0.2947 -3.3508
 8237TIP3   OH246201   4.382   0.538  11.983 -0.0917  0.1127 -0.1975
 8237TIP3    H146202   4.473   0.561  11.999 -0.2138  0.0755  0.5439
 8237TIP3    H246203   4.361   0.473  12.049 -1.5486  2.3360  1.5890
 8238TIP3   OH246204   0.143   5.203  15.851  0.0307 -0.0787  0.6590
 8238TIP3    H146205   0.156   5.223  15.758 -1.6062 -0.1772  0.3976
 8238TIP3    H246206   0.231   5.180  15.882  0.5981 -0.0882 -0.8685
 8239TIP3   OH246207   3.937   6.402  12.923 -0.3122 -0.7496 -0.3504
 8239TIP3    H146208   3.936   6.490  12.885 -0.8151 -0.7220 -0.2679
 8239TIP3    H246209   4.019   6.364  12.891  0.7210  0.3276  0.9469
 8240TIP3   OH246210   1.417   1.442   1.087 -0.4004 -0.2703  0.2300
 8240TIP3    H146211   1.467   1.512   1.044 -1.4817  0.6424  0.4268
 8240TIP3    H246212   1.338   1.433   1.033 -0.6193 -0.8243  0.6406
 8241TIP3   OH246213   5.344   0.225  12.306 -0.3948  0.3504  0.0539
 8241TIP3    H146214   5.402   0.292  12.269 -0.3305 -0.1313 -0.7392
 8241TIP3    H246215   5.315   0.175  12.230 -2.1673  0.8303  0.4107
 8242TIP3   OH246216   2.609   6.318   1.547  0.9603  0.3571  0.4923
 8242TIP3    H146217   2.580   6.231   1.519  0.2166  1.4302 -2.3162
 8242TIP3    H246218   2.532   6.356   1.589  0.5727  0.4462 -0.2723
 8243TIP3   OH246219   5.139   2.945   0.183  0.3684  0.1060 -0.7020
 8243TIP3    H146220   5.219   2.900   0.210  0.5047  1.2169  0.7873
 8243TIP3    H246221   5.148   2.955   0.088  1.7852 -0.1776 -0.6057
 8244TIP3   OH246222   1.260   0.161   3.744  0.3351  0.9900  0.3592
 8244TIP3    H146223   1.313   0.097   3.698  1.3843  0.0589  2.7931
 8244TIP3    H246224   1.170   0.136   3.725  0.7289 -1.4032  1.5394
 8245TIP3   OH246225   1.779   3.412   5.580  0.0025 -0.0848  0.4235
 8245TIP3    H146226   1.694   3.455   5.578  0.4466  0.7923 -1.5032
 8245TIP3    H246227   1.840   3.480   5.607  0.6066  0.3629 -1.9255
 8246TIP3   OH246228   4.675   2.844  17.067  0.1386 -0.1382  0.1202
 8246TIP3    H146229   4.667   2.749  17.071  0.8785 -0.1742  0.9386
 8246TIP3    H246230   4.766   2.859  17.040 -0.1251  0.3252 -0.5105
 8247TIP3   OH246231   2.877   3.326  17.081  0.1630 -0.3302  0.7037
 8247TIP3    H146232   2.887   3.420  17.066 -0.2977 -0.3111  0.5282
 8247TIP3    H246233   2.784   3.314  17.101  0.0750 -0.8480  0.0039
 8248TIP3   OH246234   3.137   3.177  15.121  0.7950 -0.2814 -0.3410
 8248TIP3    H146235   3.120   3.149  15.211 -0.5392  1.2956 -0.0814
 8248TIP3    H246236   3.050   3.192  15.083  1.3231 -1.2556 -2.0137
 8249TIP3   OH246237   5.357   5.003   1.673 -0.2969  0.3133  0.1700
 8249TIP3    H146238   5.322   4.929   1.722 -1.0818  1.1125  0.8443
 8249TIP3    H246239   5.280   5.046   1.635  0.1283  0.8884 -0.0632
 8250TIP3   OH246240   6.580   5.456   6.227 -0.1904  0.3593  0.0186
 8250TIP3    H146241   6.606   5.366   6.204  1.5231  0.5089  1.2364
 8250TIP3    H246242   6.487   5.461   6.204  0.0008 -1.3368 -1.2114
 8251TIP3   OH246243   4.566   0.688  17.069 -0.2283  0.4527 -0.7662
 8251TIP3    H146244   4.496   0.680  17.004 -2.8968  1.3629  1.8454
 8251TIP3    H246245   4.558   0.610  17.123  0.3497  0.8659 -0.0619
 8252TIP3   OH246246   3.248   4.158   3.032 -0.4582  0.5262  0.7749
 8252TIP3    H146247   3.320   4.169   3.095  2.0891  0.7390 -2.0865
 8252TIP3    H246248   3.213   4.071   3.050  1.7518 -0.3373  1.0029
 8253TIP3   OH246249   4.196   3.173  15.929  0.1446  0.5844 -0.1248
 8253TIP3    H146250   4.281   3.130  15.932 -0.1401  0.0015 -0.1918
 8253TIP3    H246251   4.146   3.133  16.001  0.4578  2.0788  0.9360
 8254TIP3   OH246252   0.541   1.544   6.149 -0.3516  0.2144 -0.5007
 8254TIP3    H146253   0.466   1.564   6.206 -0.9350 -0.1753 -1.1291
 8254TIP3    H246254   0.531   1.451   6.129  1.1899 -0.2278  0.7013
 8255TIP3   OH246255   2.192   1.836   3.557 -0.1544 -0.4042 -0.1878
 8255TIP3    H146256   2.216   1.909   3.614 -1.7685  0.6343 -0.8061
 8255TIP3    H246257   2.144   1.776   3.615 -1.1495  0.2979 -0.2789
 8256TIP3   OH246258   6.240   0.129   2.235  0.2907 -0.2256 -0.0511
 8256TIP3    H146259   6.204   0.182   2.164  1.9517 -0.8643 -1.4052
 8256TIP3    H246260   6.261   0.192   2.304 -1.6017  0.3694 -0.0096
 8257TIP3   OH246261   6.024   2.033  14.706 -0.1697 -0.7014  0.6422
 8257TIP3    H146262   6.004   2.099  14.773  0.1464  1.7139 -1.5401
 8257TIP3    H246263   5.939   2.001  14.678 -0.3350 -1.1401  1.6286
 8258TIP3   OH246264   1.180   6.418   3.077 -0.0016  0.0244 -0.5699
 8258TIP3    H146265   1.260   6.469   3.084  1.2751 -1.9884  0.1441
 8258TIP3    H246266   1.110   6.483   3.071  1.5601  1.8310  0.1499
 8259TIP3   OH246267   5.370   2.918  15.530  0.2504  0.0958  0.1614
 8259TIP3    H146268   5.397   2.849  15.470  1.4466  1.1549 -0.5482
 8259TIP3    H246269   5.431   2.911  15.603  0.8683  0.8982 -0.2750
 8260TIP3   OH246270   1.529   0.326  14.327  0.2067  0.5348  0.1879
 8260TIP3    H146271   1.538   0.353  14.236 -0.2858  2.2313  0.6361
 8260TIP3    H246272   1.442   0.286  14.332  0.5251 -0.2276 -0.2367
 8261TIP3   OH246273   5.738   1.735  13.173  0.0181  0.6727 -0.0022
 8261TIP3    H146274   5.652   1.775  13.158  0.5409  1.4557 -0.9666
 8261TIP3    H246275   5.800   1.794  13.131  0.7673 -1.4518 -1.9837
 8262TIP3   OH246276   4.753   0.243   5.966  0.2477 -0.0983 -0.1600
 8262TIP3    H146277   4.724   0.244   6.057 -1.2452  0.1517 -0.6329
 8262TIP3    H246278   4.776   0.334   5.947 -1.6807  0.2855 -0.7306
 8263TIP3   OH246279   0.447   1.277   0.851  0.1083  0.2738 -0.3899
 8263TIP3    H146280   0.384   1.248   0.785 -0.0756  0.6208 -0.3645
 8263TIP3    H246281   0.396   1.330   0.912 -0.0551 -1.2922  0.8796
 8264TIP3   OH246282   4.350   3.037   4.957  0.1572  0.2429 -0.3491
 8264TIP3    H146283   4.348   3.120   5.004 -1.0221 -0.1937  0.4016
 8264TIP3    H246284   4.358   2.971   5.026 -1.1741 -0.3814 -0.7796
 8265TIP3   OH246285   2.776   5.888  16.960  0.0370 -0.3347  0.0204
 8265TIP3    H146286   2.814   5.800  16.953 -1.5206 -1.1225  1.2956
 8265TIP3    H246287   2.682   5.873  16.963 -0.1571  1.2368  2.4280
 8266TIP3   OH246288   5.966   0.191  12.598  0.1905 -0.0881  0.2030
 8266TIP3    H146289   5.989   0.283  12.609 -1.9214  0.2257  2.3353
 8266TIP3    H246290   5.910   0.190  12.520  0.9512  0.2579 -0.3645
 8267TIP3   OH246291   4.864   4.407  11.069 -0.2307 -0.5444 -0.0237
 8267TIP3    H146292   4.776   4.444  11.081  1.1236  3.0090 -0.3110
 8267TIP3    H246293   4.852   4.336  11.006 -2.9453 -0.2948  0.1552
 8268TIP3   OH246294   0.159   3.993  10.692 -0.1119  0.4148  0.1201
 8268TIP3    H146295   0.157   4.034  10.605 -0.3037 -1.4422 -0.7647
 8268TIP3    H246296   0.245   3.953  10.698  0.6913  2.2857  1.6443
 8269TIP3   OH246297   2.844   2.987  11.535  0.9245  0.1292  0.4483
 8269TIP3    H146298   2.854   2.896  11.562 -0.5375 -0.1787 -0.0116
 8269TIP3    H246299   2.876   2.989  11.445 -0.6333 -0.2954 -0.1231
 8270TIP3   OH246300   1.154   5.647  15.308 -0.3919 -0.3309  0.2767
 8270TIP3    H146301   1.109   5.576  15.262 -1.8965  0.4283  0.5421
 8270TIP3    H246302   1.106   5.657  15.390  0.5697  0.1750  0.7841
 8271TIP3   OH246303   0.648   4.363  14.674  0.0404  0.0257 -0.4928
 8271TIP3    H146304   0.716   4.354  14.740  1.0419 -1.8177 -1.7328
 8271TIP3    H246305   0.570   4.389  14.723  1.2638  0.7448  1.1308
 8272TIP3   OH246306   3.966   1.517   3.675 -0.2918  0.7014 -0.2535
 8272TIP3    H146307   4.057   1.546   3.681 -0.1416  0.1711  0.0612
 8272TIP3    H246308   3.917   1.597   3.654 -0.0239  1.4222  1.7463
 8273TIP3   OH246309   4.702   1.849  14.453 -0.1826  0.2351 -0.0547
 8273TIP3    H146310   4.722   1.766  14.409  0.6716  0.0056  0.7540
 8273TIP3    H246311   4.668   1.905  14.383  0.8739 -0.2280 -0.9608
 8274TIP3   OH246312   1.888   1.674   0.340 -0.0134  0.9062  0.1602
 8274TIP3    H146313   1.836   1.648   0.263  0.3688 -1.1833  0.5687
 8274TIP3    H246314   1.848   1.626   0.413  2.0683 -0.2550  0.5840
 8275TIP3   OH246315   5.540   6.738  13.409  1.1213  0.1740  0.1928
 8275TIP3    H146316   5.623   6.783  13.425  1.0213  0.1539  0.7689
 8275TIP3    H246317   5.486   6.759  13.485  0.1457  1.2288 -0.7687
 8276TIP3   OH246318   3.026   4.684   3.470  0.0629 -0.3772  0.0955
 8276TIP3    H146319   2.987   4.651   3.389  0.3744  0.7988 -0.5589
 8276TIP3    H246320   2.992   4.627   3.539 -1.2252 -0.5980 -0.7064
 8277TIP3   OH246321   3.323   4.312   5.449 -0.1783 -0.3481 -0.2164
 8277TIP3    H146322   3.409   4.290   5.487  0.0909  2.5489  1.0121
 8277TIP3    H246323   3.260   4.273   5.510  0.2762  0.0427  0.5171
 8278TIP3   OH246324   4.960   6.393  12.614  0.2368 -0.2871 -0.1680
 8278TIP3    H146325   4.866   6.411  12.620  0.6700  1.2987  2.0768
 8278TIP3    H246326   4.973   6.316  12.670  0.5429  0.4979  0.8393
 8279TIP3   OH246327   4.385   5.901  16.700 -0.5113  0.1713  0.0348
 8279TIP3    H146328   4.379   5.853  16.618  0.9008  2.8487 -1.7109
 8279TIP3    H246329   4.462   5.867  16.744 -0.1298  0.0998 -0.6934
 8280TIP3   OH246330   2.808   1.027   5.871 -0.1312  0.1636 -0.8529
 8280TIP3    H146331   2.783   0.986   5.787  0.8429 -0.6340 -0.7660
 8280TIP3    H246332   2.740   0.998   5.932 -0.5839  0.3541 -1.2606
 8281TIP3   OH246333   2.367   2.813  11.462 -0.0317  0.5776 -0.0449
 8281TIP3    H146334   2.419   2.854  11.531  1.7815 -1.2859 -0.2283
 8281TIP3    H246335   2.326   2.738  11.504  0.4329 -0.1009 -0.7737
 8282TIP3   OH246336   3.837   5.617   3.610  0.1996  0.9772  0.5685
 8282TIP3    H146337   3.812   5.623   3.517  2.4683  2.0927  0.0025
 8282TIP3    H246338   3.864   5.525   3.621  0.2916  0.9362  0.0324
 8283TIP3   OH246339   0.992   3.376   0.525 -0.1502  0.0129  0.8566
 8283TIP3    H146340   0.934   3.447   0.497 -0.3768 -0.1980  0.7910
 8283TIP3    H246341   0.933   3.309   0.560  0.2033  1.0442  3.5997
 8284TIP3   OH246342   0.637   5.788   3.383  0.3567  0.2536  0.3852
 8284TIP3    H146343   0.698   5.719   3.355  1.4157  1.7081 -1.0034
 8284TIP3    H246344   0.551   5.747   3.378  0.9524 -0.9462 -0.5245
 8285TIP3   OH246345   5.457   3.833  14.183  0.6334 -0.3983 -0.0103
 8285TIP3    H146346   5.502   3.879  14.254  2.1255 -2.1674  0.2342
 8285TIP3    H246347   5.509   3.852  14.105 -1.3011  1.9697 -0.7716
 8286TIP3   OH246348   6.253   0.346  15.921  0.0572 -0.1179  0.1749
 8286TIP3    H146349   6.195   0.308  15.987  1.2813 -1.7849  0.3044
 8286TIP3    H246350   6.260   0.280  15.853  1.8958  0.0153  0.2167
 8287TIP3   OH246351   2.090   0.160   4.148  0.0813  0.7290 -0.2612
 8287TIP3    H146352   2.057   0.201   4.228 -1.7131  2.0785 -1.6485
 8287TIP3    H246353   2.176   0.127   4.172 -0.6777  0.5272  2.4182
 8288TIP3   OH246354   4.008   3.857  16.549 -0.1242 -0.0874  0.3209
 8288TIP3    H146355   3.959   3.903  16.480  0.5143 -1.4995 -1.0966
 8288TIP3    H246356   3.941   3.810  16.598 -0.4812  0.0940  0.0133
 8289TIP3   OH246357   0.498   1.868   1.554  0.0590 -0.0793  0.2978
 8289TIP3    H146358   0.495   1.874   1.650  1.1205 -1.4876  0.4205
 8289TIP3    H246359   0.589   1.851   1.534  0.3140  2.6893 -1.1421
 8290TIP3   OH246360   4.984   1.324  12.502  0.4711 -0.0077  0.0852
 8290TIP3    H146361   5.047   1.274  12.449  1.5600  0.1703  1.1843
 8290TIP3    H246362   4.904   1.273  12.499  1.0583 -0.9284 -0.2451
 8291TIP3   OH246363   1.413   3.812  10.632  0.2507 -0.5046  0.4679
 8291TIP3    H146364   1.435   3.893  10.585 -2.9373  0.5750  0.7317
 8291TIP3    H246365   1.384   3.842  10.718  0.0135 -2.0321  0.9236
 8292TIP3   OH246366   4.028   0.982  11.143 -0.1060  0.2096  0.2985
 8292TIP3    H146367   4.054   0.945  11.227 -0.1506  1.1922  0.7540
 8292TIP3    H246368   4.110   1.013  11.104 -0.3036  1.3038  0.7447
 8293TIP3   OH246369   6.626   2.076  12.377  0.4020  0.5229 -0.1133
 8293TIP3    H146370   6.628   1.981  12.364 -1.5894  0.0282  2.6431
 8293TIP3    H246371   6.669   2.089  12.461  0.9476  2.1169 -0.6276
 8294TIP3   OH246372   4.635   4.967  12.276  0.3924  0.0005 -0.2057
 8294TIP3    H146373   4.540   4.957  12.281  0.3505  0.6753  0.2765
 8294TIP3    H246374   4.652   5.055  12.307  1.3231 -0.6873  1.3183
 8295TIP3   OH246375   6.322   2.374   0.906 -0.0929  0.1570  0.2562
 8295TIP3    H146376   6.287   2.290   0.935 -3.5047  0.6244 -2.1159
 8295TIP3    H246377   6.393   2.352   0.845  1.2057 -0.9065  2.1253
 8296TIP3   OH246378   1.429   6.677  16.888 -0.2547  0.3329  0.4221
 8296TIP3    H146379   1.367   6.748  16.902 -1.8263 -1.0494  0.5923
 8296TIP3    H246380   1.492   6.685  16.960 -0.1491  1.8035  0.1809
 8297TIP3   OH246381   3.536   0.558  11.138  0.3349  0.2622  0.2610
 8297TIP3    H146382   3.572   0.470  11.142 -1.4367 -0.5624 -1.3961
 8297TIP3    H246383   3.554   0.588  11.049 -1.6327  0.4246 -0.1060
 8298TIP3   OH246384   1.768   2.323  16.939 -0.1028 -0.5129 -0.3094
 8298TIP3    H146385   1.849   2.287  16.975  0.9212 -0.4825 -2.5366
 8298TIP3    H246386   1.792   2.355  16.852 -2.4294 -0.1782 -0.8593
 8299TIP3   OH246387   5.517   2.940  16.826  0.1620  0.7908 -0.4630
 8299TIP3    H146388   5.463   2.926  16.904 -0.9540  1.1176 -1.1728
 8299TIP3    H246389   5.502   3.032  16.803 -0.5417  0.3480 -1.8323
 8300TIP3   OH246390   3.654   5.958   1.005 -0.2261  0.0979  0.2779
 8300TIP3    H146391   3.669   5.955   1.099  3.3619 -2.2254 -0.2834
 8300TIP3    H246392   3.656   6.051   0.983 -2.8231  0.7811  2.6850
 8301TIP3   OH246393   5.187   4.926  11.416  0.2050  0.1667 -0.3241
 8301TIP3    H146394   5.180   4.845  11.366 -1.9498 -0.3474  0.7371
 8301TIP3    H246395   5.111   4.978  11.389  1.0200  1.4220 -0.2706
 8302TIP3   OH246396   3.590   3.751   0.915 -0.3485 -0.1888 -0.5809
 8302TIP3    H146397   3.611   3.673   0.863 -4.5689 -1.4036 -0.6433
 8302TIP3    H246398   3.494   3.753   0.917 -0.2988  2.9674  2.5431
 8303TIP3   OH246399   1.880   2.502  12.380  0.4258  0.3689  0.0237
 8303TIP3    H146400   1.870   2.407  12.374  1.2878  0.2283  0.6795
 8303TIP3    H246401   1.791   2.536  12.384  0.0949 -0.3541 -1.0168
 8304TIP3   OH246402   3.907   0.310  15.992 -0.3384  0.2345 -0.2792
 8304TIP3    H146403   3.983   0.298  16.049  0.0941  1.3648 -0.5952
 8304TIP3    H246404   3.934   0.274  15.908 -0.0888  0.7866 -0.4386
 8305TIP3   OH246405   2.826   4.571  15.482  0.2967 -0.4871  0.5466
 8305TIP3    H146406   2.820   4.476  15.492 -4.9997 -0.3316 -0.0778
 8305TIP3    H246407   2.825   4.605  15.571  0.0764 -0.9047  0.7051
 8306TIP3   OH246408   0.291   0.444  15.875 -0.0638 -0.3181  0.1099
 8306TIP3    H146409   0.284   0.361  15.922  1.6024 -0.0738  0.8252
 8306TIP3    H246410   0.265   0.423  15.785 -0.3437 -1.4470  0.4473
 8307TIP3   OH246411   1.295   1.539   1.988 -0.3372 -0.6408  0.3854
 8307TIP3    H146412   1.297   1.523   2.082  0.4681 -1.5285  0.2169
 8307TIP3    H246413   1.210   1.581   1.973 -0.8482 -1.3063  1.3724
 8308TIP3   OH246414   6.483   6.633  16.686 -0.2868  1.0961  0.3967
 8308TIP3    H146415   6.516   6.667  16.603  0.9656 -0.2450  0.3093
 8308TIP3    H246416   6.427   6.559  16.661  1.0685 -0.0895  0.7569
 8309TIP3   OH246417   3.128   6.535   2.196 -0.0208 -0.2416  0.1160
 8309TIP3    H146418   3.173   6.454   2.220  2.2769  0.8955 -0.1878
 8309TIP3    H246419   3.144   6.595   2.269  2.2964  1.4214 -1.6766
 8310TIP3   OH246420   1.180   4.483  16.568 -0.6750 -0.2497  0.0693
 8310TIP3    H146421   1.142   4.413  16.621 -0.6657 -0.3312 -0.0332
 8310TIP3    H246422   1.240   4.528  16.627 -1.0983  0.0216  0.2972
 8311TIP3   OH246423   4.464   4.714  13.993  0.7462  0.4446  0.0413
 8311TIP3    H146424   4.531   4.658  14.031  0.9067  0.3287 -0.4131
 8311TIP3    H246425   4.456   4.787  14.055  0.5772 -0.0471  0.6024
 8312TIP3   OH246426   4.951   5.688   1.068  0.4375 -0.0290  0.0115
 8312TIP3    H146427   4.913   5.693   1.156  0.5751  1.2648  0.0079
 8312TIP3    H246428   4.917   5.607   1.031 -0.2567 -0.1741  0.9724
 8313TIP3   OH246429   0.691   0.255  15.351 -0.2148 -0.4070 -0.1691
 8313TIP3    H146430   0.620   0.238  15.413 -0.7161 -1.0116 -0.9124
 8313TIP3    H246431   0.740   0.173  15.348 -0.2672 -0.4189 -0.6701
 8314TIP3   OH246432   4.196   4.495  14.175  0.0041 -0.2081 -0.6474
 8314TIP3    H146433   4.153   4.411  14.188  0.9789 -0.5038  0.7979
 8314TIP3    H246434   4.290   4.474  14.174  0.2717  0.9140  0.1243
 8315TIP3   OH246435   4.102   0.902   0.967  0.8946  0.3813 -0.1234
 8315TIP3    H146436   4.196   0.905   0.951  1.0447  0.8241  0.7955
 8315TIP3    H246437   4.084   0.812   0.994  1.1974  0.5104  0.5184
 8316TIP3   OH246438   4.900   0.116   2.136 -0.4937  0.2695  0.0565
 8316TIP3    H146439   4.927   0.075   2.218  0.6377  0.2944 -0.3004
 8316TIP3    H246440   4.900   0.045   2.072  1.4732  0.7755 -0.5660
 8317TIP3   OH246441   2.442   4.632   3.682  0.1167 -0.3047  0.0347
 8317TIP3    H146442   2.488   4.716   3.681 -0.6014  0.0916 -1.6857
 8317TIP3    H246443   2.360   4.651   3.728  0.0542 -0.1178 -0.1535
 8318TIP3   OH246444   2.892   5.287  15.567  0.2267 -0.0312  0.0244
 8318TIP3    H146445   2.835   5.250  15.499 -0.1436  1.2641 -0.3783
 8318TIP3    H246446   2.889   5.223  15.638 -1.6725 -0.0363 -0.0253
 8319TIP3   OH246447   3.035   5.628   0.408 -0.5582 -0.2116  0.4256
 8319TIP3    H146448   3.015   5.660   0.320  0.8212 -1.5307 -0.4006
 8319TIP3    H246449   2.971   5.670   0.465  0.2005  2.7132 -0.8282
 8320TIP3   OH246450   2.378   0.428  16.308 -0.5594 -0.0770 -0.6735
 8320TIP3    H146451   2.426   0.392  16.233  0.8389 -1.9490  1.0947
 8320TIP3    H246452   2.323   0.357  16.338 -1.7189  0.9270 -0.3842
 8321TIP3   OH246453   4.759   6.686   3.678  0.2055  0.1022  0.2718
 8321TIP3    H146454   4.709   6.690   3.597 -2.3888  0.6656  1.8523
 8321TIP3    H246455   4.850   6.702   3.651 -0.4700 -0.7006 -2.6141
 8322TIP3   OH246456   6.763   1.178   3.107  0.1721 -0.7752  0.0741
 8322TIP3    H146457   6.767   1.273   3.104  2.4547 -0.8746 -0.8756
 8322TIP3    H246458   6.817   1.149   3.034  2.3908 -2.8213  2.4143
 8323TIP3   OH246459   0.781   4.754   4.516  0.4504  0.0461 -0.5777
 8323TIP3    H146460   0.842   4.759   4.442  1.2635 -0.9884 -0.0071
 8323TIP3    H246461   0.794   4.665   4.551  1.1498  1.0102  1.6828
 8324TIP3   OH246462   5.375   6.085   1.937 -0.8362  0.4313  0.3518
 8324TIP3    H146463   5.370   6.001   1.892  0.5687  0.2654  0.4615
 8324TIP3    H246464   5.391   6.063   2.029  1.7940  0.8173  0.0250
 8325TIP3   OH246465   4.728   5.499   1.954 -0.1292 -0.4968 -0.1118
 8325TIP3    H146466   4.663   5.435   1.983 -0.0920 -0.0397  1.0223
 8325TIP3    H246467   4.806   5.479   2.006  1.0949 -1.8839 -2.3860
 8326TIP3   OH246468   5.673   0.869  15.438  0.2557 -0.1701 -0.3592
 8326TIP3    H146469   5.664   0.964  15.449 -1.4230 -0.0214 -2.6519
 8326TIP3    H246470   5.741   0.859  15.371  0.8578 -0.6313  0.3066
 8327TIP3   OH246471   6.777   0.557   5.807  0.3563  0.0703 -0.2359
 8327TIP3    H146472   6.861   0.536   5.766  1.2350  1.9727  0.5679
 8327TIP3    H246473   6.798   0.570   5.900 -0.6271  1.6511 -0.2216
 8328TIP3   OH246474   1.848   0.667   5.429  0.4080 -0.6626  0.6776
 8328TIP3    H146475   1.795   0.598   5.390  1.4767 -0.0121 -2.0184
 8328TIP3    H246476   1.938   0.645   5.405  0.6301  2.7452 -2.1872
 8329TIP3   OH246477   6.205   5.147  14.494 -0.1105 -0.0115  0.0142
 8329TIP3    H146478   6.282   5.192  14.528  1.4107 -0.3942 -2.7523
 8329TIP3    H246479   6.131   5.194  14.532  1.4272 -0.5292  3.8693
 8330TIP3   OH246480   4.236   0.128   5.570  0.4768 -0.0136  0.6077
 8330TIP3    H146481   4.294   0.055   5.548  0.0384 -0.3327  0.5119
 8330TIP3    H246482   4.181   0.095   5.640  1.0871  0.6205  1.4028
 8331TIP3   OH246483   6.252   6.494  11.912  0.2689  0.5069 -0.2176
 8331TIP3    H146484   6.205   6.422  11.954 -0.4059  0.9238 -0.2491
 8331TIP3    H246485   6.297   6.539  11.984  1.2862 -0.3756 -0.2907
 8332TIP3   OH246486   2.364   5.755  11.753 -0.1243 -0.0383 -0.1872
 8332TIP3    H146487   2.432   5.779  11.690 -0.4856  1.5597 -0.0001
 8332TIP3    H246488   2.282   5.773  11.707 -0.3895  2.7492  1.3022
 8333TIP3   OH246489   5.472   5.546   0.253  0.5830  0.1593  0.2778
 8333TIP3    H146490   5.567   5.554   0.249  0.5189  0.9065  0.1787
 8333TIP3    H246491   5.457   5.472   0.312  1.1998  0.7060  1.1307
 8334TIP3   OH246492   3.193   3.970  15.738 -0.4763 -0.1919  0.3575
 8334TIP3    H146493   3.217   3.897  15.682 -1.2936 -0.1040 -0.1225
 8334TIP3    H246494   3.125   3.935  15.795 -0.6596  0.1116  0.3266
 8335TIP3   OH246495   2.028   0.422  14.876  0.3133 -0.3979  0.2982
 8335TIP3    H146496   2.097   0.455  14.933  0.6361 -3.0136  1.4484
 8335TIP3    H246497   2.073   0.375  14.806 -0.1487  1.5960 -1.4234
 8336TIP3   OH246498   1.771   5.554  12.072  0.2214 -0.0068  0.0266
 8336TIP3    H146499   1.863   5.556  12.099  1.2198 -2.2735 -2.9036
 8336TIP3    H246500   1.740   5.644  12.087  2.9646  0.8769  0.8188
 8337TIP3   OH246501   6.249   5.879  11.675 -0.6940 -0.2655 -0.3886
 8337TIP3    H146502   6.238   5.824  11.752 -1.0370  0.5884  0.1727
 8337TIP3    H246503   6.196   5.956  11.692 -1.2969 -0.3601 -1.7693
 8338TIP3   OH246504   4.172   6.588  10.685  0.9362  0.0257  0.3969
 8338TIP3    H146505   4.250   6.622  10.641  2.0843 -2.4017  0.5163
 8338TIP3    H246506   4.122   6.545  10.615  1.4845 -1.5521  0.9546
 8339TIP3   OH246507   0.337   5.178   1.116 -0.1736 -0.2336  0.1930
 8339TIP3    H146508   0.291   5.255   1.150 -0.7027 -0.8901  0.9778
 8339TIP3    H246509   0.273   5.136   1.059  0.6536  0.7742 -1.5217
 8340TIP3   OH246510   5.277   6.155   1.276  0.3260 -0.1070 -0.1215
 8340TIP3    H146511   5.279   6.072   1.324  1.0376 -0.4690 -0.7821
 8340TIP3    H246512   5.331   6.215   1.329 -1.6564  0.4771  1.3257
 8341TIP3   OH246513   0.340   0.990   4.223  0.0625  0.8611  0.0936
 8341TIP3    H146514   0.256   0.969   4.265  0.4488  0.3334  0.6119
 8341TIP3    H246515   0.348   0.926   4.152 -0.1476  1.1530 -0.1968
 8342TIP3   OH246516   5.422   4.479  15.761 -0.2320  0.4609 -0.0813
 8342TIP3    H146517   5.482   4.482  15.835  0.1355  0.2575 -0.3752
 8342TIP3    H246518   5.339   4.449  15.799  0.2391 -0.6568  0.0554
 8343TIP3   OH246519   3.160   4.596  11.011  0.4888  0.2018  0.2924
 8343TIP3    H146520   3.164   4.501  11.023  0.8813  0.1409 -0.3112
 8343TIP3    H246521   3.222   4.631  11.075  0.2045  0.0669  0.6452
 8344TIP3   OH246522   1.721   0.710  12.458  0.4463 -0.2754 -0.1707
 8344TIP3    H146523   1.637   0.666  12.450 -0.3604  0.8239  1.9105
 8344TIP3    H246524   1.775   0.671  12.390 -2.0153 -0.3570 -2.1392
 8345TIP3   OH246525   6.100   4.448   0.983  0.6708 -0.2407 -0.3271
 8345TIP3    H146526   6.036   4.509   0.947 -0.1430 -1.4997 -1.0777
 8345TIP3    H246527   6.092   4.456   1.078  0.8248  1.0607 -0.4212
 8346TIP3   OH246528   4.849   3.306  13.444 -0.4183  0.0213  0.0827
 8346TIP3    H146529   4.908   3.349  13.382 -0.0497  0.8783  1.0194
 8346TIP3    H246530   4.859   3.213  13.426  1.9504  0.0869  0.8485
 8347TIP3   OH246531   0.300   0.055   4.101  1.1134  0.5990 -0.2180
 8347TIP3    H146532   0.310   0.088   4.190 -0.4285  1.1211 -0.2215
 8347TIP3    H246533   0.347  -0.028   4.100  1.2307  0.6463  1.0515
 8348TIP3   OH246534   1.833   3.434   5.325 -0.4143  0.2622  0.3572
 8348TIP3    H146535   1.794   3.519   5.342 -0.2729  0.3899  0.0461
 8348TIP3    H246536   1.882   3.413   5.405 -2.1701 -0.4928  1.2655
 8349TIP3   OH246537   0.538   3.988  15.819 -0.2681 -0.4037  0.2913
 8349TIP3    H146538   0.576   4.076  15.811  1.0150 -1.1439 -1.8367
 8349TIP3    H246539   0.444   4.003  15.810  0.1039  0.4853 -2.7730
 8350TIP3   OH246540   0.651   2.141   0.485  0.1235  0.4209  0.2290
 8350TIP3    H146541   0.643   2.046   0.486 -1.3017  0.5079 -1.9143
 8350TIP3    H246542   0.745   2.156   0.470  0.1448 -0.6554 -0.8384
 8351TIP3   OH246543   3.863   6.116  14.549  0.0731 -0.0122  0.6683
 8351TIP3    H146544   3.882   6.022  14.543  0.9326  0.1186  1.1687
 8351TIP3    H246545   3.804   6.134  14.476  1.3055 -0.6090 -0.5060
 8352TIP3   OH246546   2.523   4.577  15.519  0.1023 -0.1625 -0.0407
 8352TIP3    H146547   2.618   4.592  15.515 -0.1348  1.1561 -1.0073
 8352TIP3    H246548   2.513   4.500  15.576  1.8423 -1.1803 -1.0618
 8353TIP3   OH246549   6.508   1.049   6.118 -0.3818 -0.2602  0.2680
 8353TIP3    H146550   6.584   1.075   6.169 -0.1080 -0.3502 -0.0906
 8353TIP3    H246551   6.438   1.038   6.182 -0.8436  2.5465  0.3172
 8354TIP3   OH246552   4.461   6.343   4.342 -0.2607  0.6000 -0.4457
 8354TIP3    H146553   4.495   6.427   4.314 -0.1361  0.9450  0.7452
 8354TIP3    H246554   4.377   6.363   4.383 -0.9171 -0.0154 -1.4631
 8355TIP3   OH246555   2.042   3.336  13.990  0.0718 -0.1464 -0.1944
 8355TIP3    H146556   2.096   3.396  14.042 -1.2016  1.6569 -0.8990
 8355TIP3    H246557   1.974   3.306  14.050  2.3920 -3.2999  1.0250
 8356TIP3   OH246558   1.294   1.741  14.106  0.4402  0.4370 -0.3217
 8356TIP3    H146559   1.230   1.811  14.116 -0.1013 -0.0873 -0.1572
 8356TIP3    H246560   1.253   1.664  14.143  1.4163  0.2396  0.3650
 8357TIP3   OH246561   2.060   2.570   0.126  0.2133 -0.1004 -0.0649
 8357TIP3    H146562   2.149   2.536   0.117  0.2505  0.1526 -0.7509
 8357TIP3    H246563   2.052   2.632   0.053 -0.8411 -0.8069 -0.5445
 8358TIP3   OH246564   1.774   5.619   2.153  0.3613  0.2948 -0.1161
 8358TIP3    H146565   1.860   5.648   2.183  0.0315 -1.7175  2.9972
 8358TIP3    H246566   1.712   5.669   2.206 -0.3249 -0.8852  0.2062
 8359TIP3   OH246567   4.251   1.654  12.080 -0.3103 -0.1052 -0.4342
 8359TIP3    H146568   4.300   1.736  12.083  0.5175 -0.4347 -3.3318
 8359TIP3    H246569   4.165   1.679  12.045 -0.4998 -0.2893 -0.1073
 8360TIP3   OH246570   1.984   0.110   1.368 -0.0032 -0.1891 -0.3489
 8360TIP3    H146571   2.000   0.111   1.274 -0.0694  1.2445 -0.3558
 8360TIP3    H246572   1.939   0.192   1.386 -2.0034 -1.4515  0.6042
 8361TIP3   OH246573   3.439   1.466   4.669  0.5713  0.3000  0.2166
 8361TIP3    H146574   3.526   1.506   4.679  0.7091 -0.1735  0.9392
 8361TIP3    H246575   3.388   1.502   4.741  0.5015 -0.3131  0.4741
 8362TIP3   OH246576   4.830   0.380   0.676 -0.0112  0.1253  0.0997
 8362TIP3    H146577   4.901   0.397   0.738  0.3344  0.5815 -0.4156
 8362TIP3    H246578   4.786   0.464   0.666 -0.3889 -0.0676  0.1203
 8363TIP3   OH246579   3.094   2.699  15.397 -0.3095 -0.0123  0.1526
 8363TIP3    H146580   3.104   2.622  15.452 -1.2650 -0.0040  0.3571
 8363TIP3    H246581   2.999   2.710  15.388 -0.1710  0.3499 -0.9808
 8364TIP3   OH246582   4.865   1.682   5.029  0.2937 -0.0713 -0.0449
 8364TIP3    H146583   4.921   1.658   5.103  0.2893 -2.4954 -0.7946
 8364TIP3    H246584   4.864   1.605   4.973 -0.8309  1.2414 -1.9078
 8365TIP3   OH246585   1.733   0.447   2.783  0.0226  0.7367  0.1223
 8365TIP3    H146586   1.821   0.411   2.791  0.5383  2.0922  0.6413
 8365TIP3    H246587   1.687   0.385   2.726  1.4249  0.2385 -0.4970
 8366TIP3   OH246588   1.709   5.709  12.762 -0.3098  0.4440  0.3434
 8366TIP3    H146589   1.776   5.765  12.723  0.4651 -0.9529 -0.3486
 8366TIP3    H246590   1.640   5.770  12.789  0.2283  1.6816 -0.9894
 8367TIP3   OH246591   3.859   6.283   2.568  0.8717  0.1187  0.2987
 8367TIP3    H146592   3.873   6.195   2.534 -0.1486  0.7254 -1.7518
 8367TIP3    H246593   3.781   6.315   2.522  0.5769  1.6873  1.8248
 8368TIP3   OH246594   5.343   5.259   2.177  0.1852  0.1597  0.4858
 8368TIP3    H146595   5.311   5.235   2.090  0.1114  1.2932  0.1968
 8368TIP3    H246596   5.430   5.296   2.162  0.0214  0.7000  0.8399
 8369TIP3   OH246597   5.193   3.868  12.361  0.0387  0.2316  0.2824
 8369TIP3    H146598   5.204   3.963  12.357 -1.2992  0.4255  0.9389
 8369TIP3    H246599   5.181   3.842  12.270  3.3225  0.2817 -0.2426
 8370TIP3   OH246600   5.026   2.829   5.697 -0.7673 -0.5500 -0.0199
 8370TIP3    H146601   5.012   2.921   5.718 -0.3742 -0.7793  1.3063
 8370TIP3    H246602   4.942   2.800   5.662 -0.7452  0.4321 -0.9103
 8371TIP3   OH246603   2.009   4.429   1.203 -0.0060 -0.7573 -0.0629
 8371TIP3    H146604   1.923   4.407   1.238 -0.4763 -1.4506 -1.6150
 8371TIP3    H246605   2.007   4.524   1.192 -0.3699 -0.7055  0.4577
 8372TIP3   OH246606   3.680   0.800  14.670 -0.0046 -0.4407  0.5933
 8372TIP3    H146607   3.747   0.865  14.693 -0.3440  0.6597 -1.3788
 8372TIP3    H246608   3.654   0.762  14.754  2.9863 -0.8195  1.4273
 8373TIP3   OH246609   3.107   4.542  16.287  0.0136  0.0556 -0.1047
 8373TIP3    H146610   3.059   4.554  16.368  1.9459 -3.0339  1.5655
 8373TIP3    H246611   3.199   4.552  16.311  0.5996 -0.4021 -2.0149
 8374TIP3   OH246612   4.911   5.833  14.846 -0.0959  0.2294  0.0297
 8374TIP3    H146613   4.917   5.923  14.880  0.1198  0.3206 -0.2454
 8374TIP3    H246614   4.818   5.815  14.844 -0.0558 -0.4755  2.4788
 8375TIP3   OH246615   3.985   2.748  14.123  0.5411  0.4391 -0.2207
 8375TIP3    H146616   3.949   2.794  14.199 -1.1303  0.7427 -1.1751
 8375TIP3    H246617   3.981   2.656  14.148  0.7556  0.5838  0.3721
 8376TIP3   OH246618   4.497   0.887  14.137 -0.2736  0.1727  0.2550
 8376TIP3    H146619   4.435   0.960  14.128 -0.6366 -0.1070  0.5009
 8376TIP3    H246620   4.554   0.913  14.209  0.5822  0.9263 -0.6790
 8377TIP3   OH246621   6.162   5.829   6.473 -0.3591 -0.4252  0.2229
 8377TIP3    H146622   6.144   5.910   6.426  0.1461 -0.7733 -0.5798
 8377TIP3    H246623   6.248   5.843   6.513  0.7248 -1.3488 -1.7023
 8378TIP3   OH246624   5.300   1.516   3.269  0.4567 -0.5350  0.3270
 8378TIP3    H146625   5.322   1.460   3.194 -0.1499 -1.0524  0.5258
 8378TIP3    H246626   5.236   1.578   3.234  0.6261 -0.3889  0.2729
 8379TIP3   OH246627   0.265   4.134   0.148  0.2716 -0.0544  0.0138
 8379TIP3    H146628   0.287   4.098   0.233  1.7992  0.7943  0.0010
 8379TIP3    H246629   0.251   4.227   0.165  1.2744  0.2495 -0.7577
 8380TIP3   OH246630   1.868   3.999   4.330 -0.4116 -0.9144 -0.4155
 8380TIP3    H146631   1.904   3.971   4.246  0.7771  1.2097 -0.6481
 8380TIP3    H246632   1.935   3.974   4.394 -0.9285 -1.7487 -0.1901
 8381TIP3   OH246633   4.021   3.437   5.307  0.1799  0.3110  0.5961
 8381TIP3    H146634   3.925   3.446   5.307  0.0726 -0.7231  0.1829
 8381TIP3    H246635   4.045   3.438   5.214  0.3852 -1.0954  0.6204
 8382TIP3   OH246636   5.430   0.919  15.254  0.1989  0.2270 -0.1090
 8382TIP3    H146637   5.341   0.918  15.290 -0.8627  0.6458 -2.5578
 8382TIP3    H246638   5.481   0.864  15.313 -1.3377  1.2050  2.1940
 8383TIP3   OH246639   4.474   3.794  13.947  0.9081  0.9197  0.6576
 8383TIP3    H146640   4.472   3.708  13.988 -1.8820  1.2543  1.3504
 8383TIP3    H246641   4.442   3.854  14.015  1.2920  2.2701 -0.3264
 8384TIP3   OH246642   2.747   5.750  12.498  0.3630 -0.6042 -0.2791
 8384TIP3    H146643   2.721   5.749  12.405  0.1380 -0.3990 -0.2177
 8384TIP3    H246644   2.839   5.723  12.497  0.5660  0.0889 -0.6281
 8385TIP3   OH246645   4.306   0.007  16.180  0.1587 -0.5306  0.5363
 8385TIP3    H146646   4.231  -0.011  16.123  0.0482 -1.0767  0.8459
 8385TIP3    H246647   4.312   0.102  16.183 -0.6793 -0.4801  0.7009
 8386TIP3   OH246648   5.997   2.094   0.819  0.3770  0.1445 -0.1717
 8386TIP3    H146649   5.937   2.131   0.753 -0.7811  1.4819  1.5593
 8386TIP3    H246650   5.958   2.121   0.903  1.2106 -2.4651  1.0792
 8387TIP3   OH246651   3.612   1.822  14.455  0.1037  0.0457 -0.7129
 8387TIP3    H146652   3.578   1.748  14.405 -0.7925 -0.8615  1.1950
 8387TIP3    H246653   3.544   1.841  14.520  0.3553  2.5139 -1.1443
 8388TIP3   OH246654   4.551   5.737   4.116 -0.0013 -0.2148  0.5042
 8388TIP3    H146655   4.639   5.722   4.150  0.4156  2.0855  0.5252
 8388TIP3    H246656   4.520   5.650   4.092  3.0783 -0.8608 -1.4774
 8389TIP3   OH246657   1.305   1.651  12.404 -0.1190 -0.1219  0.9686
 8389TIP3    H146658   1.228   1.654  12.462 -1.2829  2.9505 -0.6449
 8389TIP3    H246659   1.272   1.679  12.319  2.5255 -0.1446 -0.0994
 8390TIP3   OH246660   5.475   3.810   0.069  0.0512 -0.1592 -0.2868
 8390TIP3    H146661   5.476   3.813  -0.026 -0.8226  0.3142 -0.2812
 8390TIP3    H246662   5.553   3.759   0.092 -0.2175 -1.0252 -1.2771
 8391TIP3   OH246663   4.453   5.486   4.039 -0.0145 -0.5685 -0.3233
 8391TIP3    H146664   4.441   5.427   4.114  0.4532  0.0441  0.2432
 8391TIP3    H246665   4.364   5.502   4.007 -0.3954  0.7029  1.3013
 8392TIP3   OH246666   5.405   3.290  11.234  0.4317 -0.0248  0.7389
 8392TIP3    H146667   5.320   3.322  11.206  0.4082  0.1207  0.9720
 8392TIP3    H246668   5.467   3.325  11.169  0.2903 -0.2967  0.4564
 8393TIP3   OH246669   1.941   0.026  15.818  0.7571 -0.2729 -0.1733
 8393TIP3    H146670   1.938   0.055  15.909 -0.0338 -0.1839 -0.2229
 8393TIP3    H246671   2.019   0.068  15.782 -0.2138  1.6022 -0.1583
 8394TIP3   OH246672   3.168   6.544  16.832  0.1574 -0.2421 -0.5365
 8394TIP3    H146673   3.227   6.618  16.820 -0.0306  0.0305  0.1741
 8394TIP3    H246674   3.109   6.572  16.902 -0.3148 -0.8174 -0.7054
 8395TIP3   OH246675   1.883   6.446  15.736  0.4106 -0.2437  0.3817
 8395TIP3    H146676   1.905   6.356  15.711  0.1433  0.3663 -2.1733
 8395TIP3    H246677   1.788   6.452  15.724  0.3452  0.2225  1.0913
 8396TIP3   OH246678   2.906   0.428   3.234  0.1400 -0.4685 -0.1863
 8396TIP3    H146679   2.860   0.351   3.201 -1.0258 -0.1244  0.5804
 8396TIP3    H246680   2.958   0.459   3.160  1.4460 -2.6082 -0.1822
 8397TIP3   OH246681   1.162   1.602   6.181 -0.1793  0.5200 -0.3248
 8397TIP3    H146682   1.167   1.528   6.241 -0.3916  0.8164  0.0588
 8397TIP3    H246683   1.115   1.670   6.230  1.5244  1.5171 -0.0453
 8398TIP3   OH246684   2.750   1.848   3.998  0.4566 -0.4460 -0.0552
 8398TIP3    H146685   2.777   1.890   4.080  1.0331 -1.5384  0.3274
 8398TIP3    H246686   2.825   1.795   3.972 -0.9081 -2.7400  0.4912
 8399TIP3   OH246687   5.555   2.458  13.184 -0.8695 -0.1363 -0.0988
 8399TIP3    H146688   5.599   2.530  13.139  0.3124 -0.9537 -0.2766
 8399TIP3    H246689   5.590   2.461  13.273  1.2881 -2.1741 -0.8329
 8400TIP3   OH246690   3.915   6.528   2.786  0.0889  0.1678  0.0265
 8400TIP3    H146691   3.984   6.563   2.729  0.4044 -0.5809 -0.0567
 8400TIP3    H246692   3.875   6.457   2.736 -2.5391  2.3045 -0.9899
 8401TIP3   OH246693   0.787   4.408  10.731  0.0952 -0.1241  0.1881
 8401TIP3    H146694   0.829   4.445  10.653 -1.1752 -0.0250 -0.4460
 8401TIP3    H246695   0.811   4.468  10.802  0.8180  0.0679 -0.2186
 8402TIP3   OH246696   0.811   3.141   1.940 -0.5758  0.2705  0.5036
 8402TIP3    H146697   0.877   3.124   1.873  0.3975 -1.0311  1.7505
 8402TIP3    H246698   0.855   3.123   2.023 -1.8763  1.4441  1.4838
 8403TIP3   OH246699   6.112   4.037  13.912 -0.6306 -0.3939 -0.3727
 8403TIP3    H146700   6.130   4.130  13.926  1.6028 -0.9594  0.7044
 8403TIP3    H246701   6.134   4.022  13.820  0.9176 -0.2769 -0.0259
 8404TIP3   OH246702   4.235   2.742   5.445  0.3756  0.0092  0.1025
 8404TIP3    H146703   4.273   2.660   5.477  0.3409  0.5790  1.6385
 8404TIP3    H246704   4.169   2.714   5.381 -0.1417 -1.1922  1.1321
 8405TIP3   OH246705   4.788   6.735  14.050  0.4137 -0.1283 -0.3034
 8405TIP3    H146706   4.829   6.740  13.964  0.2396  2.8059 -0.2817
 8405TIP3    H246707   4.713   6.795  14.044 -0.2813 -0.7707  1.5459
 8406TIP3   OH246708   0.035   3.333  15.867 -0.2072  0.6022  0.0825
 8406TIP3    H146709  -0.010   3.363  15.946  0.2089 -0.2146  0.6355
 8406TIP3    H246710  -0.029   3.277  15.823  0.6559 -1.5514  1.4901
 8407TIP3   OH246711   1.435   4.851  14.531  0.6551  0.0147 -0.0677
 8407TIP3    H146712   1.377   4.869  14.457  0.8826  0.9210 -0.0203
 8407TIP3    H246713   1.463   4.760  14.517  0.8538  0.2417 -1.1937
 8408TIP3   OH246714   1.295   3.318   4.954  0.3918  0.1236 -0.1533
 8408TIP3    H146715   1.365   3.372   4.992  1.8451 -0.8401 -1.3933
 8408TIP3    H246716   1.324   3.228   4.969 -0.2372 -0.2821 -1.3122
 8409TIP3   OH246717   1.066   6.207  16.416 -0.7159  0.4358 -0.1911
 8409TIP3    H146718   1.153   6.245  16.421 -1.1447  1.8704 -2.6398
 8409TIP3    H246719   1.073   6.142  16.345 -1.1076 -0.9833  1.0440
 8410TIP3   OH246720   0.054   1.738   2.276 -0.6344  0.0359  0.3224
 8410TIP3    H146721   0.071   1.782   2.193  0.3669  0.1352  0.5801
 8410TIP3    H246722  -0.041   1.728   2.278 -0.8680  2.0682  0.2164
 8411TIP3   OH246723   6.253   2.888  17.116 -0.2213 -0.3335 -0.2767
 8411TIP3    H146724   6.258   2.934  17.200  2.4568  0.1979 -0.6730
 8411TIP3    H246725   6.331   2.832  17.114 -0.6626 -0.9392 -2.0651
 8412TIP3   OH246726   6.014   6.602  16.750 -0.2586 -0.1599 -0.3329
 8412TIP3    H146727   6.089   6.661  16.737 -0.6459  0.2914 -0.5102
 8412TIP3    H246728   5.980   6.624  16.836 -0.8096  0.3406 -0.6711
 8413TIP3   OH246729   1.001   0.413   0.695  0.1746  0.0865 -0.0229
 8413TIP3    H146730   0.932   0.374   0.748 -1.0437  2.5657  0.3156
 8413TIP3    H246731   0.968   0.408   0.605  1.1439 -1.9042 -0.2779
 8414TIP3   OH246732   0.098   0.907   4.339 -0.3706 -0.1566 -0.2936
 8414TIP3    H146733   0.077   0.994   4.373 -1.4616 -0.8060  0.7493
 8414TIP3    H246734   0.160   0.871   4.403 -0.4539 -0.4123 -0.3566
 8415TIP3   OH246735   0.530   2.260  11.345  0.0515  0.2609  0.1700
 8415TIP3    H146736   0.525   2.284  11.438  0.4150  0.6872  0.0825
 8415TIP3    H246737   0.620   2.233  11.332 -0.2219 -0.6422  0.1398
 8416TIP3   OH246738   6.138   2.494   3.848 -0.1345  0.5108 -0.1038
 8416TIP3    H146739   6.228   2.518   3.827  0.6692 -0.6127  1.8380
 8416TIP3    H246740   6.134   2.501   3.944 -1.9971  0.2062 -0.1477
 8417TIP3   OH246741   6.442   1.605  13.499  0.4792  0.2615 -0.6214
 8417TIP3    H146742   6.406   1.521  13.527 -1.0324  0.8940 -0.5976
 8417TIP3    H246743   6.452   1.596  13.404  0.9737 -0.1805 -0.5291
 8418TIP3   OH246744   5.605   0.131   4.377  0.1150  0.9247 -0.3039
 8418TIP3    H146745   5.583   0.199   4.441 -2.6933  1.4055 -1.7039
 8418TIP3    H246746   5.528   0.126   4.321  0.7377 -2.6532 -0.9172
 8419TIP3   OH246747   2.755   0.274  16.789 -0.1801 -0.0512  0.5997
 8419TIP3    H146748   2.719   0.355  16.753 -0.0941 -0.0894  0.4240
 8419TIP3    H246749   2.768   0.218  16.713  0.7983  0.1762  0.5878
 8420TIP3   OH246750   4.205   1.523   1.008 -0.0859 -0.2029 -0.2973
 8420TIP3    H146751   4.163   1.574   1.076  0.3289 -0.2845  0.0239
 8420TIP3    H246752   4.173   1.561   0.926 -0.3501  0.0926 -0.0567
 8421TIP3   OH246753   6.442   6.093   0.609  0.1049  0.1068 -0.3212
 8421TIP3    H146754   6.436   6.048   0.525 -0.0539  0.5013 -0.5245
 8421TIP3    H246755   6.421   6.185   0.589 -1.4707 -0.0768  0.3921
 8422TIP3   OH246756   4.404   5.420  13.221  0.1016 -0.2126  0.2730
 8422TIP3    H146757   4.397   5.477  13.144  1.0402  0.8225  0.9344
 8422TIP3    H246758   4.487   5.446  13.262 -0.4566 -0.6683  1.7079
 8423TIP3   OH246759   4.478   6.770  15.062 -0.3499 -0.3548 -0.4400
 8423TIP3    H146760   4.426   6.851  15.069 -1.7464 -1.3727  1.3680
 8423TIP3    H246761   4.425   6.712  15.009 -1.6799 -1.8269  2.4085
 8424TIP3   OH246762   2.043   5.780  14.325  0.1553 -0.6755 -0.3384
 8424TIP3    H146763   2.115   5.718  14.337  0.7253  0.1115  0.3730
 8424TIP3    H246764   2.085   5.857  14.287 -0.3855 -0.3572 -0.2859
 8425TIP3   OH246765   2.062   6.279  13.738  0.7827 -0.1518  0.3039
 8425TIP3    H146766   2.099   6.305  13.654  0.0942 -0.8913 -0.2197
 8425TIP3    H246767   2.091   6.189  13.750 -0.4299 -0.5588  0.1388
 8426TIP3   OH246768   2.513   3.138  12.298  0.7812 -0.0909 -0.0536
 8426TIP3    H146769   2.532   3.166  12.208 -0.6316 -0.4367 -0.4890
 8426TIP3    H246770   2.513   3.219  12.349 -1.6756  0.5614 -1.0021
 8427TIP3   OH246771   3.057   3.540   4.668 -0.2987 -0.2599 -0.3220
 8427TIP3    H146772   3.090   3.626   4.643  0.5558  0.5713  3.3836
 8427TIP3    H246773   2.962   3.551   4.670 -0.1617  0.9701  1.1114
 8428TIP3   OH246774   3.134   5.387  13.352 -0.2082 -0.0376 -0.0584
 8428TIP3    H146775   3.045   5.372  13.321 -0.7283 -0.2092  1.4742
 8428TIP3    H246776   3.186   5.319  13.310 -0.7842  0.1051 -1.0118
 8429TIP3   OH246777   5.241   0.979   3.224  0.0741 -0.3663 -0.1334
 8429TIP3    H146778   5.271   1.034   3.296 -0.3330 -0.5580  0.1875
 8429TIP3    H246779   5.211   1.041   3.157  2.0181 -0.1565 -0.8369
 8430TIP3   OH246780   1.867   6.484  14.667 -0.1859  0.1012 -0.1487
 8430TIP3    H146781   1.815   6.495  14.587  0.3859 -1.4785 -0.7586
 8430TIP3    H246782   1.954   6.516  14.644 -0.6567  1.9912  0.6265
 8431TIP3   OH246783   2.953   4.906   5.994 -0.3612  0.1400 -0.2668
 8431TIP3    H146784   3.023   4.950   5.946 -0.9030  0.9614 -0.3138
 8431TIP3    H246785   2.998   4.859   6.064  0.4742 -1.4220 -1.8206
 8432TIP3   OH246786   4.664   5.981  13.926 -0.2387  0.0857  0.1574
 8432TIP3    H146787   4.590   6.040  13.909 -0.7902 -0.7912 -0.5207
 8432TIP3    H246788   4.632   5.894  13.901  1.3174 -0.1851 -0.9622
 8433TIP3   OH246789   0.239   3.083   5.322 -0.0798  0.2105 -0.5886
 8433TIP3    H146790   0.194   3.027   5.386  0.5747  0.4575  0.0869
 8433TIP3    H246791   0.264   3.022   5.252  0.2453 -0.2768 -0.0592
 8434TIP3   OH246792   4.199   2.658  17.114 -0.3350 -0.6022 -0.0761
 8434TIP3    H146793   4.138   2.617  17.053 -0.5217 -0.4442  0.0017
 8434TIP3    H246794   4.182   2.752  17.104 -1.3524 -0.6278  1.2136
 8435TIP3   OH246795   3.560   6.383  13.286  0.2429 -0.4900  0.0380
 8435TIP3    H146796   3.500   6.310  13.300  0.3439 -0.6705 -0.4566
 8435TIP3    H246797   3.594   6.370  13.198  0.2936  0.1330 -0.0430
 8436TIP3   OH246798   3.411   0.593   5.508  0.0519  0.2006  0.1884
 8436TIP3    H146799   3.421   0.654   5.581  1.1345  0.9930 -0.6078
 8436TIP3    H246800   3.486   0.534   5.515  0.8210  1.0264 -0.9770
 8437TIP3   OH246801   0.621   5.551  15.097  0.0691 -1.0297  0.4970
 8437TIP3    H146802   0.547   5.607  15.074 -0.8837 -2.0165  1.0956
 8437TIP3    H246803   0.672   5.543  15.017 -0.0701  0.2671  0.2774
 8438TIP3   OH246804   6.075   4.259  12.748 -0.2073 -0.2760 -0.2500
 8438TIP3    H146805   6.016   4.186  12.727 -0.8780  0.1605  0.0991
 8438TIP3    H246806   6.048   4.329  12.689  0.1709 -0.1790 -0.3055
 8439TIP3   OH246807   5.464   6.120   4.043  0.4106 -0.1794  0.9438
 8439TIP3    H146808   5.515   6.079   3.974  0.3198  0.5705  0.4202
 8439TIP3    H246809   5.428   6.199   4.003  2.7358  1.8450  2.6315
 8440TIP3   OH246810   4.576   0.071   3.902 -0.2391 -0.2142  0.2011
 8440TIP3    H146811   4.658   0.023   3.912 -0.3932 -0.7652 -1.0408
 8440TIP3    H246812   4.601   0.154   3.863 -0.2652 -0.3621 -0.1308
 8441TIP3   OH246813   1.545   0.508   0.582 -0.0954  0.2973 -0.4009
 8441TIP3    H146814   1.470   0.530   0.527 -0.3644  2.7967  0.9099
 8441TIP3    H246815   1.517   0.529   0.671  1.1724 -1.4342  0.4338
 8442TIP3   OH246816   2.983   4.665   6.173  0.0673 -0.3103 -0.2512
 8442TIP3    H146817   3.026   4.735   6.222 -1.8034  0.2214  0.6980
 8442TIP3    H246818   2.974   4.594   6.236 -1.8836  0.1873  0.0706
 8443TIP3   OH246819   3.203   0.784  16.988  0.1064 -0.0750 -0.6093
 8443TIP3    H146820   3.288   0.768  16.947  0.9917 -0.2484  1.2661
 8443TIP3    H246821   3.221   0.786  17.082 -2.0651 -0.7986 -0.1462
 8444TIP3   OH246822   0.707   5.777   3.986  0.3612 -0.2830  0.0468
 8444TIP3    H146823   0.792   5.749   4.019 -0.0333  0.3233  1.6290
 8444TIP3    H246824   0.647   5.705   4.007 -0.0910  0.5240  1.5967
 8445TIP3   OH246825   2.749   2.615   4.506  0.4356 -0.4054  0.1939
 8445TIP3    H146826   2.713   2.700   4.478  1.1039 -0.2782 -0.2823
 8445TIP3    H246827   2.838   2.636   4.535  0.5772 -0.9414  0.1344
 8446TIP3   OH246828   2.489   1.137   5.919 -0.5470  0.0124 -0.5918
 8446TIP3    H146829   2.477   1.088   5.837 -1.2457  0.9583 -1.0578
 8446TIP3    H246830   2.401   1.147   5.955 -0.6962  2.6812 -1.5412
 8447TIP3   OH246831   5.596   0.175   4.830 -0.0531 -0.2599  0.1942
 8447TIP3    H146832   5.545   0.196   4.908 -0.5593 -2.0133  0.3571
 8447TIP3    H246833   5.608   0.080   4.834  0.4714 -0.2844 -1.5210
 8448TIP3   OH246834   1.311   4.746   4.745  0.4912 -0.8107  0.0945
 8448TIP3    H146835   1.258   4.825   4.737  0.1713 -1.0728 -0.3541
 8448TIP3    H246836   1.293   4.696   4.666  2.2652 -0.3870 -0.5968
 8449TIP3   OH246837   5.191   4.954  12.044 -0.0514 -0.2649 -0.6266
 8449TIP3    H146838   5.097   4.973  12.036 -0.5530 -2.7308 -0.8103
 8449TIP3    H246839   5.225   4.963  11.955  0.0893  1.4499 -0.4294
 8450TIP3   OH246840   1.649   0.105  13.600  0.2201  0.1118 -0.0905
 8450TIP3    H146841   1.657   0.044  13.528  1.2479  2.0366 -1.6575
 8450TIP3    H246842   1.739   0.133  13.619 -0.0167 -0.4372  2.0076
 8451TIP3   OH246843   6.381   3.451   0.061  0.5082  0.3943  0.1399
 8451TIP3    H146844   6.337   3.373   0.028 -0.4050  0.8228  0.3158
 8451TIP3    H246845   6.377   3.513  -0.012  2.2216 -0.0915 -0.3908
 8452TIP3   OH246846   1.297   2.472  14.179  0.0572  0.6186 -0.1229
 8452TIP3    H146847   1.330   2.559  14.161 -0.8104  0.8625 -0.5632
 8452TIP3    H246848   1.359   2.413  14.136  0.6244  1.0173  0.1493
 8453TIP3   OH246849   2.242   2.077   0.880  0.3854 -0.5169 -0.3572
 8453TIP3    H146850   2.322   2.044   0.840  0.8133  0.5795 -0.4363
 8453TIP3    H246851   2.176   2.071   0.812  0.5141 -0.9712 -0.4433
 8454TIP3   OH246852   6.632   5.316  11.321  0.3771 -0.3087 -0.3290
 8454TIP3    H146853   6.625   5.249  11.253  0.6362 -1.4504  0.7502
 8454TIP3    H246854   6.706   5.287  11.375  1.4652  1.6635 -0.7322
 8455TIP3   OH246855   4.548   0.218   5.368  0.2913 -0.4969  0.5241
 8455TIP3    H146856   4.599   0.225   5.449  0.3842 -0.3862  0.4564
 8455TIP3    H246857   4.504   0.302   5.360  1.3443 -0.0078 -0.2455
 8456TIP3   OH246858   1.050   0.226  17.084  0.1764 -0.4472 -1.0917
 8456TIP3    H146859   1.063   0.173  17.162  1.0884  2.1089  0.5506
 8456TIP3    H246860   0.966   0.195  17.048 -0.7554 -0.9821  1.4342
 8457TIP3   OH246861   0.382   6.105   3.056 -0.6493 -0.1216  0.0860
 8457TIP3    H146862   0.355   6.090   2.966  0.8098  0.9621 -0.5521
 8457TIP3    H246863   0.455   6.044   3.070  0.0786  0.7328  0.0498
 8458TIP3   OH246864   4.692   5.371   3.884 -0.1765 -0.0800 -0.6349
 8458TIP3    H146865   4.632   5.405   3.950 -0.7773 -0.3320 -1.0426
 8458TIP3    H246866   4.717   5.284   3.916 -1.1723 -0.5769 -1.1659
 8459TIP3   OH246867   6.449   1.937  11.175 -0.6218 -0.1700 -0.3827
 8459TIP3    H146868   6.420   1.999  11.242 -1.5571 -0.7857 -0.2073
 8459TIP3    H246869   6.378   1.935  11.112 -1.1099 -1.9429  0.2137
 8460TIP3   OH246870   1.035   4.098   2.458  0.1142  0.0403  0.0865
 8460TIP3    H146871   0.986   4.149   2.523 -3.2557 -1.2899 -1.2614
 8460TIP3    H246872   1.025   4.007   2.487 -0.3700 -0.4561 -1.5434
 8461TIP3   OH246873   4.364   0.313  12.215  0.0368  0.0385 -0.5352
 8461TIP3    H146874   4.351   0.223  12.184  1.8389 -0.7088  0.7560
 8461TIP3    H246875   4.449   0.311  12.258  0.1817  2.4323 -0.6438
 8462TIP3   OH246876   6.130   3.363   4.469  0.4291  0.4401 -0.5610
 8462TIP3    H146877   6.049   3.320   4.498  1.3381 -0.3187  0.9701
 8462TIP3    H246878   6.133   3.444   4.519  0.7542  0.3151 -0.3730
 8463TIP3   OH246879   0.671   2.058   0.119 -0.5948 -0.5328  0.6969
 8463TIP3    H146880   0.601   2.110   0.159  1.7815  0.1382  4.1829
 8463TIP3    H246881   0.660   1.971   0.157 -0.5626 -0.8814 -0.0820
 8464TIP3   OH246882   6.759   4.249  11.216 -0.1439 -0.2090 -0.1739
 8464TIP3    H146883   6.714   4.216  11.138  1.6117 -0.8337 -0.9472
 8464TIP3    H246884   6.851   4.249  11.191  0.3625  0.2261  1.6883
 8465TIP3   OH246885   0.786   5.829  12.746 -0.7428  0.2275 -0.2871
 8465TIP3    H146886   0.855   5.775  12.785 -1.0090  0.5070  0.5835
 8465TIP3    H246887   0.818   5.919  12.753 -1.1362  0.3468  0.0021
 8466TIP3   OH246888   0.050   4.038  11.577  0.3314 -0.5141 -0.1609
 8466TIP3    H146889   0.081   4.080  11.657  0.8535 -0.4470 -0.3975
 8466TIP3    H246890  -0.020   4.096  11.546  0.0771 -0.5813  0.2845
 8467TIP3   OH246891   1.307   5.629   0.580 -0.6362  0.5740 -0.3705
 8467TIP3    H146892   1.331   5.645   0.489  0.7991  1.2085  0.0881
 8467TIP3    H246893   1.370   5.564   0.611 -0.6486  0.8912  0.3550
 8468TIP3   OH246894   2.861   0.995  12.267  0.7185 -0.0802 -0.0538
 8468TIP3    H146895   2.772   0.970  12.242 -0.1743  2.2748  0.6713
 8468TIP3    H246896   2.893   1.047  12.193  0.0098  2.4180  1.3491
 8469TIP3   OH246897   1.882   0.594  14.724 -0.0067 -0.2337  0.2483
 8469TIP3    H146898   1.803   0.542  14.705  0.4800 -0.7786 -0.3113
 8469TIP3    H246899   1.940   0.533  14.769  0.2873  0.0281  0.2265
 8470TIP3   OH246900   4.959   3.847  11.157  0.2954  0.0056  0.0144
 8470TIP3    H146901   5.000   3.851  11.243 -1.4202  0.1038  0.8579
 8470TIP3    H246902   4.873   3.887  11.170 -1.0144 -2.3405 -1.1163
 8471TIP3   OH246903   1.604   1.178   3.626 -0.0974 -0.3381  0.4971
 8471TIP3    H146904   1.655   1.238   3.680  0.0123 -0.4636  0.5317
 8471TIP3    H246905   1.669   1.123   3.583 -0.0854  0.9343 -1.1614
 8472TIP3   OH246906   0.876   4.137   0.284 -0.0002  0.3663 -0.2653
 8472TIP3    H146907   0.931   4.211   0.256  0.7200  0.1614  0.6011
 8472TIP3    H246908   0.877   4.141   0.379 -0.0315 -0.7188 -0.2156
 8473TIP3   OH246909   2.698   5.748  15.019 -0.3092  0.8354 -0.0808
 8473TIP3    H146910   2.715   5.791  15.103  1.8155  0.5225 -0.3302
 8473TIP3    H246911   2.619   5.696  15.034 -0.2710  1.2233  1.5534
 8474TIP3   OH246912   6.564   2.865   5.529  0.7311 -0.0887  0.1504
 8474TIP3    H146913   6.476   2.873   5.491  0.3827  1.1497  1.1805
 8474TIP3    H246914   6.623   2.898   5.461  0.5073 -1.8575 -0.9326
 8475TIP3   OH246915   2.836   6.141   3.345  0.1661 -0.8344 -0.5135
 8475TIP3    H146916   2.885   6.215   3.381 -2.3706  0.7731 -0.2105
 8475TIP3    H246917   2.902   6.074   3.330  2.3375  0.9747  0.5416
 8476TIP3   OH246918   2.480   3.544  12.873  0.1725  0.7244 -0.2450
 8476TIP3    H146919   2.431   3.626  12.864  0.9464  1.3259  0.8819
 8476TIP3    H246920   2.565   3.562  12.833  0.1174  0.2591 -0.5721
 8477TIP3   OH246921   4.210   6.745   6.007 -0.5103 -0.6650 -0.0481
 8477TIP3    H146922   4.246   6.657   5.999 -0.9601 -0.8337 -0.1980
 8477TIP3    H246923   4.172   6.748   6.095  2.0564  0.3214  1.0892
 8478TIP3   OH246924   3.127   3.357   5.969  0.5897  0.6552  0.6029
 8478TIP3    H146925   3.116   3.417   5.894 -1.1045 -0.7162 -0.2794
 8478TIP3    H246926   3.037   3.337   5.997  1.1130 -1.8078  0.6152
 8479TIP3   OH246927   2.179   4.600   4.391  0.1273  0.9798  0.0636
 8479TIP3    H146928   2.177   4.549   4.472  1.3139 -1.5990 -1.4734
 8479TIP3    H246929   2.094   4.644   4.388 -0.8711 -0.7816  1.5185
 8480TIP3   OH246930   0.705   6.105  13.512 -0.4802  0.6697  0.5031
 8480TIP3    H146931   0.759   6.168  13.464  0.1237 -0.5813 -0.4938
 8480TIP3    H246932   0.615   6.136  13.499 -0.3868  0.0284 -1.9975
 8481TIP3   OH246933   3.189   6.005   3.900  0.2663 -0.5772  0.0478
 8481TIP3    H146934   3.165   6.005   3.808  0.7003  0.6218 -0.0720
 8481TIP3    H246935   3.108   5.979   3.945 -0.4733  0.6265 -0.5504
 8482TIP3   OH246936   3.665   0.480   5.505  0.0388  0.0058 -0.2492
 8482TIP3    H146937   3.725   0.410   5.479  1.0037  0.4097  0.8176
 8482TIP3    H246938   3.653   0.466   5.599 -0.9086  0.4121 -0.3131
 8483TIP3   OH246939   5.491   3.604   1.692  0.2295 -0.2917 -0.9130
 8483TIP3    H146940   5.507   3.604   1.598  1.5300 -0.5288 -0.7096
 8483TIP3    H246941   5.577   3.620   1.731 -0.1549 -0.9305  0.2446
 8484TIP3   OH246942   5.422   4.611  15.533 -0.4432 -0.1539  0.3482
 8484TIP3    H146943   5.435   4.536  15.591 -2.1443 -0.0465  0.8965
 8484TIP3    H246944   5.333   4.641  15.552 -0.7278  0.4108 -1.6784
 8485TIP3   OH246945   1.880   5.993  14.118  0.5244 -0.9929 -0.6949
 8485TIP3    H146946   1.793   5.999  14.078 -0.5512 -0.5616  1.6417
 8485TIP3    H246947   1.884   6.066  14.180  2.5677 -0.9960 -0.7736
 8486TIP3   OH246948   1.027   6.294  17.259  0.4825 -0.7350 -0.3804
 8486TIP3    H146949   1.053   6.216  17.210  1.7202 -0.1333 -0.7144
 8486TIP3    H246950   1.035   6.269  17.351  0.3062 -1.1795 -0.4836
 8487TIP3   OH246951   6.409   2.210   4.480  0.4089  0.1067 -0.0679
 8487TIP3    H146952   6.408   2.305   4.467 -3.6885  0.1494 -0.0034
 8487TIP3    H246953   6.447   2.175   4.400 -0.5037  1.6844 -1.2151
 8488TIP3   OH246954   0.024   0.823   1.957 -0.1222 -0.6418 -0.4316
 8488TIP3    H146955  -0.063   0.801   1.924  0.8790 -1.6506 -2.4945
 8488TIP3    H246956   0.044   0.754   2.020 -0.6018 -0.7156 -0.3653
 8489TIP3   OH246957   1.112   2.422   5.135  0.5434 -0.3589 -0.2486
 8489TIP3    H146958   1.051   2.379   5.194  0.2929 -0.0715 -0.2962
 8489TIP3    H246959   1.198   2.395   5.166  0.4377  0.2629  0.6289
 8490TIP3   OH246960   6.317   1.832   0.461  0.4018 -0.3507  0.1127
 8490TIP3    H146961   6.287   1.893   0.528 -1.4205 -1.2825  0.1867
 8490TIP3    H246962   6.272   1.861   0.381 -1.4133 -2.2722  0.4010
 8491TIP3   OH246963   3.023   5.551  16.169  0.1977 -0.5763 -0.1968
 8491TIP3    H146964   3.025   5.456  16.180 -0.2641 -0.6669 -0.8551
 8491TIP3    H246965   3.034   5.565  16.075  0.7467  0.0455 -0.0460
 8492TIP3   OH246966   1.166   2.200  15.907 -0.0939 -0.2081  0.5577
 8492TIP3    H146967   1.235   2.133  15.902 -1.0559 -1.3688  2.2842
 8492TIP3    H246968   1.190   2.264  15.840  0.7840 -2.3592 -1.2550
 8493TIP3   OH246969   1.198   2.359   1.343 -0.0236 -0.0548 -0.1092
 8493TIP3    H146970   1.185   2.453   1.354 -0.6383 -0.0107 -1.1794
 8493TIP3    H246971   1.202   2.325   1.432 -0.9455  0.8331  0.2769
 8494TIP3   OH246972   4.429   4.223  14.293  0.7867  0.5279 -0.4098
 8494TIP3    H146973   4.390   4.183  14.371  1.5011 -0.1770 -0.4073
 8494TIP3    H246974   4.507   4.268  14.325  1.5388 -0.4571 -0.8347
 8495TIP3   OH246975   2.639   4.550   2.136 -0.3432  0.3992 -0.0178
 8495TIP3    H146976   2.678   4.463   2.136 -1.3339 -0.0810  1.9505
 8495TIP3    H246977   2.605   4.561   2.048 -0.4916 -1.3585 -0.2048
 8496TIP3   OH246978   5.799   4.390   1.650 -0.0624  0.2220  0.3731
 8496TIP3    H146979   5.715   4.364   1.614 -0.5518  0.7347  1.1144
 8496TIP3    H246980   5.857   4.316   1.634 -0.8549 -0.4327  0.5341
 8497TIP3   OH246981   1.496   1.047   2.375 -0.6155  0.2105  0.1238
 8497TIP3    H146982   1.475   1.042   2.468  1.0000 -1.0295  0.4407
 8497TIP3    H246983   1.499   0.956   2.345 -0.0678  0.5508 -0.8969
 8498TIP3   OH246984   0.804   6.424  14.967  0.3090 -0.5725 -0.4613
 8498TIP3    H146985   0.872   6.379  14.916  0.3117 -0.3950 -0.6133
 8498TIP3    H246986   0.791   6.368  15.044  2.1143  0.4504  0.6126
 8499TIP3   OH246987   1.623   1.156  14.379 -0.3599 -0.1702 -0.1853
 8499TIP3    H146988   1.566   1.158  14.303 -2.1192  0.2917  1.1116
 8499TIP3    H246989   1.654   1.247  14.388 -1.8641  0.2649  0.8753
 8500TIP3   OH246990   5.028   6.247  15.043 -0.0889 -0.0399  0.1759
 8500TIP3    H146991   5.107   6.285  15.080 -0.7096  0.2846  1.2278
 8500TIP3    H246992   4.960   6.312  15.060 -0.5148 -0.1788 -0.9887
 8501TIP3   OH246993   5.705   3.874   0.871  0.0168  0.0069 -0.0104
 8501TIP3    H146994   5.776   3.828   0.828  0.0004 -0.2163  0.2051
 8501TIP3    H246995   5.735   3.889   0.960  0.3116  1.0408 -0.2704
 8502TIP3   OH246996   0.971   1.618  13.169 -0.2516  0.1208  0.2232
 8502TIP3    H146997   1.004   1.683  13.106 -0.5855  0.3496  0.2812
 8502TIP3    H246998   1.034   1.547  13.165 -0.7452 -0.2616 -1.0431
 8503TIP3   OH246999   1.361   2.932  17.169  0.0706 -0.9622  0.0334
 8503TIP3    H147000   1.319   3.015  17.192  0.6482 -1.0439  1.4454
 8503TIP3    H247001   1.288   2.871  17.159 -0.1601 -1.3702  3.5976
 8504TIP3   OH247002   5.101   2.363  10.795 -0.9282  0.5441 -0.2787
 8504TIP3    H147003   5.150   2.300  10.742 -0.6335  1.4034 -1.0423
 8504TIP3    H247004   5.156   2.442  10.796 -2.3387  1.5824 -1.2806
 8505TIP3   OH247005   0.451   6.085  17.141  0.3045 -0.0562  0.2719
 8505TIP3    H147006   0.527   6.136  17.113 -1.2104  0.5835 -2.8745
 8505TIP3    H247007   0.383   6.106  17.077 -1.1291 -4.1644  0.3138
 8506TIP3   OH247008   1.439   4.933   0.480  0.0644 -0.2925  0.1338
 8506TIP3    H147009   1.530   4.943   0.506 -0.1204 -0.7612  0.9641
 8506TIP3    H247010   1.400   5.019   0.498  0.5863  0.2796 -1.3021
 8507TIP3   OH247011   3.843   6.817   3.266 -1.1118 -0.0403  0.0543
 8507TIP3    H147012   3.766   6.837   3.319 -1.7387 -2.3640  0.0789
 8507TIP3    H247013   3.807   6.784   3.183 -0.1781 -1.4849  0.2049
 8508TIP3   OH247014   5.783   2.746   3.880  0.2593 -0.3437 -0.4915
 8508TIP3    H147015   5.762   2.828   3.925  0.1991  1.0418 -2.9343
 8508TIP3    H247016   5.854   2.770   3.820  0.7261 -2.2542 -0.7290
 8509TIP3   OH247017   0.897   2.131  14.120 -0.1925 -0.1880 -0.5002
 8509TIP3    H147018   0.888   2.123  14.025  1.5607 -0.0285 -0.6866
 8509TIP3    H247019   0.963   2.199  14.133 -0.3787 -0.2494  0.8329
 8510TIP3   OH247020   3.957   4.318  15.892  0.0378 -0.3958  0.3111
 8510TIP3    H147021   3.903   4.254  15.937 -1.0821 -0.3199 -0.8854
 8510TIP3    H247022   3.928   4.402  15.927 -3.4010 -0.0483 -3.0522
 8511TIP3   OH247023   1.624   0.022   6.005 -0.4575  0.1071  0.3781
 8511TIP3    H147024   1.678   0.044   6.081  0.9150 -1.9816  0.0438
 8511TIP3    H247025   1.534   0.026   6.038  0.1495 -1.5860  2.3670
 8512TIP3   OH247026   1.937   3.865  16.621  0.0687  0.3281 -0.0368
 8512TIP3    H147027   1.889   3.797  16.574 -0.5497  0.2809  0.6647
 8512TIP3    H247028   1.945   3.937  16.558  0.1851 -0.1544 -0.5735
 8513TIP3   OH247029   4.366   4.112   0.974 -0.1198  0.4535  0.0189
 8513TIP3    H147030   4.283   4.137   0.935  0.3858  1.4533 -0.4283
 8513TIP3    H247031   4.390   4.185   1.031 -0.3904 -0.5882  1.4861
 8514TIP3   OH247032   0.930   4.881   1.423  0.4525 -0.1608 -0.0215
 8514TIP3    H147033   0.873   4.848   1.493  0.1516  0.9151  0.2485
 8514TIP3    H247034   0.959   4.967   1.454  1.4958 -0.3146 -0.5684
 8515TIP3   OH247035   1.999   0.011  13.160 -0.1486 -0.2514  0.3351
 8515TIP3    H147036   1.946  -0.031  13.092  0.1336 -1.2086  0.6895
 8515TIP3    H247037   2.089  -0.004  13.133 -0.0531  1.3779 -0.2655
 8516TIP3   OH247038   1.040   4.420  14.701 -0.5684 -0.2821  0.8196
 8516TIP3    H147039   1.093   4.477  14.646  0.6942 -0.4171  1.8501
 8516TIP3    H247040   0.995   4.480  14.761 -1.6051 -0.1647 -0.0821
 8517TIP3   OH247041   2.203   1.100  15.972  0.1533 -0.0423 -0.5741
 8517TIP3    H147042   2.109   1.098  15.989  0.5431 -1.6096  1.6890
 8517TIP3    H247043   2.227   1.192  15.980 -0.6867 -0.0082  1.9714
 8518TIP3   OH247044   6.498   0.486   3.137  0.1308 -0.3315 -0.4882
 8518TIP3    H147045   6.496   0.576   3.169 -1.6465 -0.7483  0.6863
 8518TIP3    H247046   6.414   0.475   3.092 -0.4404 -1.9076  0.8873
 8519TIP3   OH247047   6.178   4.986  12.499 -0.7015 -0.1420 -0.2800
 8519TIP3    H147048   6.153   5.062  12.552  0.0046 -0.1227  0.0276
 8519TIP3    H247049   6.186   5.020  12.410  1.1061  0.4598  0.1041
 8520TIP3   OH247050   4.832   0.722  13.659  0.6076 -0.2838 -0.3286
 8520TIP3    H147051   4.921   0.712  13.627  2.7530  1.3906  4.5586
 8520TIP3    H247052   4.811   0.636  13.697 -0.1955 -0.9024 -2.1291
 8521TIP3   OH247053   1.308   1.355  12.140 -0.3954  0.5098  0.5746
 8521TIP3    H147054   1.242   1.301  12.183 -0.3487 -0.8134 -0.9464
 8521TIP3    H247055   1.258   1.425  12.099 -0.7676  0.0425  0.2217
 8522TIP3   OH247056   3.904   3.087   3.948  0.2572  0.3000  0.0896
 8522TIP3    H147057   3.918   3.027   3.874 -0.4906  0.1334  0.0730
 8522TIP3    H247058   3.991   3.121   3.968  0.7610 -1.0707  0.3435
 8523TIP3   OH247059   0.114   1.059  14.119 -0.7702 -0.0428 -0.3435
 8523TIP3    H147060   0.133   0.978  14.072  0.2532  0.8999 -1.5901
 8523TIP3    H247061   0.094   1.031  14.208  1.5554 -1.5295 -0.2460
 8524TIP3   OH247062   2.249   0.094  15.462  0.2765  0.6244 -0.5756
 8524TIP3    H147063   2.227   0.106  15.555  1.9500 -1.1978  0.0922
 8524TIP3    H247064   2.179   0.140  15.415 -1.7921 -0.2374  1.5320
 8525TIP3   OH247065   4.610   0.232  16.245  0.1236  0.1492 -0.4347
 8525TIP3    H147066   4.650   0.273  16.321 -1.1531  1.2040 -0.3185
 8525TIP3    H247067   4.670   0.252  16.173  1.3247 -0.8333  0.2667
 8526TIP3   OH247068   4.846   5.425  17.198  0.1434 -0.7728 -0.5084
 8526TIP3    H147069   4.761   5.429  17.242  0.9781  1.8976  1.0339
 8526TIP3    H247070   4.895   5.359  17.246 -0.1214 -0.3271  0.3836
 8527TIP3   OH247071   2.317   2.597  17.065  0.2525  0.1152 -0.3670
 8527TIP3    H147072   2.310   2.555  17.152 -0.8466 -1.6974 -1.2993
 8527TIP3    H247073   2.242   2.564  17.017 -0.2335  2.6815 -1.3959
 8528TIP3   OH247074   5.115   3.092  15.545 -0.3738 -0.4748 -0.1547
 8528TIP3    H147075   5.119   3.167  15.486 -0.8070  0.3015  0.7845
 8528TIP3    H247076   5.206   3.065  15.557  0.1266  1.9796  2.0928
 8529TIP3   OH247077   2.322   1.022  16.206 -0.0553  0.8157  0.0153
 8529TIP3    H147078   2.278   1.066  16.132  0.4555  1.4052  0.0555
 8529TIP3    H247079   2.257   1.024  16.277 -0.1430  1.2388 -0.0757
 8530TIP3   OH247080   2.224   2.121   1.151 -0.4605 -0.5102 -0.2295
 8530TIP3    H147081   2.214   2.112   1.057 -1.6757  0.1151 -0.1661
 8530TIP3    H247082   2.161   2.060   1.189  0.2623 -1.0142  0.1900
 8531TIP3   OH247083   3.157   2.568   6.324  0.1711 -0.1685  0.3004
 8531TIP3    H147084   3.140   2.640   6.385  0.9540  0.3905 -0.1296
 8531TIP3    H247085   3.242   2.590   6.284 -0.0388 -0.8461 -0.5293
 8532TIP3   OH247086   2.879   4.533   4.048  0.9338 -0.4409 -0.3712
 8532TIP3    H147087   2.908   4.542   4.139  0.3818  0.7681 -0.3092
 8532TIP3    H247088   2.960   4.540   3.997  1.0922  0.1524 -0.0415
 8533TIP3   OH247089   3.844   0.442  12.310 -0.2189  0.0537 -0.1315
 8533TIP3    H147090   3.773   0.460  12.248 -0.8481 -0.8224  0.3249
 8533TIP3    H247091   3.912   0.401  12.257 -0.9118 -1.0540 -0.1795
 8534TIP3   OH247092   0.627   3.089   6.423 -0.6569 -0.5209  0.0440
 8534TIP3    H147093   0.697   3.151   6.440 -1.5739  0.2899  0.9240
 8534TIP3    H247094   0.652   3.048   6.340  0.5276  0.2098  0.0186
 8535TIP3   OH247095   4.998   3.069   1.355 -0.5175 -0.0918 -0.2065
 8535TIP3    H147096   5.043   3.113   1.427 -0.6577 -2.5550  1.4352
 8535TIP3    H247097   5.067   3.049   1.292  0.1790 -1.0556  0.8579
 8536TIP3   OH247098   0.427   6.653  13.079  0.2635  0.4222 -0.4878
 8536TIP3    H147099   0.450   6.740  13.111  0.6766 -0.9090  3.1046
 8536TIP3    H247100   0.501   6.627  13.025  0.9903  1.5831 -0.0889
 8537TIP3   OH247101   0.332   2.821   2.441  0.0539  0.0619  0.4488
 8537TIP3    H147102   0.415   2.775   2.445  0.2879  0.4624  0.2829
 8537TIP3    H247103   0.296   2.815   2.530 -0.3729 -1.2536  0.1918
 8538TIP3   OH247104   3.583   6.465  10.763  0.5845  0.4781  0.8592
 8538TIP3    H147105   3.516   6.398  10.751 -0.4180  1.4040  1.2230
 8538TIP3    H247106   3.621   6.477  10.676 -1.3654  1.6522  0.1472
 8539TIP3   OH247107   0.755   5.526  13.514 -0.9733  0.1829 -0.2918
 8539TIP3    H147108   0.823   5.523  13.582 -0.8156 -0.0717 -0.4583
 8539TIP3    H247109   0.734   5.619  13.505 -0.3045  0.3147 -0.5717
 8540TIP3   OH247110   2.988   2.421   1.587  0.2740  0.1227 -0.6150
 8540TIP3    H147111   3.062   2.457   1.537  1.0555  0.6825  0.9189
 8540TIP3    H247112   2.959   2.493   1.643  0.0153 -0.7639  0.4108
 8541TIP3   OH247113   2.146   3.567   3.560 -0.0966 -0.0911 -0.1392
 8541TIP3    H147114   2.204   3.501   3.599  0.2365 -0.3214 -0.9962
 8541TIP3    H247115   2.103   3.608   3.634 -0.1421 -1.1303  0.4261
 8542TIP3   OH247116   6.100   0.526   0.843 -0.1351  0.0917  0.5972
 8542TIP3    H147117   6.020   0.532   0.791 -0.2428  0.7843  0.8338
 8542TIP3    H247118   6.121   0.433   0.845 -0.2573  0.0399 -0.4950
 8543TIP3   OH247119   3.032   3.051  13.278 -0.4100  0.7665  0.2721
 8543TIP3    H147120   3.100   3.012  13.222 -0.3798 -1.2738  1.6858
 8543TIP3    H247121   2.953   3.048  13.224 -0.2440 -0.5769  0.0887
 8544TIP3   OH247122   0.138   1.557  11.605  0.1336 -0.0028  0.2598
 8544TIP3    H147123   0.218   1.527  11.562 -0.0542 -1.3447  0.8404
 8544TIP3    H247124   0.105   1.481  11.652 -2.4363  0.0681 -1.3461
 8545TIP3   OH247125   4.816   1.632  13.255  0.7796  0.3823 -0.1131
 8545TIP3    H147126   4.754   1.612  13.184 -0.2952 -1.5476  1.3350
 8545TIP3    H247127   4.871   1.702  13.219 -2.0464  1.9805 -1.5537
 8546TIP3   OH247128   2.859   6.411   0.285 -0.0304 -0.2140 -0.0903
 8546TIP3    H147129   2.932   6.354   0.308 -0.8482 -0.3391  2.3097
 8546TIP3    H247130   2.782   6.364   0.314 -0.7768  1.6947  1.1139
 8547TIP3   OH247131   6.265   3.250   1.512 -0.7274  0.5547 -0.3843
 8547TIP3    H147132   6.339   3.196   1.541 -0.3504  0.5218 -1.4077
 8547TIP3    H247133   6.192   3.189   1.504 -0.6710  0.4532 -0.1304
 8548TIP3   OH247134   5.036   6.324  15.327 -0.1745 -0.3608 -0.0968
 8548TIP3    H147135   5.129   6.343  15.337 -0.0648 -1.5394  1.2406
 8548TIP3    H247136   4.996   6.409  15.309  1.3041 -0.0128 -1.8154
 8549TIP3   OH247137   1.812   5.398  11.622  0.0129 -0.3595 -0.5649
 8549TIP3    H147138   1.758   5.429  11.694  0.7746  0.8002 -0.4814
 8549TIP3    H247139   1.798   5.462  11.552  1.2045 -0.0842 -0.5718
 8550TIP3   OH247140   3.153   1.604   3.146 -0.4441 -0.1295  0.1433
 8550TIP3    H147141   3.121   1.691   3.170 -1.9087 -0.8922  0.9886
 8550TIP3    H247142   3.240   1.600   3.186 -1.2108  0.1752  1.8996
 8551TIP3   OH247143   1.700   0.890   5.746 -0.3133  0.2694  0.3621
 8551TIP3    H147144   1.689   0.829   5.818  2.4698 -0.1243  0.5267
 8551TIP3    H247145   1.671   0.974   5.781 -0.7711 -0.2773  1.3122
 8552TIP3   OH247146   3.382   6.523  16.432 -0.2042 -0.2002  0.2686
 8552TIP3    H147147   3.396   6.445  16.379  0.1972 -1.0171  1.5588
 8552TIP3    H247148   3.331   6.492  16.507  0.9224  0.5502  1.3603
 8553TIP3   OH247149   2.765   2.664   5.828  0.2742  0.0660 -0.0022
 8553TIP3    H147150   2.675   2.681   5.855 -0.1016 -2.7267  0.6722
 8553TIP3    H247151   2.814   2.741   5.857 -2.1665  2.5489 -2.1295
 8554TIP3   OH247152   1.709   4.653  11.664 -0.4814  0.1222  0.2085
 8554TIP3    H147153   1.722   4.591  11.735  1.6673  0.6291  0.3012
 8554TIP3    H247154   1.752   4.733  11.694 -1.0203  0.8666 -0.9560
 8555TIP3   OH247155   3.742   1.230  10.935 -0.0163  0.2510 -0.2788
 8555TIP3    H147156   3.711   1.179  11.010 -1.5460  1.5114 -0.0287
 8555TIP3    H247157   3.741   1.321  10.966  1.1085  0.6100 -1.2486
 8556TIP3   OH247158   5.080   0.296   6.567 -0.3844 -0.0918  0.6902
 8556TIP3    H147159   5.057   0.386   6.588 -1.1398  0.6745 -3.0005
 8556TIP3    H247160   5.176   0.295   6.567 -0.3719  0.1860  2.6822
 8557TIP3   OH247161   5.405   4.629   1.058  0.2626 -0.3513  0.3686
 8557TIP3    H147162   5.347   4.579   1.000  0.5274 -2.4345  1.8129
 8557TIP3    H247163   5.366   4.716   1.062 -0.1831 -0.3647 -2.3035
 8558TIP3   OH247164   4.341   6.027  17.134  0.2775 -0.2303  0.0730
 8558TIP3    H147165   4.387   6.108  17.110  1.2347 -0.8920 -0.3583
 8558TIP3    H247166   4.268   6.021  17.073  0.3173  0.2094 -0.0185
 8559TIP3   OH247167   3.871   0.980   1.830  0.5785 -0.2189  0.0964
 8559TIP3    H147168   3.966   0.986   1.835  0.5593 -0.9165  1.6968
 8559TIP3    H247169   3.845   1.056   1.778  1.7859  1.8966  2.4514
 8560TIP3   OH247170   2.837   2.723   6.137 -0.4383 -0.4840  0.1467
 8560TIP3    H147171   2.920   2.674   6.138 -0.7835 -1.0983 -0.3450
 8560TIP3    H247172   2.846   2.783   6.063 -0.2530 -0.2298  0.3754
 8561TIP3   OH247173   4.650   3.313   3.208  0.8900  0.6899  0.2242
 8561TIP3    H147174   4.629   3.317   3.115 -0.7370 -0.1766  0.5316
 8561TIP3    H247175   4.571   3.277   3.249  1.2734  1.8672  2.0442
 8562TIP3   OH247176   0.446   3.767  12.388  0.3687 -0.2023 -0.1365
 8562TIP3    H147177   0.434   3.682  12.345  0.0828 -0.1512 -0.1558
 8562TIP3    H247178   0.538   3.788  12.371 -0.1659  0.6225 -2.2032
 8563TIP3   OH247179   1.226   3.530   4.767  0.0864  0.8517 -0.3969
 8563TIP3    H147180   1.205   3.478   4.845  1.4957 -0.1250 -0.6575
 8563TIP3    H247181   1.295   3.481   4.723 -1.3060  0.9574 -2.7580
 8564TIP3   OH247182   5.201   2.368  17.005 -0.0136 -0.3498  0.5734
 8564TIP3    H147183   5.202   2.272  17.005 -0.6396 -0.3648 -0.2578
 8564TIP3    H247184   5.183   2.392  17.095  0.2399 -1.0131  0.8074
 8565TIP3   OH247185   1.217   2.482  13.503 -0.4866 -0.3765  0.1681
 8565TIP3    H147186   1.264   2.476  13.420  1.4353 -2.1343  1.3528
 8565TIP3    H247187   1.201   2.576  13.515 -0.1220 -0.0486 -1.8000
 8566TIP3   OH247188   6.716   0.762   2.900 -0.2884  0.4627  0.4576
 8566TIP3    H147189   6.678   0.674   2.911  0.2126  0.2568  0.5386
 8566TIP3    H247190   6.795   0.761   2.954 -0.0386  0.8154  0.0980
 8567TIP3   OH247191   4.763   2.089  15.620  0.1134  0.4878 -0.2702
 8567TIP3    H147192   4.833   2.147  15.650 -1.3421  1.5704  1.1214
 8567TIP3    H247193   4.689   2.110  15.676 -0.4771 -2.7257  0.2769
 8568TIP3   OH247194   0.111   4.940  16.174  0.0018  0.1299  0.3864
 8568TIP3    H147195   0.132   5.021  16.219 -0.0571  0.7415 -0.6734
 8568TIP3    H247196   0.052   4.966  16.103 -0.3603 -0.8945  0.2994
 8569TIP3   OH247197   1.393   2.453   1.762 -0.4290  0.1041 -0.2964
 8569TIP3    H147198   1.381   2.537   1.807  1.0722 -0.2088  0.7271
 8569TIP3    H247199   1.356   2.388   1.822  0.1618 -0.1580 -0.2126
 8570TIP3   OH247200   1.169   4.847  11.608  0.2088  0.1340  0.2410
 8570TIP3    H147201   1.238   4.912  11.617 -0.4493  1.0422 -1.0845
 8570TIP3    H247202   1.107   4.867  11.677 -1.2275  2.5060 -1.6634
 8571TIP3   OH247203   1.829   4.543   2.717  0.0498  0.4778 -0.0758
 8571TIP3    H147204   1.852   4.459   2.676 -1.0959 -0.5231  1.2621
 8571TIP3    H247205   1.741   4.562   2.683  0.6806  1.5931 -1.0754
 8572TIP3   OH247206   4.945   3.979   1.981 -0.5103  0.3739  0.2279
 8572TIP3    H147207   5.023   3.924   1.990 -0.8069  0.1728  1.8087
 8572TIP3    H247208   4.978   4.069   1.983 -0.2026  0.2789 -0.4347
 8573TIP3   OH247209   5.022   6.427   0.961 -0.0418 -0.0674 -0.8751
 8573TIP3    H147210   4.972   6.495   0.916 -3.0229 -0.3860  1.7872
 8573TIP3    H247211   4.986   6.345   0.928  1.0722 -0.3379 -1.4266
 8574TIP3   OH247212   3.784   0.342  15.683 -0.1526 -0.2831  0.1761
 8574TIP3    H147213   3.856   0.377  15.735 -1.1366 -0.5700  1.7322
 8574TIP3    H247214   3.819   0.260  15.647  0.6381  0.0870  0.0936
 8575TIP3   OH247215   6.770   2.212  15.180  0.1181 -0.0507 -0.2179
 8575TIP3    H147216   6.848   2.212  15.236  0.2647  0.3837 -0.4226
 8575TIP3    H247217   6.778   2.133  15.127  0.8250  0.4061 -0.8041
 8576TIP3   OH247218   1.028   0.104  12.843  0.2594  0.0945  0.2220
 8576TIP3    H147219   1.026   0.081  12.936 -1.3885 -0.4775  0.0610
 8576TIP3    H247220   0.957   0.168  12.833  0.2327 -0.0819 -0.6989
 8577TIP3   OH247221   4.862   4.602  16.301 -0.6844  0.1641  0.8381
 8577TIP3    H147222   4.870   4.529  16.363 -0.6250 -0.1337  0.4846
 8577TIP3    H247223   4.768   4.604  16.280 -0.7137  0.3023  0.9851
 8578TIP3   OH247224   4.511   1.284   0.075 -0.0918  0.1819 -0.0295
 8578TIP3    H147225   4.544   1.357   0.024 -0.0624 -0.0785 -0.3822
 8578TIP3    H247226   4.585   1.223   0.082  0.3689  0.9009  1.6057
 8579TIP3   OH247227   4.573   1.669  12.221 -0.2444 -0.0679  0.4397
 8579TIP3    H147228   4.528   1.633  12.145 -1.0969  0.8164  0.5155
 8579TIP3    H247229   4.662   1.684  12.192 -0.1711 -1.1689  0.0752
 8580TIP3   OH247230   3.609   5.294  11.615  0.3023  0.0496 -0.6508
 8580TIP3    H147231   3.578   5.221  11.560 -1.4905  1.7092 -1.9252
 8580TIP3    H247232   3.534   5.313  11.672  0.3814  1.5460 -1.0320
 8581TIP3   OH247233   2.228   4.749   1.629 -0.2685 -0.0950 -0.1297
 8581TIP3    H147234   2.271   4.697   1.560 -1.0706  0.2254 -0.8847
 8581TIP3    H247235   2.246   4.840   1.604 -1.2109  0.0381 -0.3484
 8582TIP3   OH247236   4.527   5.759   6.413 -0.0129 -0.4903 -0.6463
 8582TIP3    H147237   4.492   5.845   6.440  0.0567 -0.0428 -1.9657
 8582TIP3    H247238   4.619   5.762   6.438  0.6066  0.7972 -2.8865
 8583TIP3   OH247239   2.355   3.855   4.401  0.3705  0.6428 -0.3610
 8583TIP3    H147240   2.438   3.856   4.353  0.1381  0.0977 -0.7801
 8583TIP3    H247241   2.380   3.873   4.492  1.1505 -1.2054 -0.1892
 8584TIP3   OH247242   3.133   3.586  11.485  0.2721  0.3664  0.1534
 8584TIP3    H147243   3.061   3.603  11.424  1.3985  0.3687 -1.2031
 8584TIP3    H247244   3.211   3.615  11.438  1.2518 -0.4377  1.2705
 8585TIP3   OH247245   3.166   5.649   3.474  0.9686  0.3841 -0.3110
 8585TIP3    H147246   3.184   5.582   3.540 -1.1463  0.6748  0.5830
 8585TIP3    H247247   3.230   5.718   3.493  0.7735  0.2051  1.0556
 8586TIP3   OH247248   2.179   5.418  14.199  0.9909  0.2301  0.3901
 8586TIP3    H147249   2.247   5.388  14.137  0.7871  0.5273  0.0208
 8586TIP3    H247250   2.217   5.497  14.238  0.4981  0.8939 -0.4596
 8587TIP3   OH247251   1.495   2.792   2.137  0.2078 -0.4886 -0.4615
 8587TIP3    H147252   1.445   2.713   2.116 -0.5153 -0.4881  1.1508
 8587TIP3    H247253   1.568   2.792   2.076  0.0380 -2.2418 -0.6803
 8588TIP3   OH247254   3.742   3.515  17.263 -0.1752 -0.5868 -0.3849
 8588TIP3    H147255   3.666   3.568  17.238 -1.7874 -2.6897 -0.0459
 8588TIP3    H247256   3.710   3.456  17.330  2.2017 -0.3926  0.9825
 8589TIP3   OH247257   3.644   1.235  14.722  0.3596  0.4761 -0.8039
 8589TIP3    H147258   3.709   1.197  14.664 -0.9161 -0.8120 -1.4356
 8589TIP3    H247259   3.601   1.303  14.670  0.1207  0.2329 -0.9260
 8590TIP3   OH247260   0.513   5.688   4.929 -0.2595  0.2592  0.3672
 8590TIP3    H147261   0.559   5.638   4.997 -0.1629 -0.4474 -0.2123
 8590TIP3    H247262   0.438   5.634   4.907  0.0003  0.2333 -0.4662
 8591TIP3   OH247263   0.333   2.329   4.581 -0.0881  1.1328  0.2626
 8591TIP3    H147264   0.239   2.321   4.595 -0.2744  2.5583 -0.0787
 8591TIP3    H247265   0.343   2.325   4.486  0.4350 -1.2432  0.3872
 8592TIP3   OH247266   4.047   4.272   2.090 -0.1826 -0.7300 -0.1749
 8592TIP3    H147267   3.989   4.238   2.022  0.7695  1.1541 -1.9747
 8592TIP3    H247268   4.107   4.199   2.108 -0.5039 -1.2921 -1.2884
 8593TIP3   OH247269   0.765   2.495  16.811  0.4218  0.0834 -0.0787
 8593TIP3    H147270   0.672   2.472  16.808  0.3191  0.5177 -0.2318
 8593TIP3    H247271   0.787   2.492  16.904  0.1524  0.3825 -0.0052
 8594TIP3   OH247272   4.684   3.542   1.332  0.1072  0.6633  0.0059
 8594TIP3    H147273   4.747   3.591   1.278 -0.8476  1.8737 -0.0243
 8594TIP3    H247274   4.599   3.565   1.295 -0.3593 -1.0728 -0.0318
 8595TIP3   OH247275   6.190   1.880  16.351 -0.0490  0.4407 -0.0035
 8595TIP3    H147276   6.125   1.821  16.315 -1.1561  0.4047  1.9611
 8595TIP3    H247277   6.227   1.833  16.426  0.9914  1.1661 -0.0410
 8596TIP3   OH247278   2.806   6.722  15.733 -0.7236  0.4623  0.6077
 8596TIP3    H147279   2.776   6.801  15.778  1.3373  0.2360  2.4705
 8596TIP3    H247280   2.760   6.650  15.776 -0.2063  0.3969  1.0513
 8597TIP3   OH247281   6.103   5.349  14.885  0.0463 -1.0375  0.0656
 8597TIP3    H147282   6.045   5.287  14.928  0.3315 -1.2142  0.1969
 8597TIP3    H247283   6.095   5.329  14.792 -0.1408 -1.0290  0.0804
 8598TIP3   OH247284   6.286   2.726   4.259 -0.0963  0.7642  0.6541
 8598TIP3    H147285   6.222   2.730   4.330  0.7230  0.2224  1.4359
 8598TIP3    H247286   6.246   2.669   4.194 -0.4323  0.4460  1.1328
 8599TIP3   OH247287   6.764   4.669   3.867  1.2937 -0.1259 -0.0613
 8599TIP3    H147288   6.681   4.641   3.830  0.3499  1.2549  0.9796
 8599TIP3    H247289   6.801   4.729   3.802  2.4918 -2.3511 -1.4842
 8600TIP3   OH247290   3.304   3.710  14.560  0.0196  0.0682  0.0237
 8600TIP3    H147291   3.362   3.683  14.488 -2.9279 -1.2267 -1.9453
 8600TIP3    H247292   3.321   3.803  14.570  2.1135 -0.1768 -0.8144
 8601TIP3   OH247293   3.379   6.407   2.977  0.0002  0.1730 -0.0793
 8601TIP3    H147294   3.302   6.365   2.939  0.1345  0.1088 -0.2801
 8601TIP3    H247295   3.352   6.431   3.066 -0.4499  0.7063 -0.3595
 8602TIP3   OH247296   1.701   4.874  14.388  0.0026  0.3739  0.7380
 8602TIP3    H147297   1.698   4.895  14.481 -0.5370 -0.4396  0.9110
 8602TIP3    H247298   1.620   4.911  14.352  0.4671  1.1596  0.4835
 8603TIP3   OH247299   3.663   2.222   2.905  0.1472 -0.3401  0.2912
 8603TIP3    H147300   3.733   2.243   2.967 -0.1357 -0.3713  0.6198
 8603TIP3    H247301   3.707   2.172   2.836  0.7653  1.0193 -0.3270
 8604TIP3   OH247302   2.492   3.121  14.450  0.3827  0.3743  0.1670
 8604TIP3    H147303   2.423   3.168  14.403 -1.2616 -0.5717  1.5903
 8604TIP3    H247304   2.460   3.114  14.540  1.8512 -1.0402  0.6078
 8605TIP3   OH247305   1.664   4.665   1.277 -0.6117  0.3205  0.4597
 8605TIP3    H147306   1.679   4.741   1.220 -0.3330  0.4334  0.6836
 8605TIP3    H247307   1.576   4.679   1.312 -0.0072  1.2885  1.6389
 8606TIP3   OH247308   3.894   1.138  12.378  0.3983  0.1732  0.4459
 8606TIP3    H147309   3.964   1.173  12.324  2.2823  1.2608  3.4904
 8606TIP3    H247310   3.892   1.193  12.455 -0.8953 -2.4977  2.4267
 8607TIP3   OH247311   0.269   1.000  13.494  0.6021 -0.4108  0.2218
 8607TIP3    H147312   0.358   1.029  13.471  0.8209 -2.1486 -1.2145
 8607TIP3    H247313   0.277   0.966  13.583  0.9509  1.1825  0.8222
 8608TIP3   OH247314   6.661   1.364  12.249 -0.7429 -0.0951  0.2463
 8608TIP3    H147315   6.595   1.331  12.310 -1.4737 -1.5007 -1.2413
 8608TIP3    H247316   6.623   1.444  12.213 -1.1994 -0.3391  0.1754
 8609TIP3   OH247317   6.080   2.649  15.796 -0.3415  0.0698  0.4713
 8609TIP3    H147318   6.112   2.632  15.884  0.6513 -2.7324 -0.3854
 8609TIP3    H247319   6.130   2.591  15.740 -2.8442 -0.1724 -1.6278
 8610TIP3   OH247320   3.274   5.240   2.185  0.2532 -0.3518 -0.2618
 8610TIP3    H147321   3.354   5.285   2.157 -0.0283  0.1588 -0.2457
 8610TIP3    H247322   3.217   5.241   2.108  0.1023 -0.3606 -0.1503
 8611TIP3   OH247323   0.945   0.766  14.261  0.2537 -0.9799 -0.6212
 8611TIP3    H147324   0.986   0.846  14.230  1.4474 -0.3938  2.3298
 8611TIP3    H247325   1.016   0.702  14.268  0.1971 -0.8584  1.5886
 8612TIP3   OH247326   4.510   2.277   4.657 -0.1681 -0.2381  0.4232
 8612TIP3    H147327   4.603   2.262   4.642  0.1348  0.4591  1.5143
 8612TIP3    H247328   4.501   2.276   4.753 -0.6818  3.0105  0.4606
 8613TIP3   OH247329   3.102   6.412  13.816 -0.4816 -0.1124 -0.4845
 8613TIP3    H147330   3.041   6.340  13.832 -0.3167  0.1708  1.5919
 8613TIP3    H247331   3.054   6.490  13.843  1.0739  0.0257  2.0435
 8614TIP3   OH247332   0.759   4.887  16.299  0.4817  0.4665  0.2612
 8614TIP3    H147333   0.825   4.823  16.275  0.2536  0.0780  0.6625
 8614TIP3    H247334   0.789   4.923  16.383  1.1863  1.6928 -0.4971
 8615TIP3   OH247335   4.804   0.996   3.470 -0.1096  0.0814  0.4707
 8615TIP3    H147336   4.714   0.989   3.500  0.2990  0.4018  1.8043
 8615TIP3    H247337   4.857   0.977   3.547  0.9623  0.9999 -0.0128
 8616TIP3   OH247338   2.231   6.623  12.175 -0.0182 -0.6663  0.2688
 8616TIP3    H147339   2.178   6.688  12.222  0.0497 -0.2516 -0.2257
 8616TIP3    H247340   2.292   6.675  12.122  0.8722 -1.1314  0.8105
 8617TIP3   OH247341   4.525   3.057  14.817  0.5081 -0.3015 -0.0675
 8617TIP3    H147342   4.536   3.000  14.893 -0.4592 -1.0537 -0.4817
 8617TIP3    H247343   4.607   3.107  14.812  0.9494 -0.9181  0.8998
 8618TIP3   OH247344   3.450   1.623  12.786 -0.3288 -0.6630 -0.5881
 8618TIP3    H147345   3.401   1.549  12.823 -1.3488  0.4121  0.2233
 8618TIP3    H247346   3.420   1.629  12.696  0.5190 -1.8779 -0.9706
 8619TIP3   OH247347   3.263   5.003   4.824  0.1418  0.1354 -0.3381
 8619TIP3    H147348   3.288   5.095   4.833 -1.8286  0.8037 -1.3957
 8619TIP3    H247349   3.208   4.986   4.900 -0.0927  0.0449 -0.5276
 8620TIP3   OH247350   3.078   3.780   1.473 -0.9671  0.0608 -0.0949
 8620TIP3    H147351   3.086   3.717   1.544 -1.7023 -0.5439 -0.5488
 8620TIP3    H247352   3.052   3.728   1.397 -3.0527  1.1152 -0.1217
 8621TIP3   OH247353   2.755   0.825  11.772 -0.3370 -0.3385 -0.8164
 8621TIP3    H147354   2.835   0.855  11.814 -0.2007 -2.3020  0.3918
 8621TIP3    H247355   2.785   0.776  11.696 -0.1998 -3.5755  1.2376
 8622TIP3   OH247356   6.614   5.906  17.045 -0.2488  0.2926 -0.1132
 8622TIP3    H147357   6.555   5.861  16.985 -0.6240 -0.2211  0.6288
 8622TIP3    H247358   6.560   5.973  17.086  0.2099  1.1782 -0.9287
 8623TIP3   OH247359   2.106   2.361  10.698  0.2908 -0.3691 -0.1325
 8623TIP3    H147360   2.138   2.314  10.775 -0.1762  1.0122  0.9175
 8623TIP3    H247361   2.176   2.352  10.634  1.1994 -0.5080  0.8587
 8624TIP3   OH247362   1.846   2.622   0.648  0.4963 -0.1966 -0.2944
 8624TIP3    H147363   1.847   2.590   0.558  0.1405 -2.3033  0.3985
 8624TIP3    H247364   1.938   2.622   0.675  0.5319 -0.3370 -0.4122
 8625TIP3   OH247365   5.058   5.522  12.844 -0.3512  0.9228 -0.3704
 8625TIP3    H147366   5.132   5.467  12.817 -0.7480  0.5581 -0.7342
 8625TIP3    H247367   5.097   5.591  12.896  0.2777  0.8613 -0.7555
 8626TIP3   OH247368   1.892   1.733  17.191  0.1204 -0.0559 -0.6550
 8626TIP3    H147369   1.919   1.661  17.248  0.2747 -0.4510 -1.2335
 8626TIP3    H247370   1.857   1.690  17.113 -1.2594  0.4537 -0.3464
 8627TIP3   OH247371   3.491   1.252   0.116 -0.7176 -0.2689  0.5425
 8627TIP3    H147372   3.524   1.163   0.123 -2.2191 -0.8204  0.7345
 8627TIP3    H247373   3.438   1.265   0.195 -0.1277  0.9500  0.7544
 8628TIP3   OH247374   5.106   5.158   1.632 -0.0089 -0.1980  0.0063
 8628TIP3    H147375   5.107   5.232   1.571 -1.3482 -1.6169 -1.7967
 8628TIP3    H247376   5.027   5.109   1.610 -0.4092 -0.9000  2.7549
 8629TIP3   OH247377   4.565   4.392  14.447  0.0667  0.2257  0.4942
 8629TIP3    H147378   4.502   4.428  14.510  1.7792  0.6059  2.0345
 8629TIP3    H247379   4.649   4.431  14.472  1.0376 -0.7605 -1.1283
 8630TIP3   OH247380   3.236   0.659  13.466 -0.2352  0.0321 -0.1169
 8630TIP3    H147381   3.310   0.624  13.416 -0.3232 -0.6008  0.1889
 8630TIP3    H247382   3.196   0.723  13.408 -0.7764 -1.2229 -1.1573
 8631TIP3   OH247383   0.965   6.691   6.706  0.0709  0.4478 -0.6716
 8631TIP3    H147384   0.956   6.601   6.739  1.9920  0.5651  0.1900
 8631TIP3    H247385   0.880   6.731   6.723 -1.2919 -1.6060 -2.3198
 8632TIP3   OH247386   5.146   6.759   5.079 -0.2799  0.9278 -0.2637
 8632TIP3    H147387   5.213   6.714   5.026 -1.8622 -1.2890 -0.4546
 8632TIP3    H247388   5.185   6.763   5.167  0.0554 -0.5429 -0.3171
 8633TIP3   OH247389   6.682   0.970   5.602  0.3695 -0.0409  0.0194
 8633TIP3    H147390   6.757   0.910   5.598 -0.0807 -0.6759  0.7416
 8633TIP3    H247391   6.607   0.912   5.619 -0.6426  0.3149 -2.9315
 8634TIP3   OH247392   1.583   4.801  11.457 -0.1900 -0.6841 -0.0644
 8634TIP3    H147393   1.601   4.748  11.535  1.1237  1.4243  1.1401
 8634TIP3    H247394   1.651   4.775  11.394  0.3975 -0.4860  0.4849
 8635TIP3   OH247395   2.661   1.372  15.512  0.2134  0.2474  0.6297
 8635TIP3    H147396   2.732   1.359  15.575 -0.3443  0.9665  1.4253
 8635TIP3    H247397   2.625   1.458  15.535 -0.5314  0.1458 -0.1450
 8636TIP3   OH247398   2.634   1.099   3.468  0.8119  0.0222 -0.1965
 8636TIP3    H147399   2.571   1.109   3.539  1.5853  1.2706  0.3221
 8636TIP3    H247400   2.607   1.163   3.403  1.6717  0.7114  0.1220
 8637TIP3   OH247401   5.642   4.594   5.179 -0.7653 -0.6267  0.2965
 8637TIP3    H147402   5.617   4.653   5.250 -2.6678 -0.9014 -0.1165
 8637TIP3    H247403   5.583   4.519   5.189 -0.9926 -0.6996 -1.5072
 8638TIP3   OH247404   4.472   0.274  16.584  0.3213  0.3722 -0.4758
 8638TIP3    H147405   4.398   0.239  16.534  1.7529 -0.6557 -1.9215
 8638TIP3    H247406   4.524   0.321  16.520  0.9230  1.1168  0.5396
 8639TIP3   OH247407   0.859   4.279   5.031  0.3688  0.3546  0.5684
 8639TIP3    H147408   0.789   4.295   4.968  0.7939 -1.4076 -0.3768
 8639TIP3    H247409   0.939   4.307   4.986  0.4384  1.1360  1.1571
 8640TIP3   OH247410   3.790   4.953  15.561  0.4967 -0.0970 -0.9796
 8640TIP3    H147411   3.728   4.968  15.489  1.4851  0.6238 -1.7011
 8640TIP3    H247412   3.789   5.035  15.610  0.5017 -0.2667 -0.6974
 8641TIP3   OH247413   6.616   4.615  13.122 -0.1374 -0.3698 -0.3720
 8641TIP3    H147414   6.680   4.685  13.136  0.0018 -0.2079 -1.7444
 8641TIP3    H247415   6.585   4.629  13.033 -1.3084 -1.0940 -0.0772
 8642TIP3   OH247416   2.284   4.391  11.328  0.3990  0.1809  0.2534
 8642TIP3    H147417   2.313   4.344  11.406 -1.0918  1.4551  1.5985
 8642TIP3    H247418   2.234   4.326  11.279  0.5589 -0.3673  0.7967
 8643TIP3   OH247419   5.082   6.085  15.962 -0.5191 -0.0359  0.1333
 8643TIP3    H147420   5.154   6.026  15.940  0.3713  1.3136 -0.6519
 8643TIP3    H247421   5.125   6.168  15.984 -1.8445  0.8800 -0.6568
 8644TIP3   OH247422   4.954   3.800   3.427  0.3212  0.4835  0.0456
 8644TIP3    H147423   5.041   3.836   3.442  1.2396 -2.6552  3.0246
 8644TIP3    H247424   4.904   3.822   3.506 -0.1565 -1.5812  0.3551
 8645TIP3   OH247425   5.724   1.646   6.224  0.2834 -0.1782 -0.1808
 8645TIP3    H147426   5.770   1.563   6.237 -1.8197 -1.5641 -1.1545
 8645TIP3    H247427   5.653   1.624   6.163  0.6257  2.6936 -1.6729
 8646TIP3   OH247428   1.120   1.855  13.712 -0.4922  0.1862  0.5450
 8646TIP3    H147429   1.101   1.766  13.681 -0.8722  0.3649  0.2602
 8646TIP3    H247430   1.209   1.849  13.748 -1.2556 -0.7724  2.3153
 8647TIP3   OH247431   3.342   0.869  11.903 -0.4155 -0.0557  0.2483
 8647TIP3    H147432   3.361   0.961  11.888 -2.9594  0.2166 -1.5933
 8647TIP3    H247433   3.339   0.861  11.999 -0.2491  1.7846  0.4256
 8648TIP3   OH247434   6.268   5.289  10.778  0.2707  0.1251 -0.4993
 8648TIP3    H147435   6.355   5.284  10.739  0.8217 -0.6925  0.8042
 8648TIP3    H247436   6.221   5.216  10.739  0.5027 -0.0859 -0.3830
 8649TIP3   OH247437   1.710   2.082   4.009  0.1048 -0.0918 -0.2220
 8649TIP3    H147438   1.765   2.004   3.997 -0.3392 -1.0949  3.4779
 8649TIP3    H247439   1.622   2.047   4.025  0.4220  0.9296  4.3504
 8650TIP3   OH247440   0.303   0.152  15.002  0.1106 -0.6757 -0.4041
 8650TIP3    H147441   0.267   0.204  15.073  0.1485  0.1910 -1.0097
 8650TIP3    H247442   0.238   0.083  14.987 -0.0454 -0.6660  0.2494
 8651TIP3   OH247443   2.284   0.261  12.177 -0.0002 -0.5170 -0.2926
 8651TIP3    H147444   2.238   0.345  12.181  0.8296 -0.0816  0.3341
 8651TIP3    H247445   2.368   0.278  12.220  0.6587 -1.3583 -1.2276
 8652TIP3   OH247446   1.145   1.243   4.329  0.1128 -0.4939 -0.1373
 8652TIP3    H147447   1.155   1.178   4.399  0.1064 -1.0917 -0.6757
 8652TIP3    H247448   1.097   1.196   4.260  2.6389 -0.8629 -1.7155
 8653TIP3   OH247449   5.287   0.506  11.253 -0.0743 -0.2877 -0.1080
 8653TIP3    H147450   5.211   0.554  11.285  0.1552  1.2239 -1.7415
 8653TIP3    H247451   5.321   0.560  11.182  2.8586 -0.6775  0.9410
 8654TIP3   OH247452   2.506   5.584  15.168 -0.0540  0.4058  0.3012
 8654TIP3    H147453   2.447   5.607  15.240  0.7744  2.5080  0.3350
 8654TIP3    H247454   2.447   5.556  15.097 -1.0723  1.5789  0.6580
 8655TIP3   OH247455   4.312   4.690  15.863 -0.7886 -0.3664 -0.0625
 8655TIP3    H147456   4.238   4.749  15.850  0.2880  0.7178 -1.3825
 8655TIP3    H247457   4.346   4.712  15.950 -0.8604  0.4495 -0.2389
 8656TIP3   OH247458   4.822   0.776  15.034  0.2059  0.3391 -0.0198
 8656TIP3    H147459   4.812   0.707  15.100 -0.3520 -1.0528 -1.5214
 8656TIP3    H247460   4.810   0.857  15.083  0.8575 -0.6244  1.7816
 8657TIP3   OH247461   4.131   2.541  11.168 -0.1574 -0.5166 -0.0043
 8657TIP3    H147462   4.037   2.526  11.177  0.0668 -1.0122  1.7487
 8657TIP3    H247463   4.139   2.632  11.141 -1.1190 -0.2635  0.5562
 8658TIP3   OH247464   2.460   2.981   0.459  0.1621 -0.1491  0.0755
 8658TIP3    H147465   2.499   3.043   0.397 -0.4651 -1.6248 -1.8385
 8658TIP3    H247466   2.399   3.034   0.510 -0.4719  0.8002 -1.6253
 8659TIP3   OH247467   3.473   3.237   0.421 -0.3396 -0.0448 -0.2313
 8659TIP3    H147468   3.426   3.191   0.351  1.4462 -1.3775 -0.5927
 8659TIP3    H247469   3.518   3.309   0.376  0.7581 -0.8641 -0.4471
 8660TIP3   OH247470   3.383   1.918  14.763  0.4487 -0.0012 -0.0529
 8660TIP3    H147471   3.295   1.933  14.795 -0.4672 -0.2919 -2.3497
 8660TIP3    H247472   3.398   1.824  14.777 -0.7781 -0.5823 -2.3796
 8661TIP3   OH247473   3.780   4.606  14.121 -0.1135 -0.3803  0.1171
 8661TIP3    H147474   3.744   4.553  14.050 -1.5570  0.0432  0.5022
 8661TIP3    H247475   3.825   4.543  14.177 -0.4994 -0.9829 -0.2394
 8662TIP3   OH247476   5.155   0.785   4.529  0.2221 -0.8595 -0.8400
 8662TIP3    H147477   5.168   0.796   4.435 -0.9444 -0.5460 -0.9763
 8662TIP3    H247478   5.154   0.690   4.543 -2.7749 -0.9905 -1.6333
 8663TIP3   OH247479   4.065   3.585   1.614 -0.1270  0.0319 -0.7704
 8663TIP3    H147480   3.969   3.588   1.616 -0.1335 -0.4593 -0.2697
 8663TIP3    H247481   4.085   3.533   1.537 -0.2748 -0.5294 -0.4282
 8664TIP3   OH247482   2.952   4.898   3.327 -0.2761  0.7792  0.1011
 8664TIP3    H147483   2.956   4.819   3.381  1.8052  1.1260  0.5140
 8664TIP3    H247484   2.860   4.905   3.301 -0.8453 -0.7269  1.6121
 8665TIP3   OH247485   5.825   4.844   2.156  0.3839  0.0502  0.1917
 8665TIP3    H147486   5.907   4.826   2.203  0.0272 -0.0222  0.7795
 8665TIP3    H247487   5.768   4.770   2.177 -0.1838  0.5961  0.5676
 8666TIP3   OH247488   0.230   4.579   5.622  0.1391  0.3789 -0.2242
 8666TIP3    H147489   0.302   4.547   5.567  1.4500  1.6989  0.6752
 8666TIP3    H247490   0.175   4.502   5.636 -0.5799  0.1347 -3.8546
 8667TIP3   OH247491   6.237   4.216  15.191 -0.5411  0.4968  0.1130
 8667TIP3    H147492   6.273   4.146  15.138 -2.0041 -0.5685  0.5036
 8667TIP3    H247493   6.190   4.172  15.262 -0.5121  1.8699  1.0250
 8668TIP3   OH247494   4.091   0.067  14.980  0.4356  0.0028  0.8233
 8668TIP3    H147495   4.008   0.026  14.953  0.9414  0.8236 -2.2735
 8668TIP3    H247496   4.094   0.056  15.075 -2.9611 -0.5514  0.9421
 8669TIP3   OH247497   2.157   2.534  11.995  0.0630  0.1840 -0.5447
 8669TIP3    H147498   2.172   2.545  11.901  1.5672 -0.1585 -0.3592
 8669TIP3    H247499   2.235   2.487  12.026 -0.6421 -0.1160  0.7883
 8670TIP3   OH247500   1.203   6.066  17.164  0.6187 -0.1549  0.4961
 8670TIP3    H147501   1.237   6.074  17.075  1.7083 -0.3183  0.8849
 8670TIP3    H247502   1.249   5.991  17.200  0.2479 -0.0356  1.2256
 8671TIP3   OH247503   3.818   4.469  15.108  0.2424  0.0401 -0.5038
 8671TIP3    H147504   3.741   4.443  15.159 -0.5502 -0.2458 -1.8392
 8671TIP3    H247505   3.870   4.521  15.170 -1.1608  0.4917  0.3356
 8672TIP3   OH247506   4.500   1.702  15.624 -0.0678 -0.5921  0.1319
 8672TIP3    H147507   4.485   1.757  15.701  0.9164  0.8186 -0.6498
 8672TIP3    H247508   4.589   1.669  15.635 -0.9286 -2.7319  0.9922
 8673TIP3   OH247509   6.490   5.596   1.529  0.1603 -0.5612 -0.0951
 8673TIP3    H147510   6.569   5.649   1.540  1.4889 -2.0801 -2.0792
 8673TIP3    H247511   6.487   5.541   1.607  1.0376 -0.4741  0.0051
 8674TIP3   OH247512   1.473   2.809  11.492  0.4230  0.3463  0.2698
 8674TIP3    H147513   1.555   2.846  11.459 -0.7762  0.1500 -3.1352
 8674TIP3    H247514   1.406   2.871  11.463 -1.0439 -1.6615 -0.6924
 8675TIP3   OH247515   3.930   0.809   2.065 -0.1484  0.7009 -0.1433
 8675TIP3    H147516   3.952   0.721   2.035  0.2809 -0.1630  2.4830
 8675TIP3    H247517   3.897   0.854   1.988  0.7746 -1.3811 -1.8121
 8676TIP3   OH247518   6.678   4.588  17.247  0.0089  0.2840 -0.1103
 8676TIP3    H147519   6.663   4.503  17.205  1.8367 -0.0370 -0.1612
 8676TIP3    H247520   6.590   4.619  17.269 -0.7836 -0.9648 -1.3573
 8677TIP3   OH247521   1.182   1.197   2.808 -0.2467  0.3290 -0.1937
 8677TIP3    H147522   1.117   1.129   2.822  0.9497 -0.8124 -0.1474
 8677TIP3    H247523   1.149   1.272   2.858 -1.1321 -0.4829  0.4484
 8678TIP3   OH247524   4.987   1.573  10.690 -0.7931 -0.3819  0.4537
 8678TIP3    H147525   5.041   1.532  10.622 -0.4354 -0.8087  0.9872
 8678TIP3    H247526   5.016   1.664  10.692 -0.6362 -0.4244  0.2041
 8679TIP3   OH247527   1.703   6.466   0.749  0.4399  0.2575  0.0711
 8679TIP3    H147528   1.753   6.410   0.810  0.9067 -1.6589 -1.9858
 8679TIP3    H247529   1.619   6.421   0.739 -0.3580  1.5800  0.7508
 8680TIP3   OH247530   1.206   3.821   2.282 -0.1754  0.5792  0.0936
 8680TIP3    H147531   1.240   3.851   2.197  0.2471 -0.3713 -0.0775
 8680TIP3    H247532   1.150   3.747   2.261 -2.7916  2.4131  0.3392
 8681TIP3   OH247533   1.980   5.818   1.292 -0.4774  0.3491 -0.1649
 8681TIP3    H147534   2.050   5.877   1.322  1.7773 -2.0198 -0.5649
 8681TIP3    H247535   2.018   5.731   1.300 -1.8892 -0.7751 -4.3841
 8682TIP3   OH247536   3.974   4.984   5.244  0.0310 -0.1864 -0.0262
 8682TIP3    H147537   3.994   4.949   5.331 -3.2021  1.8111  1.5952
 8682TIP3    H247538   4.027   4.931   5.184  1.7017 -2.1382  3.0729
 8683TIP3   OH247539   4.014   6.749  14.625  0.0606  1.1458  0.4009
 8683TIP3    H147540   4.100   6.782  14.648  0.5716  1.0176 -1.2571
 8683TIP3    H247541   3.961   6.828  14.610  0.5684  1.2418 -0.9799
 8684TIP3   OH247542   6.384   2.572   0.604 -0.6308  0.1675  0.1696
 8684TIP3    H147543   6.304   2.522   0.582  0.7806 -0.8027 -3.0674
 8684TIP3    H247544   6.445   2.505   0.635 -0.3107  0.5959  0.4533
 8685TIP3   OH247545   6.610   4.236   2.348  0.7001 -0.0364 -0.1639
 8685TIP3    H147546   6.692   4.254   2.304  1.2183 -0.2147  0.7082
 8685TIP3    H247547   6.604   4.302   2.417 -1.2421  1.7198 -1.9729
 8686TIP3   OH247548   6.475   2.694  11.289 -0.0439  0.3810 -0.2755
 8686TIP3    H147549   6.393   2.719  11.332 -0.3195  1.7306 -1.5127
 8686TIP3    H247550   6.479   2.751  11.212  2.2234  0.5728 -0.0473
 8687TIP3   OH247551   2.145   4.431   5.798 -0.6573  0.0708 -0.0072
 8687TIP3    H147552   2.134   4.492   5.725  1.2062  1.2645  0.6658
 8687TIP3    H247553   2.135   4.486   5.876 -0.2424 -0.7335  0.6182
 8688TIP3   OH247554   3.064   2.235   2.708 -0.1306  0.1923  0.2851
 8688TIP3    H147555   2.998   2.277   2.763 -1.2226 -0.8665 -0.1786
 8688TIP3    H247556   3.037   2.255   2.619 -0.1755 -0.7347  0.0816
 8689TIP3   OH247557   4.754   5.010   4.715  0.5638  0.0696 -0.0764
 8689TIP3    H147558   4.775   5.097   4.682 -2.1778  0.7714 -0.1221
 8689TIP3    H247559   4.688   5.026   4.782  0.1307 -1.9768  0.0046
 8690TIP3   OH247560   6.807   1.804  11.623 -0.6750  0.0918  0.0537
 8690TIP3    H147561   6.854   1.732  11.582 -1.6666 -0.7618  0.3738
 8690TIP3    H247562   6.715   1.789  11.598 -0.8610  1.3326 -0.0083
 8691TIP3   OH247563   5.711   5.868  16.168 -0.4050 -0.1570  0.4090
 8691TIP3    H147564   5.806   5.877  16.168 -0.3561 -0.6822  0.0405
 8691TIP3    H247565   5.688   5.864  16.261  0.2597 -3.2994  0.5052
 8692TIP3   OH247566   1.376   6.320   3.423  0.6394 -0.3338  0.3263
 8692TIP3    H147567   1.433   6.350   3.493 -0.9487  1.2010  1.0203
 8692TIP3    H247568   1.327   6.398   3.397 -1.6761 -1.7531  0.2924
 8693TIP3   OH247569   1.011   1.622   1.780  0.6349  0.0700 -0.4474
 8693TIP3    H147570   0.993   1.610   1.874 -0.6733 -0.4636 -0.7639
 8693TIP3    H247571   0.937   1.582   1.736  1.0965  0.6011 -1.7215
 8694TIP3   OH247572   1.300   4.154   6.502 -0.4093  0.1162  0.1760
 8694TIP3    H147573   1.350   4.218   6.452 -1.2655 -0.4943 -1.5063
 8694TIP3    H247574   1.257   4.205   6.570  0.2387  1.0746 -0.1214
 8695TIP3   OH247575   1.953   4.379  16.760 -0.1453 -0.3897 -0.3526
 8695TIP3    H147576   1.941   4.472  16.744  0.5312 -0.3490 -0.6194
 8695TIP3    H247577   1.947   4.339  16.674  0.5840 -0.4860 -0.3576
 8696TIP3   OH247578   5.655   1.150  14.546 -0.3736  0.1774  0.0833
 8696TIP3    H147579   5.601   1.214  14.500 -1.8217 -0.3001  1.0745
 8696TIP3    H247580   5.641   1.169  14.639 -1.1607 -1.8231  0.4035
 8697TIP3   OH247581   0.792   3.112  11.181  0.2147  0.1354 -0.2425
 8697TIP3    H147582   0.727   3.104  11.111  2.1737 -1.2505 -1.9601
 8697TIP3    H247583   0.803   3.207  11.193  0.9171  0.4243 -2.8621
 8698TIP3   OH247584   6.238   1.428  16.367  0.3666 -0.9011  0.0177
 8698TIP3    H147585   6.322   1.382  16.373 -0.3380 -2.1321  0.4547
 8698TIP3    H247586   6.263   1.521  16.361  1.7688 -1.2815 -0.2874
 8699TIP3   OH247587   2.319   1.538   5.689  0.6109 -0.0004 -0.0239
 8699TIP3    H147588   2.274   1.494   5.761  0.6237 -1.1903 -0.7329
 8699TIP3    H247589   2.250   1.555   5.625  0.7418  0.3623 -0.0712
 8700TIP3   OH247590   2.429   2.168  14.066 -0.1248 -0.6569 -0.0754
 8700TIP3    H147591   2.343   2.152  14.104 -1.4189 -1.3806 -3.0965
 8700TIP3    H247592   2.491   2.139  14.132 -2.2447 -3.3856  0.8228
 8701TIP3   OH247593   4.404   5.036   0.542  0.3990 -0.4682  0.0700
 8701TIP3    H147594   4.346   5.007   0.472  0.1464 -3.3275  1.4401
 8701TIP3    H247595   4.403   5.132   0.535 -1.2566 -0.6270 -2.4840
 8702TIP3   OH247596   2.265   0.676   4.913 -0.5192 -0.3839 -0.3041
 8702TIP3    H147597   2.344   0.623   4.923  1.3905  2.1204 -1.4891
 8702TIP3    H247598   2.248   0.675   4.819 -0.9710  0.3424 -0.2325
 8703TIP3   OH247599   5.360   1.086  15.605  0.1882  0.6273 -0.9024
 8703TIP3    H147600   5.449   1.053  15.604 -0.3870 -0.9653 -0.6725
 8703TIP3    H247601   5.366   1.173  15.566  1.6333  0.0079 -2.0904
 8704TIP3   OH247602   6.242   0.509   2.113  0.5370 -0.3128  0.0913
 8704TIP3    H147603   6.188   0.556   2.050  1.2856  1.3566  0.6672
 8704TIP3    H247604   6.198   0.425   2.125  0.2610 -0.5581 -2.4526
 8705TIP3   OH247605   2.888   1.770  16.535  0.2911  0.0619  0.0222
 8705TIP3    H147606   2.858   1.698  16.591  0.3644  0.0188  0.0058
 8705TIP3    H247607   2.811   1.795  16.484  0.3619 -0.2478 -0.2360
 8706TIP3   OH247608   1.497   1.517   1.565  0.3672  0.4330  0.3346
 8706TIP3    H147609   1.470   1.447   1.506  0.6653  1.0794 -0.5825
 8706TIP3    H247610   1.500   1.476   1.651 -1.4632 -0.1638  0.1278
 8707TIP3   OH247611   1.660   1.960  16.686 -0.3651 -0.0434 -0.4215
 8707TIP3    H147612   1.643   2.043  16.730  1.4022  1.5700 -2.6018
 8707TIP3    H247613   1.722   1.915  16.744 -0.8565  0.4354  0.4905
 8708TIP3   OH247614   2.130   1.227  12.669 -0.6342  0.7534  0.2249
 8708TIP3    H147615   2.041   1.260  12.657 -0.4713  0.9977 -0.3104
 8708TIP3    H247616   2.147   1.175  12.590 -0.4905  0.2783  0.5640
 8709TIP3   OH247617   5.065   4.080  13.248 -0.3590  0.5210 -0.1140
 8709TIP3    H147618   5.051   4.138  13.322 -1.2927  1.8066 -1.2581
 8709TIP3    H247619   5.131   4.125  13.195  1.5152 -1.1772  0.7361
 8710TIP3   OH247620   6.591   4.229  14.632 -0.1393  0.1102  0.8566
 8710TIP3    H147621   6.589   4.308  14.578  2.2859 -0.5272 -0.2250
 8710TIP3    H247622   6.670   4.238  14.685  0.0015 -1.4423  0.9350
 8711TIP3   OH247623   5.239   0.370   0.658  0.6521 -0.0843 -0.7776
 8711TIP3    H147624   5.232   0.455   0.614  0.3528  0.3908  0.1645
 8711TIP3    H247625   5.244   0.392   0.751 -1.1677 -1.1789 -0.4005
 8712TIP3   OH247626   4.642   6.804  11.252  0.5541  0.2900 -0.4495
 8712TIP3    H147627   4.683   6.760  11.177 -1.1058 -0.5639 -0.8596
 8712TIP3    H247628   4.610   6.886  11.216  0.8812  0.4516 -0.3781
 8713TIP3   OH247629   4.753   1.205   0.093  0.1286 -0.3371  0.2976
 8713TIP3    H147630   4.767   1.117   0.057 -4.9233 -0.9771 -0.4758
 8713TIP3    H247631   4.783   1.198   0.184  0.6333 -2.5718  0.0025
 8714TIP3   OH247632   5.018   1.236  12.975 -0.1287  0.0364 -0.1932
 8714TIP3    H147633   5.057   1.316  13.011  0.9130 -0.9837  1.0233
 8714TIP3    H247634   4.957   1.266  12.908  0.4845  1.8297  0.0386
 8715TIP3   OH247635   0.941   5.338  13.370 -0.0119  0.1695 -0.2542
 8715TIP3    H147636   0.995   5.406  13.329 -0.6586  0.3184 -0.8703
 8715TIP3    H247637   0.870   5.387  13.412  0.6543  0.0216  1.0718
 8716TIP3   OH247638   4.139   5.361  14.637  0.0095 -0.3076 -0.1931
 8716TIP3    H147639   4.124   5.454  14.654 -1.6167 -0.5117 -0.4615
 8716TIP3    H247640   4.090   5.315  14.705  1.3839 -0.9689  0.3661
 8717TIP3   OH247641   5.802   3.727  12.333  0.2720 -0.7434 -0.1646
 8717TIP3    H147642   5.799   3.790  12.260  2.7325  1.9725  1.9523
 8717TIP3    H247643   5.853   3.654  12.299  0.4139 -0.0221 -1.5628
 8718TIP3   OH247644   2.474   2.666   6.102  0.2525 -0.1477  0.0624
 8718TIP3    H147645   2.512   2.640   6.018 -0.7222 -0.5562 -0.2503
 8718TIP3    H247646   2.510   2.604   6.165  0.1830 -0.4736 -0.2167
 8719TIP3   OH247647   4.343   1.545  16.406 -0.0143 -0.0901  0.0353
 8719TIP3    H147648   4.340   1.569  16.313  2.8715 -1.2639 -0.4135
 8719TIP3    H247649   4.376   1.624  16.450  0.3313 -0.1172 -0.1752
 8720TIP3   OH247650   4.895   5.788  12.534 -0.0064 -0.5838  0.7094
 8720TIP3    H147651   4.886   5.871  12.582 -1.9034  0.0299 -0.6083
 8720TIP3    H247652   4.859   5.722  12.593  1.7760 -0.5257  1.8802
 8721TIP3   OH247653   5.571   3.849  16.850 -0.0701 -0.0213 -0.3245
 8721TIP3    H147654   5.640   3.892  16.800 -0.1473  0.8175  0.2726
 8721TIP3    H247655   5.490   3.893  16.821  0.0395  1.6210  1.6789
 8722TIP3   OH247656   1.701   0.134  12.908 -0.5582 -0.4622 -0.0771
 8722TIP3    H147657   1.738   0.201  12.965 -0.3766 -1.0280  0.4686
 8722TIP3    H247658   1.625   0.177  12.867  0.2252  0.4450 -0.6091
 8723TIP3   OH247659   5.670   4.116  13.801  0.4938 -0.6166 -0.1242
 8723TIP3    H147660   5.752   4.151  13.766 -0.8906  1.6130 -1.2305
 8723TIP3    H247661   5.641   4.180  13.865 -0.3485 -1.4472  0.3448
 8724TIP3   OH247662   2.924   4.892   0.071  0.2841 -0.5335  0.2289
 8724TIP3    H147663   2.977   4.936   0.004 -0.1635  1.0454  0.8972
 8724TIP3    H247664   2.848   4.858   0.023  0.4846 -0.3212 -0.2386
 8725TIP3   OH247665   6.556   3.064   0.250 -0.5225  0.1794 -0.4114
 8725TIP3    H147666   6.617   3.138   0.251  0.0491 -0.2875  0.3847
 8725TIP3    H247667   6.470   3.104   0.261 -0.2641  0.7722 -0.5383
 8726TIP3   OH247668   6.808   5.895   0.265  0.1585 -0.0762 -0.2473
 8726TIP3    H147669   6.848   5.818   0.307 -0.2868 -0.7229 -0.9991
 8726TIP3    H247670   6.870   5.919   0.197  0.4896  0.4837  0.2460
 8727TIP3   OH247671   0.191   1.147   6.480  0.1365  0.1256 -0.4720
 8727TIP3    H147672   0.110   1.098   6.468 -0.3812  1.6680 -4.0064
 8727TIP3    H247673   0.164   1.232   6.513  0.4210  0.1935 -0.4089
 8728TIP3   OH247674   4.656   0.645  10.573 -0.6013 -0.0410 -0.0357
 8728TIP3    H147675   4.723   0.615  10.512  0.0610  0.0623  0.6483
 8728TIP3    H247676   4.697   0.640  10.659 -1.7118 -0.6933  0.4710
 8729TIP3   OH247677   1.841   2.944   2.893 -0.2395 -0.6048  0.3211
 8729TIP3    H147678   1.760   2.958   2.844  0.9644  1.6782 -1.0894
 8729TIP3    H247679   1.815   2.955   2.985 -0.9836  3.3018 -0.2563
 8730TIP3   OH247680   3.190   5.990   0.046 -0.0784  0.3565 -0.3137
 8730TIP3    H147681   3.214   5.982  -0.046  1.7189  0.6313  0.0947
 8730TIP3    H247682   3.095   5.987   0.047 -0.0507 -2.4948 -1.9154
 8731TIP3   OH247683   3.022   6.152  13.872  0.3003  0.6267  0.3576
 8731TIP3    H147684   2.937   6.169  13.833  0.3351  2.2499  0.9645
 8731TIP3    H247685   3.004   6.097  13.948 -0.1250  0.4121  0.1028
 8732TIP3   OH247686   0.408   5.887  13.119 -0.7260  0.3107 -0.2736
 8732TIP3    H147687   0.340   5.946  13.088  0.0931 -0.2167 -3.2752
 8732TIP3    H247688   0.388   5.803  13.077 -0.2871 -0.8334  1.7171
 8733TIP3   OH247689   0.136   5.573   1.360 -0.0690 -0.7651 -0.5865
 8733TIP3    H147690   0.158   5.646   1.302 -0.1052 -0.1453  0.1697
 8733TIP3    H247691   0.165   5.601   1.447  0.0655 -1.7221 -0.3190
 8734TIP3   OH247692   6.071   0.439   3.447 -0.1463 -0.3447 -0.4055
 8734TIP3    H147693   6.166   0.434   3.458 -0.0014  0.3599 -1.3102
 8734TIP3    H247694   6.036   0.407   3.531  0.8867  0.2044  0.2469
 8735TIP3   OH247695   0.294   4.838   6.259 -0.2111 -0.0976 -0.0962
 8735TIP3    H147696   0.293   4.867   6.350 -1.0150  1.0295 -0.4389
 8735TIP3    H247697   0.355   4.765   6.257 -0.4057 -0.3157  1.4019
 8736TIP3   OH247698   6.531   2.510   5.859  0.4002 -0.0736 -0.0445
 8736TIP3    H147699   6.487   2.435   5.898  0.4059  0.2118  0.5126
 8736TIP3    H247700   6.461   2.560   5.818  0.2267  0.2696  0.6609
 8737TIP3   OH247701   3.651   5.446   1.780  0.5040  0.1043  0.0435
 8737TIP3    H147702   3.614   5.435   1.693  0.6416  3.0204 -0.4331
 8737TIP3    H247703   3.587   5.499   1.827  1.1642 -0.1260  1.2423
 8738TIP3   OH247704   5.190   5.035  17.095 -0.1438 -0.3313 -0.2591
 8738TIP3    H147705   5.219   5.112  17.045 -0.8192 -1.0957 -1.8655
 8738TIP3    H247706   5.270   4.986  17.112  0.0771 -0.1610 -0.7764
 8739TIP3   OH247707   0.588   6.355   0.096  0.0022  0.2739 -0.0552
 8739TIP3    H147708   0.518   6.295   0.121 -0.4529  0.2610 -1.3510
 8739TIP3    H247709   0.611   6.329   0.007  1.1988  0.7108  0.1226
 8740TIP3   OH247710   3.840   1.174  14.532 -0.0526 -0.0025 -0.3016
 8740TIP3    H147711   3.898   1.104  14.503 -0.2228  0.5445 -1.9990
 8740TIP3    H247712   3.791   1.200  14.454 -1.0520  1.0108  0.6239
 8741TIP3   OH247713   2.595   0.015   2.034  0.2335 -0.1213  0.1713
 8741TIP3    H147714   2.674   0.026   1.981 -1.5251 -1.6034 -2.8997
 8741TIP3    H247715   2.573   0.103   2.064  0.8403  0.8681 -2.2247
 8742TIP3   OH247716   2.328   2.357   2.596 -0.0278  0.1773 -0.2028
 8742TIP3    H147717   2.380   2.360   2.515 -1.8260  0.2525 -1.3886
 8742TIP3    H247718   2.281   2.440   2.597  1.0224  0.7614  1.6491
 8743TIP3   OH247719   2.841   1.256  13.225 -0.1986 -0.1361 -0.1083
 8743TIP3    H147720   2.912   1.305  13.266  0.6255  0.5050 -2.2062
 8743TIP3    H247721   2.763   1.311  13.237 -0.1861 -0.4799  1.5294
 8744TIP3   OH247722   6.188   4.618   4.751 -0.2244  0.4236 -0.0249
 8744TIP3    H147723   6.280   4.595   4.766 -0.5151  0.0078  1.1824
 8744TIP3    H247724   6.192   4.690   4.688  0.8529 -0.6961 -1.3097
 8745TIP3   OH247725   2.523   5.128   3.314  0.0949  0.5321 -0.6434
 8745TIP3    H147726   2.548   5.037   3.301 -0.5437  0.0924  1.0846
 8745TIP3    H247727   2.604   5.171   3.341 -0.0408  0.0296  0.5982
 8746TIP3   OH247728   4.812   0.540   5.928  0.0993  0.3096  0.2537
 8746TIP3    H147729   4.774   0.620   5.964  1.2633  1.9002 -1.9605
 8746TIP3    H247730   4.899   0.566   5.897  0.5234 -1.8181 -0.4432
 8747TIP3   OH247731   2.220   0.639  14.202 -0.0811  0.0317  0.3244
 8747TIP3    H147732   2.154   0.594  14.149 -0.0079 -1.4378  1.4411
 8747TIP3    H247733   2.176   0.657  14.285  1.3022 -2.2281  1.6024
 8748TIP3   OH247734   3.648   2.276  13.125 -0.7190  0.8145  0.0090
 8748TIP3    H147735   3.654   2.264  13.220 -0.4997 -1.9832 -0.3404
 8748TIP3    H247736   3.611   2.194  13.092 -0.5425  1.6519 -2.3693
 8749TIP3   OH247737   4.936   3.771   5.194  0.0431 -0.0515 -0.3005
 8749TIP3    H147738   4.911   3.697   5.139 -1.7567  0.2203  0.1107
 8749TIP3    H247739   4.971   3.732   5.273 -0.9065 -0.4725 -0.0851
 8750TIP3   OH247740   6.246   6.099  13.328 -0.1665  0.4014 -0.9137
 8750TIP3    H147741   6.262   6.099  13.233 -1.9451 -0.2638 -1.2312
 8750TIP3    H247742   6.154   6.122  13.337 -0.1361 -0.0393  0.6383
 8751TIP3   OH247743   6.573   1.241   4.571 -0.2321  0.0401 -0.4410
 8751TIP3    H147744   6.621   1.216   4.492 -1.4863 -2.1194 -0.5475
 8751TIP3    H247745   6.492   1.190   4.568 -0.2308 -0.2141  2.3058
 8752TIP3   OH247746   2.594   0.621  13.802 -0.4722 -0.0667  0.2053
 8752TIP3    H147747   2.668   0.564  13.783 -0.2273 -0.0313  1.0163
 8752TIP3    H247748   2.614   0.703  13.758 -0.0639 -0.0800  0.3692
 8753TIP3   OH247749   4.308   1.864  14.961  0.4576  0.3323 -0.0338
 8753TIP3    H147750   4.357   1.936  15.001 -1.8891  1.8444  0.2069
 8753TIP3    H247751   4.312   1.793  15.025  2.4131  0.3753 -0.0763
 8754TIP3   OH247752   6.262   2.147   4.157  0.2847 -0.0297  1.2494
 8754TIP3    H147753   6.352   2.177   4.139 -0.1549  0.5113 -0.0812
 8754TIP3    H247754   6.270   2.052   4.163  0.6230 -0.1529 -0.8865
 8755TIP3   OH247755   6.601   3.901   0.417  0.0678  0.0341  0.0328
 8755TIP3    H147756   6.624   3.879   0.326  0.4797 -1.1765  0.4201
 8755TIP3    H247757   6.638   3.988   0.430  2.7942 -1.0550  0.0108
 8756TIP3   OH247758   4.813   0.592  11.231 -0.3064  0.1234  0.6001
 8756TIP3    H147759   4.811   0.666  11.170  2.0236  2.2603  3.0043
 8756TIP3    H247760   4.735   0.604  11.285 -0.4465  0.2748  0.3657
 8757TIP3   OH247761   5.279   1.805   3.106  0.1171 -0.0605  0.4748
 8757TIP3    H147762   5.249   1.800   3.015 -0.0444 -1.2013  0.5843
 8757TIP3    H247763   5.361   1.756   3.107 -0.4244 -0.9662  1.1622
 8758TIP3   OH247764   0.309   6.248   6.340  0.1457  0.1440 -0.4666
 8758TIP3    H147765   0.400   6.274   6.353 -0.0994  0.2960  1.0133
 8758TIP3    H247766   0.258   6.317   6.381 -0.6046 -0.5107 -0.2948
 8759TIP3   OH247767   0.256   6.346  15.821 -0.1374  0.3863 -0.0387
 8759TIP3    H147768   0.315   6.354  15.746  0.3817  2.0284  0.5088
 8759TIP3    H247769   0.183   6.294  15.789  0.4970  0.3116 -1.4192
 8760TIP3   OH247770   0.747   3.914  13.285  0.3679 -0.2800 -0.0554
 8760TIP3    H147771   0.839   3.933  13.305  0.7457  1.2980 -2.9586
 8760TIP3    H247772   0.751   3.863  13.204 -1.3315 -0.0092 -0.3260
 8761TIP3   OH247773   6.153   1.240  16.695  0.3568 -0.0294  0.1898
 8761TIP3    H147774   6.100   1.190  16.758 -0.9414 -0.2309 -1.0298
 8761TIP3    H247775   6.208   1.174  16.653 -2.6933 -0.8079 -2.7605
 8762TIP3   OH247776   4.097   4.130   0.921 -0.3193 -0.5388  0.3599
 8762TIP3    H147777   4.032   4.128   0.851  1.7112  0.6904 -1.6516
 8762TIP3    H247778   4.065   4.197   0.981 -0.4904  0.6801 -1.0591
 8763TIP3   OH247779   6.425   5.588  12.091 -0.1128  0.2852 -0.2068
 8763TIP3    H147780   6.475   5.639  12.154 -0.3344  2.0844 -1.4527
 8763TIP3    H247781   6.337   5.582  12.127 -0.0249  0.5800  0.0527
 8764TIP3   OH247782   2.315   4.883  12.162  0.3627 -0.0294  0.1041
 8764TIP3    H147783   2.317   4.968  12.119 -1.2640 -0.0169  0.0285
 8764TIP3    H247784   2.232   4.845  12.136  0.1466 -0.7654  1.8295
 8765TIP3   OH247785   3.892   5.081   2.806  0.1575  0.0365 -0.2510
 8765TIP3    H147786   3.981   5.097   2.838  0.3574 -0.9099 -0.3049
 8765TIP3    H247787   3.872   5.156   2.751  0.8054  0.4095  0.0200
 8766TIP3   OH247788   1.354   5.172  14.333  0.2267  0.1505  0.4571
 8766TIP3    H147789   1.300   5.158  14.256  0.1967 -1.9611  0.8333
 8766TIP3    H247790   1.438   5.133  14.311  1.2402  2.3308  0.3362
 8767TIP3   OH247791   5.172   1.270  13.960  0.3415 -0.4484  0.2585
 8767TIP3    H147792   5.125   1.319  13.892  2.8163  1.3140 -0.2720
 8767TIP3    H247793   5.187   1.334  14.029  0.6239 -1.3991  1.0801
 8768TIP3   OH247794   2.718   2.837   3.922 -0.6309  0.0386  0.0893
 8768TIP3    H147795   2.702   2.888   3.842  0.7973 -0.1503 -0.3449
 8768TIP3    H247796   2.813   2.825   3.923 -0.7606 -0.9456  1.2270
 8769TIP3   OH247797   5.854   2.550  14.460 -0.1560  0.0037  0.2772
 8769TIP3    H147798   5.758   2.555  14.464 -0.1768  0.2944 -0.4481
 8769TIP3    H247799   5.871   2.473  14.406  0.0007  0.4874 -0.3780
 8770TIP3   OH247800   5.166   6.068   1.019  0.1505  0.2612 -0.3919
 8770TIP3    H147801   5.158   6.135   1.086 -0.2364 -1.0121  0.8488
 8770TIP3    H247802   5.226   6.106   0.954  0.7973  1.3487  0.8278
 8771TIP3   OH247803   6.750   1.765   0.684  0.3602  0.2014 -0.4694
 8771TIP3    H147804   6.801   1.708   0.627  1.5316 -0.8398  1.5504
 8771TIP3    H247805   6.777   1.854   0.661  1.0505 -0.2163 -1.2860
 8772TIP3   OH247806   4.213   3.753  12.822 -0.6593  0.6943  0.0886
 8772TIP3    H147807   4.156   3.774  12.896  2.4687  2.4663  2.1208
 8772TIP3    H247808   4.221   3.836  12.775  2.5769  1.2575  1.5462
 8773TIP3   OH247809   5.173   2.230   2.187  0.1436 -0.0138  0.2910
 8773TIP3    H147810   5.253   2.282   2.189 -0.9128  1.7368 -1.0902
 8773TIP3    H247811   5.191   2.160   2.124  0.4994  0.5818 -0.2793
 8774TIP3   OH247812   5.994   2.068   0.200  0.4909  0.9349 -0.2706
 8774TIP3    H147813   6.058   1.998   0.211 -0.6249 -0.1561 -0.5494
 8774TIP3    H247814   5.949   2.074   0.285 -0.0108  0.7047 -0.5165
 8775TIP3   OH247815   5.599   4.058   3.748  0.2167  0.0102  0.1370
 8775TIP3    H147816   5.629   3.987   3.804  0.6614 -0.1722 -0.3336
 8775TIP3    H247817   5.515   4.028   3.714  0.7296 -0.5954 -0.6169
 8776TIP3   OH247818   2.321   5.288  15.505  0.2727 -0.3148 -0.2008
 8776TIP3    H147819   2.316   5.279  15.600  1.5484  2.0261  0.1175
 8776TIP3    H247820   2.323   5.198  15.473  0.8091 -1.1435  2.0506
 8777TIP3   OH247821   5.700   0.843   0.855 -0.1667 -0.6788 -0.5680
 8777TIP3    H147822   5.786   0.845   0.813  1.4598  0.3213  2.5990
 8777TIP3    H247823   5.679   0.750   0.864 -0.2168 -0.9002 -2.8654
 8778TIP3   OH247824   2.018   3.525  15.983  0.5202  0.3260 -0.1277
 8778TIP3    H147825   2.032   3.577  15.903 -2.3876 -0.0179 -0.8995
 8778TIP3    H247826   1.986   3.588  16.047 -1.8808 -0.2429 -0.7190
 8779TIP3   OH247827   1.093   5.963  16.856  0.0062  0.1929 -0.1145
 8779TIP3    H147828   1.122   6.050  16.885 -0.8631  0.3858  0.1850
 8779TIP3    H247829   1.090   5.970  16.761 -0.5463  0.6489 -0.0654
 8780TIP3   OH247830   2.867   0.655  16.336 -0.1908  0.3845 -0.0021
 8780TIP3    H147831   2.887   0.643  16.429  0.6193 -0.7157 -0.3187
 8780TIP3    H247832   2.948   0.690  16.298  0.0770 -0.9274 -0.6483
 8781TIP3   OH247833   4.782   4.794   6.988  0.3508 -0.0532  0.0627
 8781TIP3    H147834   4.751   4.780   6.898 -0.2832 -0.2302  0.3058
 8781TIP3    H247835   4.858   4.736   6.996 -0.3400 -0.9822  0.0348
 8782TIP3   OH247836   5.314   6.566  14.317  0.0568  0.2399 -0.5636
 8782TIP3    H147837   5.298   6.472  14.317  0.7067  0.1221  0.1640
 8782TIP3    H247838   5.345   6.585  14.406 -0.4855  1.2098 -0.5715
 8783TIP3   OH247839   1.516   0.515  16.781  0.4911 -0.1452  0.3001
 8783TIP3    H147840   1.604   0.485  16.802  0.8159  0.4450 -0.2311
 8783TIP3    H247841   1.498   0.583  16.846  0.3379 -0.4166  0.5430
 8784TIP3   OH247842   3.964   2.211   6.411 -0.0937  0.0412  0.2618
 8784TIP3    H147843   3.913   2.136   6.442 -0.7321  0.4366  0.1832
 8784TIP3    H247844   4.028   2.227   6.480  0.5999 -1.0938 -0.0942
 8785TIP3   OH247845   0.358   1.324   3.093  0.4853 -0.1241  0.6068
 8785TIP3    H147846   0.374   1.258   3.026 -1.4712 -0.6662  0.6453
 8785TIP3    H247847   0.407   1.293   3.170  1.0593 -0.5655  0.0610
 8786TIP3   OH247848   5.197   1.758   6.464 -0.1071 -0.3365  0.2266
 8786TIP3    H147849   5.107   1.731   6.450 -1.4739  2.7747  2.4222
 8786TIP3    H247850   5.220   1.806   6.384 -0.3478 -1.2195 -0.3762
 8787TIP3   OH247851   5.386   2.837  14.935 -0.4202  0.1087  0.1433
 8787TIP3    H147852   5.293   2.839  14.957 -0.5327  0.3198 -0.3525
 8787TIP3    H247853   5.413   2.747  14.953 -0.5204  0.2579  1.1021
 8788TIP3   OH247854   3.408   0.968   0.218  0.3505 -0.1350  0.0795
 8788TIP3    H147855   3.402   1.030   0.291 -0.2592  1.3088 -1.1598
 8788TIP3    H247856   3.490   0.922   0.232  1.6241  2.0746  0.1946
 8789TIP3   OH247857   5.739   3.452   1.642 -0.2797 -0.0256 -0.5158
 8789TIP3    H147858   5.682   3.413   1.575 -0.4958 -0.2293 -0.2116
 8789TIP3    H247859   5.810   3.491   1.591  0.1114 -1.0919 -0.8108
 8790TIP3   OH247860   4.370   2.203  14.462 -0.0067  0.1505 -0.0592
 8790TIP3    H147861   4.442   2.250  14.504 -0.0537  0.7046 -0.5826
 8790TIP3    H247862   4.354   2.127  14.518  0.0166  0.8055  0.8504
 8791TIP3   OH247863   1.881   0.250  10.992 -0.6586  0.4170 -0.5933
 8791TIP3    H147864   1.834   0.312  11.047  0.2849  1.3835 -0.8611
 8791TIP3    H247865   1.873   0.167  11.038 -1.1973  0.9061  0.2112
 8792TIP3   OH247866   3.120   0.352   0.500  0.1354 -0.0699  0.0828
 8792TIP3    H147867   3.160   0.394   0.424 -0.9250 -0.3636 -0.6446
 8792TIP3    H247868   3.165   0.268   0.507 -0.0152 -0.1953 -0.4364
 8793TIP3   OH247869   4.074   3.046   0.744  0.3786  0.2747 -0.3028
 8793TIP3    H147870   4.085   2.956   0.776  2.1635  1.0047  1.2474
 8793TIP3    H247871   4.163   3.080   0.736 -0.3082  2.5746  1.1260
 8794TIP3   OH247872   6.048   2.297   2.049 -0.6773 -0.7911 -0.1911
 8794TIP3    H147873   6.050   2.219   2.104  0.0178 -0.3321  0.4328
 8794TIP3    H247874   6.123   2.349   2.077  0.2745 -1.0227 -2.2542
 8795TIP3   OH247875   6.308   1.361  12.971 -0.4210 -0.4968 -0.2005
 8795TIP3    H147876   6.264   1.337  12.889  0.2798  1.0922 -1.0684
 8795TIP3    H247877   6.397   1.329  12.960 -0.7166 -1.6107  0.5765
 8796TIP3   OH247878   6.587   6.179   5.181  0.1162 -0.1926  0.1543
 8796TIP3    H147879   6.521   6.247   5.190  1.0274  0.8175 -0.5394
 8796TIP3    H247880   6.650   6.197   5.251  2.2692  1.9525 -2.2048
 8797TIP3   OH247881   1.901   5.943   0.638 -0.3205 -0.3551  0.3638
 8797TIP3    H147882   1.980   5.938   0.693 -0.8446  0.5167  1.2352
 8797TIP3    H247883   1.857   5.860   0.652  0.5988 -0.9697 -0.3651
 8798TIP3   OH247884   0.442   3.034  15.284 -0.3746 -0.4106  0.2297
 8798TIP3    H147885   0.439   2.939  15.276 -0.5991 -0.3758 -0.1310
 8798TIP3    H247886   0.354   3.063  15.260 -1.5526 -0.3699  4.1807
 8799TIP3   OH247887   1.883   1.891   5.408  0.0239 -0.0353 -0.4959
 8799TIP3    H147888   1.881   1.987   5.403  1.7415  0.0530  0.0484
 8799TIP3    H247889   1.812   1.862   5.351 -1.0852  1.5799  0.0271
 8800TIP3   OH247890   1.341   1.071  13.998  0.1176  0.2919  0.7273
 8800TIP3    H147891   1.433   1.089  13.976 -0.7285  2.1348 -1.4467
 8800TIP3    H247892   1.310   1.015  13.928 -1.0675  1.6216  0.1768
 8801TIP3   OH247893   4.877   5.588  15.360 -0.2004  1.3120  0.0353
 8801TIP3    H147894   4.963   5.603  15.399 -0.1833 -1.3013  1.1323
 8801TIP3    H247895   4.889   5.510  15.305 -1.7107  1.2749 -0.2652
 8802TIP3   OH247896   5.660   3.506  16.331  0.0122  0.2149  0.1128
 8802TIP3    H147897   5.722   3.493  16.260 -0.2845 -0.1408 -0.0893
 8802TIP3    H247898   5.574   3.497  16.289 -0.1830  1.1877  0.2882
 8803TIP3   OH247899   4.056   4.909   5.504 -0.2279  0.2921  0.4948
 8803TIP3    H147900   4.149   4.931   5.507  0.1376 -1.1178  0.0689
 8803TIP3    H247901   4.053   4.816   5.527 -1.2993 -0.2644 -1.7482
 8804TIP3   OH247902   6.795   0.451   3.767  0.0755 -0.8670 -0.4173
 8804TIP3    H147903   6.712   0.495   3.749 -0.5710 -1.3897  1.2277
 8804TIP3    H247904   6.853   0.520   3.799  0.0507 -0.6483 -0.8353
 8805TIP3   OH247905   3.658   0.132  12.452 -0.1615  0.1931 -0.2613
 8805TIP3    H147906   3.670   0.064  12.519  1.3804  0.2338 -0.4796
 8805TIP3    H247907   3.713   0.204  12.482 -1.8006  1.3695 -0.0222
 8806TIP3   OH247908   1.642   3.350   1.189  0.2465 -0.1639 -0.2067
 8806TIP3    H147909   1.650   3.374   1.096 -0.5135  0.0622 -0.2212
 8806TIP3    H247910   1.732   3.342   1.220  0.5082 -1.8729 -1.3737
 8807TIP3   OH247911   2.946   1.486  14.339 -0.5679 -0.1534 -0.4252
 8807TIP3    H147912   2.986   1.509  14.423 -1.0054  1.1437 -0.5768
 8807TIP3    H247913   2.934   1.391  14.344  1.5810 -0.4178  0.0372
 8808TIP3   OH247914   3.694   5.476  13.780 -0.5260 -0.2108 -0.2271
 8808TIP3    H147915   3.659   5.407  13.836 -1.1862  0.1409 -0.2112
 8808TIP3    H247916   3.679   5.557  13.828 -0.2094 -0.0021 -0.4723
 8809TIP3   OH247917   4.016   1.776  12.959 -0.0203 -0.0228 -0.3375
 8809TIP3    H147918   3.944   1.838  12.949  0.4344  0.6821  0.6666
 8809TIP3    H247919   4.094   1.831  12.960  0.2278 -0.3450  3.0635
 8810TIP3   OH247920   4.546   0.442   4.074  0.6221  0.3738  0.2208
 8810TIP3    H147921   4.621   0.500   4.063 -0.3766  2.3324  3.0732
 8810TIP3    H247922   4.580   0.367   4.123  0.7554  1.2834  1.5502
 8811TIP3   OH247923   1.887   1.692  13.877  0.2084  0.1188 -0.1496
 8811TIP3    H147924   1.943   1.678  13.800 -0.7707  0.1359 -0.8692
 8811TIP3    H247925   1.894   1.611  13.927  0.4759 -0.0709 -0.4902
 8812TIP3   OH247926   6.516   0.744   2.582  0.0857 -0.3148 -0.9107
 8812TIP3    H147927   6.548   0.668   2.629 -3.4314 -0.6817  1.0422
 8812TIP3    H247928   6.520   0.719   2.490  1.8343 -1.6836 -0.4768
 8813TIP3   OH247929   5.304   5.552   0.031  0.3227 -0.1300  0.6152
 8813TIP3    H147930   5.376   5.535   0.092 -0.1091 -1.4045  0.7754
 8813TIP3    H247931   5.226   5.517   0.075 -0.4605  1.5265  0.5913
 8814TIP3   OH247932   5.559   0.947  10.947  0.4062 -0.2361 -0.2982
 8814TIP3    H147933   5.641   0.996  10.949 -0.4261  1.1996 -1.1693
 8814TIP3    H247934   5.512   0.976  11.025  0.6902 -1.0536  0.1955
 8815TIP3   OH247935   3.644   3.315  12.986  0.1818  0.2204 -0.2048
 8815TIP3    H147936   3.676   3.243  13.041 -0.2284 -0.3772 -0.7350
 8815TIP3    H247937   3.707   3.385  12.998 -0.1661  0.2699  1.4068
 8816TIP3   OH247938   4.099   2.206   4.469 -0.4152 -0.7098  0.6505
 8816TIP3    H147939   4.017   2.230   4.513  0.0207 -0.2345  1.2024
 8816TIP3    H247940   4.121   2.119   4.503 -1.5709 -1.5873 -0.7539
 8817TIP3   OH247941   5.134   0.345   2.492 -0.4636  0.3239  0.7186
 8817TIP3    H147942   5.179   0.379   2.414 -0.3809  0.5222  0.8517
 8817TIP3    H247943   5.156   0.252   2.494  0.9100  0.6552  1.4412
 8818TIP3   OH247944   5.125   4.772   4.853  0.0185  0.0103 -0.0827
 8818TIP3    H147945   5.147   4.766   4.946  0.3440 -0.2255 -0.1741
 8818TIP3    H247946   5.209   4.764   4.808  0.1111  2.1160 -0.3330
 8819TIP3   OH247947   1.165   2.446   3.934  0.2127 -0.2757 -0.2259
 8819TIP3    H147948   1.089   2.395   3.905  0.5429  0.6085 -2.6829
 8819TIP3    H247949   1.226   2.443   3.861  2.0572  0.0800  1.2446
 8820TIP3   OH247950   3.844   6.064  17.066 -0.5226 -0.1070 -0.1496
 8820TIP3    H147951   3.822   6.035  17.154 -0.2763 -0.3844 -0.1784
 8820TIP3    H247952   3.933   6.030  17.051 -0.2054  0.7155 -0.1602
 8821TIP3   OH247953   6.525   0.092   2.958 -0.2535 -0.2664  0.0532
 8821TIP3    H147954   6.453   0.155   2.959 -1.1811 -1.3103  0.7062
 8821TIP3    H247955   6.594   0.133   3.009 -0.8283  0.2376  0.4240
 8822TIP3   OH247956   5.361   4.920   4.740 -0.0523 -0.0900 -0.4146
 8822TIP3    H147957   5.426   4.928   4.810 -0.5559  0.6253 -0.0249
 8822TIP3    H247958   5.297   4.989   4.758 -0.9489 -0.8165 -0.7655
 8823TIP3   OH247959   4.163   2.866   2.151 -0.2124  0.0328 -0.6853
 8823TIP3    H147960   4.172   2.939   2.213  1.3529  0.9356 -1.9604
 8823TIP3    H247961   4.218   2.797   2.187 -1.5541 -0.4689  0.4296
 8824TIP3   OH247962   6.568   3.779   4.488 -0.2222  0.1158  0.1683
 8824TIP3    H147963   6.496   3.803   4.546  0.2399 -0.4475  0.9781
 8824TIP3    H247964   6.546   3.821   4.405 -1.1542  0.4893  0.5930
 8825TIP3   OH247965   1.949   3.764  14.138  0.4369  0.3525  0.4577
 8825TIP3    H147966   1.972   3.763  14.231  0.3231  0.8308  0.4922
 8825TIP3    H247967   1.865   3.810  14.135  0.4423  0.3391  0.1182
 8826TIP3   OH247968   2.966   1.063   3.035 -0.1720  0.0353  0.3859
 8826TIP3    H147969   2.936   1.087   3.122  1.5076 -0.2044  1.0612
 8826TIP3    H247970   2.928   0.977   3.019 -0.1267 -0.1161  1.0785
 8827TIP3   OH247971   6.434   1.126  12.621 -0.0213  0.4751 -0.3632
 8827TIP3    H147972   6.351   1.095  12.656 -0.8350  2.1751 -0.7634
 8827TIP3    H247973   6.490   1.137  12.698  0.3345 -2.0115 -0.2111
 8828TIP3   OH247974   5.385   0.809   1.357  0.1557 -0.1000  0.2690
 8828TIP3    H147975   5.470   0.781   1.325  0.4952 -0.9051  1.8262
 8828TIP3    H247976   5.369   0.893   1.313  0.9226 -0.8045 -1.3875
 8829TIP3   OH247977   3.678   0.565  15.388 -0.1691 -0.6732 -0.4196
 8829TIP3    H147978   3.585   0.549  15.371 -0.4636  0.7074 -0.0999
 8829TIP3    H247979   3.679   0.630  15.458  1.0488 -1.3530  0.2131
 8830TIP3   OH247980   6.247   4.458  15.294 -0.3834  0.0093  0.5148
 8830TIP3    H147981   6.248   4.439  15.388 -0.5472 -0.7808  0.3582
 8830TIP3    H247982   6.252   4.372  15.252 -1.3937  0.2922 -0.2029
 8831TIP3   OH247983   6.704   6.619   2.160  0.6873  0.2789 -0.3719
 8831TIP3    H147984   6.787   6.585   2.192  0.8452  1.3882  0.4208
 8831TIP3    H247985   6.729   6.689   2.099  0.3301  1.9899  1.4112
 8832TIP3   OH247986   1.761   4.713   6.317 -0.0144  0.1488  0.5652
 8832TIP3    H147987   1.698   4.728   6.246 -1.3611 -0.7982  1.5366
 8832TIP3    H247988   1.707   4.698   6.394  1.4415  1.6088  1.9151
 8833TIP3   OH247989   3.070   1.279  10.112  0.2573  0.4482 -0.4403
 8833TIP3    H147990   3.012   1.349  10.139 -1.1684 -0.4734 -1.0526
 8833TIP3    H247991   3.086   1.228  10.192 -1.0192 -0.1748 -0.5696
 8834TIP3   OH247992   5.147   2.976  11.727 -0.4397  0.0534 -0.3368
 8834TIP3    H147993   5.161   2.882  11.735 -0.2189  0.1967  0.9855
 8834TIP3    H247994   5.231   3.011  11.698 -0.7432 -0.2446 -1.6040
 8835TIP3   OH247995   4.188   1.243  14.471  0.0596  0.6351  0.0504
 8835TIP3    H147996   4.162   1.280  14.387  1.2608  1.3333 -0.0265
 8835TIP3    H247997   4.129   1.169  14.484 -0.4869  0.8486 -1.1491
 8836TIP3   OH247998   6.533   0.563  16.762 -0.2593  0.3959 -0.2657
 8836TIP3    H147999   6.593   0.629  16.727  0.9518  0.5671  2.0105
 8836TIP3    H248000   6.586   0.483  16.765 -0.3551  0.3722  1.0612
 8837TIP3   OH248001   1.265   1.689   1.060 -0.5373  0.2172  0.2520
 8837TIP3    H148002   1.203   1.757   1.086 -1.2421 -0.7139  1.0665
 8837TIP3    H248003   1.217   1.637   0.996 -0.5420 -0.4019  0.7542
 8838TIP3   OH248004   4.635   6.431  14.098 -0.4032  0.5015  0.4003
 8838TIP3    H148005   4.687   6.488  14.156 -2.1058  1.0447  1.4418
 8838TIP3    H248006   4.555   6.480  14.082 -2.5629 -2.1640  2.5050
 8839TIP3   OH248007   1.343   0.510   1.691  0.1638 -0.0405  0.1610
 8839TIP3    H148008   1.280   0.447   1.656  0.5679 -1.3120  1.6834
 8839TIP3    H248009   1.346   0.492   1.785  0.1468  2.3946  0.6600
 8840TIP3   OH248010   1.107   1.494   4.395 -0.5081  0.0880  0.7900
 8840TIP3    H148011   1.144   1.406   4.394 -0.8283 -0.0522 -1.0479
 8840TIP3    H248012   1.018   1.483   4.429 -0.9155 -0.4720 -0.4278
 8841TIP3   OH248013   2.851   4.931   2.983  0.1264  0.0016 -0.5150
 8841TIP3    H148014   2.815   4.850   2.947  2.1677 -0.6838 -1.0440
 8841TIP3    H248015   2.930   4.905   3.028 -0.2133  1.4556  0.9701
 8842TIP3   OH248016   6.052   4.004   4.939 -0.1679 -0.1647 -0.1745
 8842TIP3    H148017   6.091   3.979   5.023 -1.4120 -2.2723 -0.2112
 8842TIP3    H248018   5.986   4.070   4.962  0.1190 -0.0747  0.3991
 8843TIP3   OH248019   1.637   2.590  13.915  0.0096 -0.4807 -0.4894
 8843TIP3    H148020   1.549   2.594  13.877  0.8594  0.8500 -2.4014
 8843TIP3    H248021   1.638   2.658  13.982 -1.1311 -2.0734  1.2207
 8844TIP3   OH248022   1.252   0.387   3.391  0.2464 -0.5889  0.4618
 8844TIP3    H148023   1.328   0.333   3.370  0.5889 -0.5298  1.4876
 8844TIP3    H248024   1.234   0.436   3.311  1.2425 -0.6729  0.1839
 8845TIP3   OH248025   3.537   3.741  15.489  0.3403  0.0759 -0.5685
 8845TIP3    H148026   3.629   3.750  15.465  0.7101  0.8288  1.0331
 8845TIP3    H248027   3.538   3.737  15.585 -1.0989 -2.4635 -0.6279
 8846TIP3   OH248028   5.484   4.147  16.289  0.7580 -0.4201  0.3028
 8846TIP3    H148029   5.478   4.202  16.368 -1.4015  1.0113 -0.8103
 8846TIP3    H248030   5.475   4.058  16.321  3.8340 -0.1720  2.1089
 8847TIP3   OH248031   4.967   2.846  11.264 -0.3087 -0.1248  0.0921
 8847TIP3    H148032   4.925   2.765  11.234 -0.4652  0.2085 -0.5980
 8847TIP3    H248033   5.059   2.835  11.241 -0.7301  0.9090 -2.2561
 8848TIP3   OH248034   0.678   3.343  16.451 -0.0459  0.3299  1.0619
 8848TIP3    H148035   0.627   3.298  16.517 -0.5788 -0.5919  0.0463
 8848TIP3    H248036   0.615   3.366  16.383  0.7738 -0.3178  0.0598
 8849TIP3   OH248037   2.837   1.080   0.526  0.3439  0.1689  0.3683
 8849TIP3    H148038   2.826   1.136   0.603  2.7383  1.0222  0.1339
 8849TIP3    H248039   2.860   0.994   0.562  1.2574  0.5144  0.6253
 8850TIP3   OH248040   0.597   5.525   4.586 -0.3490  0.1320 -0.2887
 8850TIP3    H148041   0.562   5.470   4.516  1.4295 -1.2541 -0.1185
 8850TIP3    H248042   0.684   5.489   4.604 -0.5265  0.8626  2.2107
 8851TIP3   OH248043   1.079   5.689   0.168 -0.2766  0.2825  0.0365
 8851TIP3    H148044   1.043   5.738   0.094  1.5826  0.6964 -0.6162
 8851TIP3    H248045   1.138   5.750   0.212 -1.2523 -0.0038  1.8065
 8852TIP3   OH248046   3.660   5.679   4.735  0.2660  0.2235 -0.5604
 8852TIP3    H148047   3.626   5.723   4.657  0.4081  0.1005 -0.6889
 8852TIP3    H248048   3.680   5.590   4.707 -0.6967 -0.1397 -0.1295
 8853TIP3   OH248049   1.516   4.913   1.836 -0.1660 -0.0908  0.7048
 8853TIP3    H148050   1.604   4.940   1.813 -0.3253  1.1233  1.4485
 8853TIP3    H248051   1.523   4.881   1.926 -0.6658  0.9944  1.1410
 8854TIP3   OH248052   5.986   2.804  14.432 -0.6034  0.1239  0.6894
 8854TIP3    H148053   5.938   2.722  14.440 -1.3536  0.5511  0.6146
 8854TIP3    H248054   5.926   2.862  14.385 -0.2428  0.8487  1.1221
 8855TIP3   OH248055   1.957   1.032  16.734  0.3497 -0.4108  0.1005
 8855TIP3    H148056   1.879   0.977  16.725  0.0185  0.1417 -0.4342
 8855TIP3    H248057   2.000   1.000  16.813 -0.1065 -1.1086  0.0649
 8856TIP3   OH248058   5.756   6.296   2.478  0.4854  0.4434 -0.0179
 8856TIP3    H148059   5.769   6.290   2.384 -0.7942 -0.7376 -0.1191
 8856TIP3    H248060   5.811   6.227   2.515  0.0196  0.0875  0.0149
 8857TIP3   OH248061   1.313   3.845   4.284 -0.0980  0.3249  0.1871
 8857TIP3    H148062   1.370   3.807   4.218  1.5607 -0.5403  2.0652
 8857TIP3    H248063   1.239   3.785   4.290 -0.6900  0.8758 -1.4899
 8858TIP3   OH248064   0.456   2.521  12.904  0.2084 -0.2817  0.2636
 8858TIP3    H148065   0.539   2.475  12.915 -0.8105 -2.1828  0.2523
 8858TIP3    H248066   0.390   2.460  12.938 -1.4118  0.2225 -1.8397
 8859TIP3   OH248067   3.811   4.538   3.574 -0.3231 -0.2226  0.2897
 8859TIP3    H148068   3.819   4.628   3.541 -0.0530 -0.3330  0.0514
 8859TIP3    H248069   3.759   4.494   3.507 -0.9196 -0.1098  0.6707
 8860TIP3   OH248070   2.293   2.491   0.486 -0.0273  0.0912 -0.3263
 8860TIP3    H148071   2.347   2.482   0.407  1.0738  0.4426  0.3748
 8860TIP3    H248072   2.222   2.549   0.460  0.5690  0.5475 -0.9414
 8861TIP3   OH248073   1.930   2.158  14.428 -0.4605 -0.3211  0.2156
 8861TIP3    H148074   1.916   2.237  14.375 -0.1101 -0.2388  0.2470
 8861TIP3    H248075   1.872   2.170  14.504 -0.5316 -0.1716  0.1377
 8862TIP3   OH248076   6.071   0.928   1.216  0.5483  0.6122  0.1490
 8862TIP3    H148077   6.063   0.855   1.154  0.6873  0.3241  0.4736
 8862TIP3    H248078   5.983   0.938   1.251  0.3203  1.2033 -0.5826
 8863TIP3   OH248079   0.151   4.628   2.027 -0.1845 -0.0718 -0.4063
 8863TIP3    H148080   0.195   4.711   2.012 -1.0227  0.0795 -2.1448
 8863TIP3    H248081   0.204   4.564   1.981 -1.1735 -0.0471 -1.6025
 8864TIP3   OH248082   2.021   5.287   4.161  0.2697  0.0793  0.0209
 8864TIP3    H148083   2.070   5.262   4.240 -1.3366 -2.2771  0.3043
 8864TIP3    H248084   1.930   5.293   4.191 -0.3052 -0.4968 -1.5732
 8865TIP3   OH248085   3.263   1.459  10.981 -0.3207  0.5827 -0.0628
 8865TIP3    H148086   3.326   1.484  11.049  0.5547  1.1762 -1.0680
 8865TIP3    H248087   3.303   1.383  10.939 -0.5480  0.6111 -0.3289
 8866TIP3   OH248088   5.477   5.165  14.727  0.0846  0.1203 -0.3637
 8866TIP3    H148089   5.572   5.170  14.724  0.1035 -0.7803 -1.4411
 8866TIP3    H248090   5.448   5.210  14.647 -0.3828 -0.1050 -0.3232
 8867TIP3   OH248091   1.996   2.709   3.025  0.1485  0.6261  0.3018
 8867TIP3    H148092   1.997   2.675   2.936  0.9253  0.9177  0.2007
 8867TIP3    H248093   1.918   2.765   3.028 -1.8031 -2.0160  0.8073
 8868TIP3   OH248094   6.750   5.833  16.144 -0.6051 -0.3573  0.4271
 8868TIP3    H148095   6.717   5.806  16.230  0.6638  0.5184  1.2034
 8868TIP3    H248096   6.703   5.914  16.124 -1.3006 -0.8516  0.0326
 8869TIP3   OH248097   6.002   2.112  11.017  0.7672 -0.0926  0.4147
 8869TIP3    H148098   5.964   2.046  10.958 -0.6512 -0.7006  1.9641
 8869TIP3    H248099   5.974   2.196  10.981  0.8995 -0.4185 -0.4488
 8870TIP3   OH248100   6.473   0.658   1.531 -0.3736 -0.2698  0.0724
 8870TIP3    H148101   6.492   0.700   1.615 -2.1353  0.6558  0.0500
 8870TIP3    H248102   6.495   0.724   1.465  0.5855 -0.8294 -0.1684
 8871TIP3   OH248103   0.817   3.585  12.569 -0.4176  0.5374  0.0034
 8871TIP3    H148104   0.765   3.507  12.550  1.1800 -0.4229 -0.5178
 8871TIP3    H248105   0.907   3.553  12.575  0.1130  2.1692  0.9143
 8872TIP3   OH248106   3.296   6.321   4.150 -0.2364 -0.2026  0.0220
 8872TIP3    H148107   3.311   6.262   4.076  1.9695  1.7837 -1.1945
 8872TIP3    H248108   3.274   6.405   4.110 -3.1644 -0.0844  1.7260
 8873TIP3   OH248109   4.627   1.117  11.921  0.1388  0.3311 -0.0830
 8873TIP3    H148110   4.710   1.111  11.969 -0.4164 -0.9404  0.7376
 8873TIP3    H248111   4.633   1.201  11.875  1.6710  0.4909  0.3544
 8874TIP3   OH248112   4.130   1.914   5.513 -0.0204  0.0913  0.0381
 8874TIP3    H148113   4.136   1.921   5.609 -0.4496 -2.1907  0.2668
 8874TIP3    H248114   4.137   2.004   5.482 -0.6714  0.9504  2.2642
 8875TIP3   OH248115   5.982   2.835   1.520  0.0350 -0.1737 -0.6652
 8875TIP3    H148116   5.978   2.925   1.487 -2.5965  0.6668  1.7565
 8875TIP3    H248117   5.891   2.804   1.516  0.7051 -2.2526 -0.1870
 8876TIP3   OH248118   0.929   0.009   5.787 -0.1962 -0.1814  0.1646
 8876TIP3    H148119   1.013   0.026   5.745 -0.0155  0.3016  0.7099
 8876TIP3    H248120   0.874  -0.028   5.717 -0.0300  0.9929 -0.6105
 8877TIP3   OH248121   5.909   4.439  11.857 -0.5050 -0.1749 -0.2372
 8877TIP3    H148122   5.939   4.361  11.811 -0.8208 -0.4885  0.0925
 8877TIP3    H248123   5.988   4.493  11.867 -0.0375 -1.0225  0.6773
 8878TIP3   OH248124   5.899   3.820   2.496  0.1279  0.4880 -0.1034
 8878TIP3    H148125   5.849   3.883   2.444 -0.4287 -1.3651 -1.8973
 8878TIP3    H248126   5.991   3.838   2.474  0.0896  1.8244  0.7729
 8879TIP3   OH248127   6.818   4.405  10.672  0.7390  0.2037  0.1482
 8879TIP3    H148128   6.900   4.360  10.690  0.2006 -0.6556  0.5004
 8879TIP3    H248129   6.762   4.384  10.747 -0.2267 -0.2634 -0.6901
 8880TIP3   OH248130   2.372   4.339   2.035 -0.6686  0.5284 -0.3982
 8880TIP3    H148131   2.426   4.411   2.003  0.6163 -0.3750 -0.2803
 8880TIP3    H248132   2.429   4.262   2.030 -2.4378 -0.7447 -1.7886
 8881TIP3   OH248133   1.937   3.504  17.252 -0.3813  0.9224 -0.1397
 8881TIP3    H148134   1.980   3.508  17.338  0.0876 -0.1308 -0.3066
 8881TIP3    H248135   1.977   3.574  17.202  0.2276  0.7681  0.1242
 8882TIP3   OH248136   5.821   2.751   5.003  0.2005 -0.4662  0.3829
 8882TIP3    H148137   5.880   2.753   5.079  0.6148  0.1003  0.0503
 8882TIP3    H248138   5.747   2.807   5.029 -0.2278 -1.2366  0.8291
 8883TIP3   OH248139   5.591   3.181  15.244 -0.5482  0.7838  0.4019
 8883TIP3    H148140   5.545   3.265  15.245 -0.9631  0.6417 -2.4929
 8883TIP3    H248141   5.683   3.205  15.235 -0.4761  0.9447  1.4513
 8884TIP3   OH248142   4.674   6.418  13.822  1.1842  0.0941 -0.1890
 8884TIP3    H148143   4.683   6.400  13.916  1.1589  2.5522  0.3120
 8884TIP3    H248144   4.763   6.439  13.793  0.9696  0.6969 -0.4168
 8885TIP3   OH248145   2.861   1.941  14.792  0.5612  0.3296  0.3122
 8885TIP3    H148146   2.876   2.036  14.798  1.4519  0.1844  0.3941
 8885TIP3    H248147   2.779   1.927  14.841 -0.2008  1.2099 -0.6775
 8886TIP3   OH248148   5.783   5.400  11.692  0.0670 -0.3214  0.8057
 8886TIP3    H148149   5.692   5.427  11.683 -0.3366 -2.2471 -1.5074
 8886TIP3    H248150   5.778   5.306  11.710  1.5681 -0.0755  2.6554
 8887TIP3   OH248151   0.693   6.664  13.716  0.1849 -0.0340  0.4591
 8887TIP3    H148152   0.733   6.749  13.694  0.3735 -0.0498  0.7353
 8887TIP3    H248153   0.688   6.664  13.812 -1.1890  0.2888  0.3967
 8888TIP3   OH248154   1.780   3.033  14.604 -0.3947 -0.6384  0.1855
 8888TIP3    H148155   1.876   3.028  14.605 -0.4639 -2.9295  0.1213
 8888TIP3    H248156   1.757   3.056  14.514  0.0861 -0.2069  0.1727
 8889TIP3   OH248157   4.479   3.555   0.754 -0.5314 -0.1339 -0.0566
 8889TIP3    H148158   4.572   3.568   0.737 -0.1979  0.4491  2.0450
 8889TIP3    H248159   4.455   3.480   0.699  1.3003 -0.6238 -0.2257
 8890TIP3   OH248160   6.315   2.641  13.970  0.0206 -0.7120  0.2202
 8890TIP3    H148161   6.223   2.655  13.946 -0.4226 -1.4310  1.4301
 8890TIP3    H248162   6.338   2.557  13.929  0.0556 -0.6581  0.1305
 8891TIP3   OH248163   1.069   2.843  14.285  0.9522 -0.4446  0.5724
 8891TIP3    H148164   1.134   2.819  14.218  0.6697 -0.5315  0.3279
 8891TIP3    H248165   1.112   2.912  14.336  1.6826 -1.3113  1.1454
 8892TIP3   OH248166   2.883   6.555  14.850  0.3188  0.0590 -0.4941
 8892TIP3    H148167   2.789   6.574  14.850  0.1046 -0.9378  0.8022
 8892TIP3    H248168   2.909   6.567  14.759 -0.7812  1.7053 -0.6285
 8893TIP3   OH248169   6.300   0.168  15.692 -0.1321 -0.5822 -0.1261
 8893TIP3    H148170   6.392   0.194  15.701 -0.4640  0.2635  0.9567
 8893TIP3    H248171   6.270   0.212  15.613 -0.8518  2.9356  1.9944
 8894TIP3   OH248172   6.647   0.636   0.206 -0.1613  0.3751  0.1209
 8894TIP3    H148173   6.615   0.712   0.158  2.1342  0.9941 -0.5231
 8894TIP3    H248174   6.661   0.569   0.139 -2.7844 -0.8856  0.7641
 8895TIP3   OH248175   2.748   4.458   0.040 -0.0411 -0.2580  0.2932
 8895TIP3    H148176   2.681   4.417   0.095  0.8454  0.6732  2.0953
 8895TIP3    H248177   2.706   4.536   0.004 -1.1156 -1.6729 -1.6259
 8896TIP3   OH248178   5.070   0.266  14.692  0.1688 -0.2928 -0.6831
 8896TIP3    H148179   5.150   0.272  14.639  1.7930  0.4590  1.7540
 8896TIP3    H248180   5.004   0.233  14.631  2.2759 -0.7788 -2.8221
 8897TIP3   OH248181   3.211   3.927   0.747 -0.0357  0.0206  0.1964
 8897TIP3    H148182   3.116   3.912   0.749  0.3485 -2.8374 -1.1724
 8897TIP3    H248183   3.241   3.881   0.669  2.4220  1.4799  0.2301
 8898TIP3   OH248184   5.907   3.685  10.546 -0.1347 -0.2106  0.2632
 8898TIP3    H148185   5.858   3.632  10.484 -0.0882  0.7099 -0.5680
 8898TIP3    H248186   5.852   3.688  10.624  0.0407 -1.8032  0.4640
 8899TIP3   OH248187   2.979   3.921   1.847 -0.0783 -0.1376 -0.1386
 8899TIP3    H148188   3.060   3.971   1.856 -0.9197  1.0890  0.8067
 8899TIP3    H248189   2.967   3.911   1.753  0.5591  0.6904 -0.3137
 8900TIP3   OH248190   4.677   0.009   6.572 -0.3027 -0.2931  0.5841
 8900TIP3    H148191   4.588  -0.001   6.606 -0.3554 -1.6130  0.0617
 8900TIP3    H248192   4.696  -0.074   6.529  0.6833  0.4646 -0.4766
 8901TIP3   OH248193   2.581   4.161  15.363  0.2516 -0.3191  0.4567
 8901TIP3    H148194   2.675   4.172  15.350 -0.1771  2.2198 -0.6860
 8901TIP3    H248195   2.546   4.152  15.275 -0.7325 -0.1417  0.8310
 8902TIP3   OH248196   0.523   4.823   1.284 -0.0039  0.2437  0.0267
 8902TIP3    H148197   0.491   4.910   1.306 -0.1777  0.0813  0.4225
 8902TIP3    H248198   0.523   4.775   1.368 -0.9399 -0.4651 -0.3625
 8903TIP3   OH248199   5.552   3.354  11.631  0.2153  0.1624  0.2508
 8903TIP3    H148200   5.616   3.388  11.569  1.4733 -0.0639  1.4094
 8903TIP3    H248201   5.479   3.416  11.627  0.5429  0.4677 -1.0136
 8904TIP3   OH248202   1.358   1.046  16.742 -0.2871  0.5010 -0.0030
 8904TIP3    H148203   1.297   1.106  16.698 -1.2694 -0.4801 -0.0047
 8904TIP3    H248204   1.347   0.963  16.696  0.1110 -0.0218  0.8281
 8905TIP3   OH248205   3.292   2.769   0.146 -0.4135 -0.2011  0.5251
 8905TIP3    H148206   3.249   2.698   0.098 -1.3202 -0.4542  1.7030
 8905TIP3    H248207   3.222   2.831   0.166  0.1057  0.2972  0.8076
 8906TIP3   OH248208   3.852   5.503   2.930  0.0496 -0.0784  0.3409
 8906TIP3    H148209   3.931   5.532   2.975 -0.3397  0.4363  0.6927
 8906TIP3    H248210   3.796   5.468   3.000  0.1479 -0.8640  0.0378
 8907TIP3   OH248211   1.654   1.336  16.337  0.4706 -0.1047 -0.1445
 8907TIP3    H148212   1.666   1.258  16.282  0.5648  0.1933 -0.5503
 8907TIP3    H248213   1.609   1.398  16.280  1.4930  0.5837 -0.2108
 8908TIP3   OH248214   0.254   2.404  12.601 -0.0459  0.0728  0.1613
 8908TIP3    H148215   0.323   2.337  12.604  0.0202  0.1022 -0.5140
 8908TIP3    H248216   0.245   2.424  12.508 -1.5839 -0.5706  0.1519
 8909TIP3   OH248217   5.268   5.809   4.724 -0.0611 -0.3205  0.2207
 8909TIP3    H148218   5.356   5.801   4.687 -0.5374 -2.2490 -0.5647
 8909TIP3    H248219   5.213   5.830   4.649 -0.2243  1.3253  0.7837
 8910TIP3   OH248220   4.979   6.408  13.806 -0.0585  0.2109  0.5630
 8910TIP3    H148221   5.029   6.396  13.726 -2.3096  2.6590 -1.2751
 8910TIP3    H248222   4.951   6.319  13.831  0.1329 -0.5045 -1.6939
 8911TIP3   OH248223   4.440   4.692  11.246  0.4548  0.5217 -0.1157
 8911TIP3    H148224   4.380   4.668  11.176 -0.6697 -0.3641  1.1224
 8911TIP3    H248225   4.414   4.780  11.272  2.2181  1.6925 -2.1890
 8912TIP3   OH248226   5.268   0.434   4.188  0.0501 -0.1636  0.7391
 8912TIP3    H148227   5.287   0.387   4.269  2.2855 -0.9689 -0.2045
 8912TIP3    H248228   5.348   0.424   4.135 -1.7385 -0.5094 -1.9792
 8913TIP3   OH248229   3.767   4.897   4.667 -0.2959  0.0809 -0.4175
 8913TIP3    H148230   3.690   4.922   4.717  0.2043  1.0884 -0.1340
 8913TIP3    H248231   3.742   4.816   4.624 -1.8045  0.8123 -0.9768
 8914TIP3   OH248232   0.852   6.287   3.518  0.2735  0.3089 -0.6576
 8914TIP3    H148233   0.761   6.258   3.529 -0.0453  1.4752 -0.1307
 8914TIP3    H248234   0.851   6.379   3.543  1.2647  0.7837 -2.2905
 8915TIP3   OH248235   4.789   0.760   1.821  0.3293  0.0061  0.4137
 8915TIP3    H148236   4.833   0.781   1.739  3.9861  3.4409  3.0329
 8915TIP3    H248237   4.807   0.667   1.835  0.7170 -0.3072 -2.0179
 8916TIP3   OH248238   3.741   5.420   4.661  0.1985 -0.0197 -0.4176
 8916TIP3    H148239   3.696   5.336   4.660 -1.8363  1.0151 -0.3170
 8916TIP3    H248240   3.807   5.412   4.729 -0.6804 -1.2024  0.3172
 8917TIP3   OH248241   4.797   4.527  11.428  0.2967 -0.2065  0.0743
 8917TIP3    H148242   4.731   4.506  11.493  2.1213 -2.5384  1.2396
 8917TIP3    H248243   4.750   4.525  11.344 -1.9053  2.1438  1.1994
 8918TIP3   OH248244   3.957   0.818  17.098 -0.1829 -0.1540 -0.3703
 8918TIP3    H148245   3.878   0.783  17.138 -0.6860 -0.1924 -1.3704
 8918TIP3    H248246   4.009   0.741  17.076 -0.5144 -0.2078 -0.9979
 8919TIP3   OH248247   1.433   2.292  13.204  0.1226  0.2235 -0.0892
 8919TIP3    H148248   1.466   2.351  13.272 -1.2505 -0.1302  0.8763
 8919TIP3    H248249   1.340   2.284  13.221 -0.4432  0.8952 -2.5852
 8920TIP3   OH248250   6.687   5.923  13.325  0.0055  0.1306 -0.1243
 8920TIP3    H148251   6.746   5.882  13.262  0.8398 -1.2483  1.5206
 8920TIP3    H248252   6.743   5.949  13.398 -1.2030  0.1725  0.8045
 8921TIP3   OH248253   4.816   6.116   2.134  0.1120 -0.1952  0.6447
 8921TIP3    H148254   4.778   6.045   2.082 -1.8769  1.5614 -0.3608
 8921TIP3    H248255   4.859   6.173   2.071  0.8717  0.0163  1.3414
 8922TIP3   OH248256   1.036   2.754  14.807 -0.4824  0.5476  0.1860
 8922TIP3    H148257   0.986   2.786  14.732 -0.0792  0.8603  0.0529
 8922TIP3    H248258   0.993   2.671  14.830 -1.0722  0.8175  0.0821
 8923TIP3   OH248259   6.261   3.664  11.762  0.2172 -0.3593  0.0712
 8923TIP3    H148260   6.207   3.743  11.754  1.4230  0.6095  1.1141
 8923TIP3    H248261   6.279   3.657  11.856  1.2241 -1.1253 -0.1716
 8924TIP3   OH248262   3.733   5.450  16.590  0.2601  0.2613 -0.3241
 8924TIP3    H148263   3.694   5.385  16.531  0.9912  0.5011 -1.0841
 8924TIP3    H248264   3.824   5.457  16.561  0.5470  0.6097  0.6476
 8925TIP3   OH248265   5.333   1.373  12.032 -0.0217 -0.3097 -0.3477
 8925TIP3    H148266   5.336   1.357  12.126  0.7041 -2.2776 -0.6930
 8925TIP3    H248267   5.242   1.357  12.007 -0.8183  2.6785  0.4008
 8926TIP3   OH248268   4.354   3.951   3.032 -0.4331 -0.4503 -0.0401
 8926TIP3    H148269   4.294   3.948   3.107  0.5296 -1.7497  0.6817
 8926TIP3    H248270   4.392   3.864   3.027  0.8629  0.1415 -0.9539
 8927TIP3   OH248271   6.535   0.306  14.903  0.0780  0.8263  0.4793
 8927TIP3    H148272   6.580   0.232  14.944 -1.6729  0.3524  1.5674
 8927TIP3    H248273   6.494   0.353  14.975 -0.9783  1.4077 -0.4828
 8928TIP3   OH248274   1.609   5.915  10.962 -0.5001 -0.2808  0.5657
 8928TIP3    H148275   1.633   6.003  10.992  0.5023 -0.7599  1.1838
 8928TIP3    H248276   1.516   5.907  10.983 -1.5128  1.9720 -2.7536
 8929TIP3   OH248277   6.101   2.569  11.818 -0.1994  0.1851 -0.6220
 8929TIP3    H148278   6.111   2.663  11.809  1.2145  0.0997  0.0416
 8929TIP3    H248279   6.012   2.558  11.854  0.3684  1.3755  1.2448
 8930TIP3   OH248280   6.692   0.944  13.908  0.2182 -0.1128  0.0941
 8930TIP3    H148281   6.704   0.913  13.998 -0.4671 -1.1130 -0.1408
 8930TIP3    H248282   6.682   1.039  13.916  0.3922 -0.1677  1.0488
 8931TIP3   OH248283   4.910   4.884   0.476 -0.4380  0.0381  0.1812
 8931TIP3    H148284   4.818   4.882   0.447 -0.0904  0.7386 -0.9799
 8931TIP3    H248285   4.934   4.976   0.473  0.8228 -0.3202 -1.1331
 8932TIP3   OH248286   4.085   2.777  15.246 -0.4043  0.9193 -0.2900
 8932TIP3    H148287   4.110   2.700  15.196  0.7889  1.3966 -0.4487
 8932TIP3    H248288   4.060   2.842  15.180  0.3022  1.2511 -0.2342
 8933TIP3   OH248289   5.196   4.094   1.712 -0.1951 -0.1155 -0.0269
 8933TIP3    H148290   5.246   4.142   1.646  0.7915  0.1336  0.8899
 8933TIP3    H248291   5.258   4.029   1.746 -1.6093 -2.3150 -1.5207
 8934TIP3   OH248292   0.565   2.596   1.073 -0.3597  0.3317 -0.5018
 8934TIP3    H148293   0.643   2.591   1.018 -0.1219  0.8202 -0.2200
 8934TIP3    H248294   0.495   2.559   1.020  0.0662 -0.1260 -0.7529
 8935TIP3   OH248295   0.910   4.195  16.530  0.4190  0.3295  0.6670
 8935TIP3    H148296   0.880   4.165  16.444  0.3850  0.4330  0.6437
 8935TIP3    H248297   0.992   4.148  16.544 -0.0789 -0.4509  1.0235
 8936TIP3   OH248298   3.840   0.743  14.449 -0.1746 -0.1078 -0.0597
 8936TIP3    H148299   3.772   0.777  14.507  0.8578 -0.3384  1.3208
 8936TIP3    H248300   3.793   0.684  14.389 -1.0668 -1.0724  1.5390
 8937TIP3   OH248301   1.406   0.517  12.639  0.5130 -0.1779  0.4614
 8937TIP3    H148302   1.412   0.570  12.560  1.5126  0.0350  0.6661
 8937TIP3    H248303   1.497   0.501  12.664  0.2207  1.2272  2.5346
 8938TIP3   OH248304   4.953   3.371   2.228 -0.0737 -0.1267  0.4309
 8938TIP3    H148305   5.023   3.350   2.167 -1.8775  0.7626 -2.0454
 8938TIP3    H248306   4.985   3.447   2.277  0.6585  0.3238 -0.7368
 8939TIP3   OH248307   0.421   5.553   3.349  0.0834 -0.7150  0.2227
 8939TIP3    H148308   0.417   5.536   3.443 -2.4858  2.2387  0.7275
 8939TIP3    H248309   0.385   5.474   3.309 -1.7248 -0.7832  1.9004
 8940TIP3   OH248310   0.125   5.648  15.934 -0.6941  0.6961  0.4208
 8940TIP3    H148311   0.148   5.686  15.849 -2.2427  1.8101  0.4780
 8940TIP3    H248312   0.125   5.723  15.994  0.4582 -0.0968  1.4400
 8941TIP3   OH248313   0.159   0.014   4.364 -0.5062  0.4496 -0.2537
 8941TIP3    H148314   0.096  -0.029   4.422 -1.2965  1.1257 -0.5812
 8941TIP3    H248315   0.244  -0.008   4.399 -0.9323 -0.4960  0.2000
 8942TIP3   OH248316   1.849   0.340  13.408 -0.2779  0.0906 -0.2959
 8942TIP3    H148317   1.851   0.434  13.422 -0.2839  0.3114 -1.7023
 8942TIP3    H248318   1.916   0.324  13.342 -0.6272 -0.8256 -0.4368
 8943TIP3   OH248319   3.422   4.257  17.087 -0.2017 -0.2468 -0.4817
 8943TIP3    H148320   3.457   4.232  17.002 -0.8441  1.3900 -1.2506
 8943TIP3    H248321   3.495   4.299  17.132  1.0537 -3.8298  1.0355
 8944TIP3   OH248322   5.510   3.826   3.147  0.3445 -0.3132  0.0181
 8944TIP3    H148323   5.499   3.912   3.106 -0.5983 -0.7764 -0.7211
 8944TIP3    H248324   5.558   3.844   3.228  0.3109  0.8838 -0.2172
 8945TIP3   OH248325   0.514   0.364  10.863  0.5869 -0.8846 -0.1695
 8945TIP3    H148326   0.487   0.338  10.775 -0.5660 -0.4967  0.0566
 8945TIP3    H248327   0.462   0.309  10.921 -1.1632  1.1624  0.3034
 8946TIP3   OH248328   0.279   2.611  13.837 -0.1414  0.0759 -0.7858
 8946TIP3    H148329   0.286   2.574  13.925 -1.1588  0.1386 -0.6779
 8946TIP3    H248330   0.197   2.576  13.802  0.3078 -0.0260 -1.7505
 8947TIP3   OH248331   6.778   5.184  14.519  0.3038 -0.5988 -0.0168
 8947TIP3    H148332   6.732   5.177  14.603 -1.5066 -0.1054 -0.9279
 8947TIP3    H248333   6.709   5.173  14.453  1.3850  0.8604 -1.4435
 8948TIP3   OH248334   2.843   1.171   3.949 -0.2673  0.1541  0.4360
 8948TIP3    H148335   2.796   1.134   4.024  1.4871 -0.4256  1.2797
 8948TIP3    H248336   2.856   1.096   3.890 -1.3023  0.5306 -0.2900
 8949TIP3   OH248337   4.976   0.400  13.558 -0.1011  0.2835  0.2122
 8949TIP3    H148338   5.056   0.452  13.558  0.1458 -0.0771 -0.8456
 8949TIP3    H248339   4.960   0.381  13.465 -0.3012 -1.3215  0.5595
 8950TIP3   OH248340   4.047   6.331  16.835  0.1355  0.6701 -0.1766
 8950TIP3    H148341   4.099   6.411  16.833  0.0846  0.8793  3.1928
 8950TIP3    H248342   3.956   6.361  16.833  0.1229  0.6677  0.2561
 8951TIP3   OH248343   6.408   0.304   5.691 -0.1210  0.6029  0.1995
 8951TIP3    H148344   6.489   0.306   5.642 -0.3867 -0.8009 -0.3210
 8951TIP3    H248345   6.410   0.383   5.745  3.0812 -1.0118  2.5876
 8952TIP3   OH248346   1.030   6.294  16.066  0.4777 -0.3516  0.2968
 8952TIP3    H148347   0.943   6.258  16.088  0.9208 -2.1789 -0.7783
 8952TIP3    H248348   1.091   6.234  16.109  1.2234 -0.0732 -0.3767
 8953TIP3   OH248349   2.189   0.075  14.530  0.0681  0.0548 -0.3571
 8953TIP3    H148350   2.227  -0.011  14.546 -0.0730  0.1945  0.7983
 8953TIP3    H248351   2.140   0.065  14.449  1.1381 -0.5872 -0.9339
 8954TIP3   OH248352   4.824   3.006   2.712 -0.1613  0.3454  0.0224
 8954TIP3    H148353   4.867   3.080   2.752  1.0006 -0.1467 -0.3098
 8954TIP3    H248354   4.894   2.945   2.690 -0.8434  0.2646 -2.0428
 8955TIP3   OH248355   1.651   3.417   0.845 -0.0771 -0.1573  0.1833
 8955TIP3    H148356   1.620   3.488   0.790 -1.2142 -1.6510 -1.1485
 8955TIP3    H248357   1.579   3.353   0.845  1.4016 -1.8644  0.3460
 8956TIP3   OH248358   5.004   1.656  14.495  0.8759  0.0866 -0.1111
 8956TIP3    H148359   4.918   1.622  14.469 -0.1232  3.9736 -2.2665
 8956TIP3    H248360   4.984   1.734  14.548  3.0783 -0.1781  1.1690
 8957TIP3   OH248361   2.251   6.068   2.198 -0.1041  0.6565 -0.0857
 8957TIP3    H148362   2.219   5.986   2.160  0.0300 -0.3522  1.9321
 8957TIP3    H248363   2.176   6.102   2.248 -0.6632  2.5866 -2.1512
 8958TIP3   OH248364   4.074   5.943  16.698  0.0954  0.2842  0.2897
 8958TIP3    H148365   4.112   5.914  16.616  0.8588  0.4806  0.5702
 8958TIP3    H248366   4.103   5.878  16.762 -0.0043  0.4566  0.5115
 8959TIP3   OH248367   2.868   3.209  15.012  0.1984  0.0449  0.5570
 8959TIP3    H148368   2.802   3.143  14.991  0.4264  0.0899 -0.3148
 8959TIP3    H248369   2.819   3.278  15.057 -0.2685 -0.1381  0.3380
 8960TIP3   OH248370   0.541   0.522  14.709 -0.2654  0.6813 -0.0921
 8960TIP3    H148371   0.629   0.487  14.722 -0.4597  0.7879  1.6906
 8960TIP3    H248372   0.502   0.520  14.796 -2.1728  0.2515 -0.9437
 8961TIP3   OH248373   2.057   0.596  16.613  0.0660 -0.2069  0.5464
 8961TIP3    H148374   2.006   0.578  16.692 -1.4518  2.3522  0.1833
 8961TIP3    H248375   1.995   0.588  16.541  0.6834  0.6585 -0.1029
 8962TIP3   OH248376   6.344   3.004   4.056  0.0927  0.2672  0.1372
 8962TIP3    H148377   6.423   2.951   4.040 -1.0991 -1.7396  0.8004
 8962TIP3    H248378   6.277   2.966   3.999 -0.6135  1.5069  0.1176
 8963TIP3   OH248379   5.144   1.527  10.469 -0.0503 -0.2046  0.2187
 8963TIP3    H148380   5.178   1.613  10.447 -0.1282  0.0781  1.1703
 8963TIP3    H248381   5.208   1.491  10.530 -1.4775  0.3867  2.1155
 8964TIP3   OH248382   3.147   2.558  13.778  0.2676  0.3240  0.4106
 8964TIP3    H148383   3.212   2.522  13.839  0.8485  1.7648  0.6745
 8964TIP3    H248384   3.078   2.593  13.834 -0.0524  0.0696  0.1771
 8965TIP3   OH248385   4.763   0.861  11.403  0.4418 -0.1439  0.8293
 8965TIP3    H148386   4.783   0.955  11.401  1.9401 -0.4547  1.1240
 8965TIP3    H248387   4.792   0.829  11.318 -0.6511 -0.2438  0.4781
 8966TIP3   OH248388   4.766   1.324   4.602 -0.1825 -0.2329 -0.0118
 8966TIP3    H148389   4.857   1.352   4.615 -0.5420  1.2547 -0.6105
 8966TIP3    H248390   4.754   1.328   4.507 -1.0850  0.2688  0.1230
 8967TIP3   OH248391   6.304   4.092  13.501 -0.3437  0.5467 -0.5885
 8967TIP3    H148392   6.338   4.149  13.432 -1.6270  1.7575 -0.2388
 8967TIP3    H248393   6.209   4.097  13.492 -0.4952 -0.1980  0.5345
 8968TIP3   OH248394   3.831   6.616   4.059  0.5194  0.3286  0.4283
 8968TIP3    H148395   3.884   6.564   4.120  0.6688 -1.3525 -1.0929
 8968TIP3    H248396   3.746   6.573   4.060  0.8186 -0.3286 -1.2940
 8969TIP3   OH248397   2.407   0.322   1.266 -0.0978  0.1852 -0.0176
 8969TIP3    H148398   2.341   0.384   1.298 -0.7532 -0.1534 -0.6937
 8969TIP3    H248399   2.454   0.370   1.199  1.0001  0.7546  1.1343
 8970TIP3   OH248400   6.755   2.327   2.879  0.4275  0.2858  0.2661
 8970TIP3    H148401   6.762   2.239   2.917 -2.8387 -0.7323 -1.2995
 8970TIP3    H248402   6.813   2.325   2.803 -1.7104 -1.5558 -1.4161
 8971TIP3   OH248403   3.435   5.565   6.551 -0.0936  0.0164  0.1895
 8971TIP3    H148404   3.345   5.543   6.527 -0.1589  1.0959 -0.5690
 8971TIP3    H248405   3.488   5.532   6.479  0.0841 -0.2238  0.4272
 8972TIP3   OH248406   6.229   2.131   3.261 -0.0780 -0.5673  0.1352
 8972TIP3    H148407   6.258   2.040   3.258 -0.5436 -0.7257  0.4030
 8972TIP3    H248408   6.136   2.126   3.285  0.0068 -0.0025  0.5896
 8973TIP3   OH248409   2.074   3.888   4.506  0.3371 -0.1974 -0.9538
 8973TIP3    H148410   2.146   3.830   4.479  1.6731  1.2190 -0.5029
 8973TIP3    H248411   2.064   3.871   4.599  0.8058  0.3883 -0.7989
 8974TIP3   OH248412   5.153   2.473   1.362  0.0184  0.0533  0.3793
 8974TIP3    H148413   5.176   2.563   1.385  1.4552  0.1635 -1.4314
 8974TIP3    H248414   5.233   2.435   1.326 -0.7887 -1.7169  0.3696
 8975TIP3   OH248415   4.088   2.247  16.828  0.1843  0.7378 -0.2569
 8975TIP3    H148416   4.173   2.206  16.841 -0.5387 -0.4152  0.8809
 8975TIP3    H248417   4.109   2.338  16.804  1.7041  0.8347  1.3489
 8976TIP3   OH248418   2.224   3.396   2.657  0.0182  0.4616 -0.3710
 8976TIP3    H148419   2.280   3.454   2.709  1.9871 -0.6494 -1.1590
 8976TIP3    H248420   2.135   3.428   2.671  0.8845  2.4716  0.7056
 8977TIP3   OH248421   2.905   6.017  16.719 -0.0865  0.6235 -0.4097
 8977TIP3    H148422   2.857   6.098  16.700 -0.4393  0.5014 -0.0239
 8977TIP3    H248423   2.850   5.970  16.781  0.6492  0.5960  0.2231
 8978TIP3   OH248424   5.065   0.679  12.922  0.0674 -0.0707  0.3513
 8978TIP3    H148425   5.143   0.666  12.976  0.9420 -0.6853 -1.0487
 8978TIP3    H248426   5.058   0.600  12.869 -1.0866  0.3066 -0.0874
 8979TIP3   OH248427   3.548   3.114  16.794  0.6459  0.1833 -0.1621
 8979TIP3    H148428   3.505   3.038  16.833  1.1716 -0.7619 -1.3921
 8979TIP3    H248429   3.610   3.144  16.861  0.8452 -0.8200  0.1111
 8980TIP3   OH248430   2.990   5.881   1.330  0.1113  0.6609 -0.2103
 8980TIP3    H148431   2.954   5.793   1.331 -1.0543  1.0989 -2.0264
 8980TIP3    H248432   3.049   5.884   1.406  2.6345 -2.6989 -1.9075
 8981TIP3   OH248433   6.178   0.281  12.871  0.2119  0.2431  0.5504
 8981TIP3    H148434   6.214   0.312  12.787 -1.8865 -0.2373 -0.5484
 8981TIP3    H248435   6.199   0.188  12.873  0.3267  0.2697  0.5968
 8982TIP3   OH248436   3.884   1.095   1.403 -0.3973 -0.1750 -0.4450
 8982TIP3    H148437   3.866   1.002   1.394 -0.9025 -0.0948 -0.3238
 8982TIP3    H248438   3.915   1.123   1.317  1.3855 -0.8024 -0.0075
 8983TIP3   OH248439   5.194   5.392  12.589  0.3672  0.4045 -0.3164
 8983TIP3    H148440   5.274   5.346  12.563  0.0543 -0.3555  0.0594
 8983TIP3    H248441   5.152   5.415  12.506 -1.7008 -3.8877 -0.5641
 8984TIP3   OH248442   3.062   2.216  11.334 -0.3009  0.0689  0.3223
 8984TIP3    H148443   3.057   2.252  11.246 -1.6165 -1.2033 -0.1302
 8984TIP3    H248444   3.152   2.234  11.362 -0.1258  1.2186 -0.9443
 8985TIP3   OH248445   6.274   5.589   3.561  0.3716 -0.0328 -0.0647
 8985TIP3    H148446   6.328   5.603   3.484 -0.3883 -0.6532 -0.7197
 8985TIP3    H248447   6.253   5.495   3.559 -1.4353  0.3594 -0.2910
 8986TIP3   OH248448   5.422   4.538  11.476 -0.0527  0.5065  0.7969
 8986TIP3    H148449   5.341   4.572  11.514 -0.9674  1.6696 -2.0138
 8986TIP3    H248450   5.403   4.447  11.454 -0.8475  0.9533 -0.4252
 8987TIP3   OH248451   3.842   6.485  14.971 -0.0947  0.1518  0.0563
 8987TIP3    H148452   3.926   6.477  15.015 -0.3000  0.0183  0.4247
 8987TIP3    H248453   3.837   6.408  14.914  1.1587  1.4631 -1.8974
 8988TIP3   OH248454   4.888   5.348  11.587 -0.6271 -0.5241  0.4753
 8988TIP3    H148455   4.898   5.256  11.611 -0.9086 -0.5899  0.3493
 8988TIP3    H248456   4.794   5.358  11.571 -0.6405 -0.1416  0.7883
 8989TIP3   OH248457   5.071   3.288  12.076  0.3988  0.4846  0.0063
 8989TIP3    H148458   5.014   3.295  12.152 -0.7838  0.3261 -0.8488
 8989TIP3    H248459   5.016   3.248  12.008  1.4753  0.4776 -0.8802
 8990TIP3   OH248460   0.650   4.742   2.780 -0.0346 -0.1219 -0.4397
 8990TIP3    H148461   0.605   4.706   2.704 -0.7464  0.5159 -0.3263
 8990TIP3    H248462   0.743   4.730   2.761 -0.2474 -2.2864 -0.2750
 8991TIP3   OH248463   6.279   0.363  14.343  0.3050 -0.5499 -0.7678
 8991TIP3    H148464   6.343   0.291  14.343  1.4627  0.4195  1.5364
 8991TIP3    H248465   6.310   0.422  14.274  0.7034 -1.1168 -1.0831
 8992TIP3   OH248466   1.737   1.558   5.232 -0.2882 -0.2148 -0.2174
 8992TIP3    H148467   1.658   1.513   5.203 -0.3495 -0.6108  0.5690
 8992TIP3    H248468   1.737   1.548   5.327 -0.0832  1.0774 -0.0726
 8993TIP3   OH248469   4.433   1.378  14.149  0.1990 -0.3553  0.2151
 8993TIP3    H148470   4.505   1.328  14.188 -1.2892 -0.9268  2.3434
 8993TIP3    H248471   4.387   1.316  14.094 -1.4157 -1.3054  2.5507
 8994TIP3   OH248472   0.690   3.105   3.927 -0.1833 -0.3580 -0.6105
 8994TIP3    H148473   0.775   3.147   3.938 -0.5361 -0.2321  1.9470
 8994TIP3    H248474   0.663   3.082   4.016 -2.6226 -0.7984 -1.4298
 8995TIP3   OH248475   4.576   0.678   2.065 -0.9423 -0.1402  0.2674
 8995TIP3    H148476   4.644   0.714   2.122 -1.7466  0.0831  1.0961
 8995TIP3    H248477   4.588   0.725   1.982 -0.7405  0.6553  0.7327
 8996TIP3   OH248478   4.814   6.189  14.411  0.1759  0.1283  0.3537
 8996TIP3    H148479   4.816   6.249  14.337 -1.0304 -1.3701 -0.9469
 8996TIP3    H248480   4.848   6.107  14.376 -1.8259 -1.0317  1.0161
 8997TIP3   OH248481   6.562   1.522   0.273  0.3888 -0.8137  0.7076
 8997TIP3    H148482   6.469   1.541   0.262  0.6575  0.1831  0.0468
 8997TIP3    H248483   6.593   1.504   0.184  0.6007 -2.2549  1.0599
 8998TIP3   OH248484   3.427   6.749   3.160 -0.6539 -0.0675  0.4345
 8998TIP3    H148485   3.472   6.772   3.241 -0.2862 -0.0529  0.2309
 8998TIP3    H248486   3.334   6.747   3.183 -0.4638 -1.1811  1.1095
 8999TIP3   OH248487   1.515   2.593   3.114  0.3496  0.1345  0.4202
 8999TIP3    H148488   1.510   2.599   3.210  0.5585  1.3515  0.3624
 8999TIP3    H248489   1.425   2.604   3.085  0.0899 -1.4959  0.5177
 9000TIP3   OH248490   1.803   4.855  14.654 -0.1459 -0.3322  0.3340
 9000TIP3    H148491   1.749   4.932  14.672 -0.8307 -0.4137 -1.3262
 9000TIP3    H248492   1.893   4.887  14.661 -0.4232  0.4109  0.5491
 9001TIP3   OH248493   0.879   3.823  13.048 -0.8191 -0.2901  0.0072
 9001TIP3    H148494   0.907   3.846  12.960 -0.7220  0.0594  0.1277
 9001TIP3    H248495   0.864   3.729  13.045  2.4097 -0.8631  0.4935
 9002TIP3   OH248496   0.520   5.674  11.322 -0.4258  0.5816 -0.3073
 9002TIP3    H148497   0.486   5.764  11.326  1.8923  1.4377  1.8882
 9002TIP3    H248498   0.470   5.627  11.389 -0.7599  0.5622 -0.5713
 9003TIP3   OH248499   1.280   0.883   5.673  0.5594 -0.3449 -0.4014
 9003TIP3    H148500   1.256   0.822   5.604 -1.5541  0.7182 -0.6527
 9003TIP3    H248501   1.328   0.953   5.629  0.2728 -0.2695 -0.5888
 9004TIP3   OH248502   4.286   6.422  15.144 -0.1998  0.1324 -0.3882
 9004TIP3    H148503   4.289   6.430  15.049  0.7187  0.8986 -0.3069
 9004TIP3    H248504   4.347   6.351  15.163 -0.9833 -0.5583 -0.4192
 9005TIP3   OH248505   3.136   1.572  12.963 -0.7909 -0.4871 -0.2263
 9005TIP3    H148506   3.159   1.642  12.902 -1.1030 -0.2265 -0.0483
 9005TIP3    H248507   3.042   1.559  12.950 -0.5500 -1.5961 -1.0053
 9006TIP3   OH248508   5.712   4.185  11.638  0.5947  0.0030  0.1591
 9006TIP3    H148509   5.687   4.204  11.548  2.2166  1.0397 -0.1021
 9006TIP3    H248510   5.656   4.241  11.691  0.2834  0.0768 -0.2449
 9007TIP3   OH248511   6.532   0.109  16.904  0.3024 -0.0319 -0.1918
 9007TIP3    H148512   6.438   0.127  16.900  0.4678  0.6985 -0.9233
 9007TIP3    H248513   6.559   0.104  16.812  1.0733  0.2485  0.0167
 9008TIP3   OH248514   4.140   6.116   6.499  0.6425  0.4577  0.5205
 9008TIP3    H148515   4.232   6.090   6.489  0.3035 -0.7784  0.4758
 9008TIP3    H248516   4.102   6.047   6.554 -0.0014  1.5492  1.4691
 9009TIP3   OH248517   3.314   6.551  11.815  0.0869 -0.1584 -0.1623
 9009TIP3    H148518   3.257   6.503  11.876 -0.2807  0.0840 -0.3085
 9009TIP3    H248519   3.375   6.597  11.872  1.6335 -2.2469 -0.0784
 9010TIP3   OH248520   3.442   4.887  10.682  0.3126 -0.3499  0.4184
 9010TIP3    H148521   3.383   4.826  10.639  0.6996 -0.2181 -0.3001
 9010TIP3    H248522   3.529   4.861  10.652  0.5446  0.0635  0.7287
 9011TIP3   OH248523   2.941   5.059  15.753  0.3322  0.7093 -0.1074
 9011TIP3    H148524   2.981   5.134  15.797  0.9524  0.2662  0.0841
 9011TIP3    H248525   3.011   5.020  15.701  0.5310 -0.9091  1.3409
 9012TIP3   OH248526   5.132   3.496   5.591 -0.2974  0.1981 -0.3607
 9012TIP3    H148527   5.153   3.504   5.498  2.4980 -0.7364  0.1338
 9012TIP3    H248528   5.173   3.572   5.631 -0.9706  0.2741  0.1764
 9013TIP3   OH248529   3.588   2.678  13.688 -0.1944 -0.9323  0.6682
 9013TIP3    H148530   3.587   2.755  13.631  1.7859 -1.9746 -0.8361
 9013TIP3    H248531   3.511   2.629  13.664 -0.7831 -0.0600  0.7488
 9014TIP3   OH248532   2.643   1.946  11.043  0.6475 -0.0092 -0.2480
 9014TIP3    H148533   2.589   1.980  10.972 -0.4887  0.4097  0.7995
 9014TIP3    H248534   2.695   2.021  11.072 -2.0654  0.9916  2.2560
 9015TIP3   OH248535   6.209   2.276  14.436  0.1837 -0.1654 -0.3416
 9015TIP3    H148536   6.195   2.350  14.377 -1.4039 -0.6062 -0.5331
 9015TIP3    H248537   6.135   2.218  14.421  1.9765 -2.3717 -0.9935
 9016TIP3   OH248538   2.665   1.368  17.084 -0.6641  0.0294 -0.7871
 9016TIP3    H148539   2.746   1.417  17.072 -0.1378  0.0946  2.6474
 9016TIP3    H248540   2.692   1.278  17.099 -1.3603 -0.3148 -1.5076
 9017TIP3   OH248541   2.815   2.402   2.388  0.0176 -0.2479 -0.6589
 9017TIP3    H148542   2.804   2.327   2.447 -1.5256 -0.6555 -1.4272
 9017TIP3    H248543   2.728   2.442   2.383  0.2681  0.1592 -2.1398
 9018TIP3   OH248544   2.638   0.371   4.583 -0.2156 -0.5702  0.0112
 9018TIP3    H148545   2.658   0.464   4.596  0.4622 -0.7181  0.0024
 9018TIP3    H248546   2.722   0.330   4.565 -0.1544 -1.5763  2.3308
 9019TIP3   OH248547   0.560   1.615  12.982 -0.1325 -0.3348 -0.3128
 9019TIP3    H148548   0.561   1.570  13.066  1.8477 -2.6835 -1.4987
 9019TIP3    H248549   0.486   1.577  12.935 -0.7748  0.4189  0.0937
 9020TIP3   OH248550   2.563   1.619   3.395  0.8073 -0.0411 -0.1626
 9020TIP3    H148551   2.592   1.676   3.466  1.2494  0.1020 -0.4521
 9020TIP3    H248552   2.482   1.659   3.363  1.0769  0.3810 -0.3147
 9021TIP3   OH248553   3.696   5.783  12.444  0.1108 -0.2506 -0.4403
 9021TIP3    H148554   3.741   5.837  12.379  0.0054 -0.7942 -0.9709
 9021TIP3    H248555   3.748   5.792  12.523 -0.9900  2.2036  0.0542
 9022TIP3   OH248556   3.464   6.415  16.090 -0.0075 -0.1627  0.2299
 9022TIP3    H148557   3.485   6.365  16.169 -0.8232  0.1896  0.6771
 9022TIP3    H248558   3.373   6.391  16.070  0.5118 -1.0167 -1.1776
 9023TIP3   OH248559   0.029   3.487  14.491 -0.2019  0.0120  0.0707
 9023TIP3    H148560   0.069   3.504  14.406  0.1681  1.0145  0.4315
 9023TIP3    H248561   0.013   3.393  14.492 -0.1629 -0.0137 -1.0823
 9024TIP3   OH248562   2.327   0.064   1.161  0.2343  0.4327  0.2595
 9024TIP3    H148563   2.377   0.048   1.082 -2.3795  0.1718 -1.4087
 9024TIP3    H248564   2.339   0.157   1.179  2.4429  0.0792  0.7311
 9025TIP3   OH248565   5.015   1.400   4.513 -0.0043  0.4974 -0.3605
 9025TIP3    H148566   5.091   1.448   4.481  1.1208 -1.9850 -1.6015
 9025TIP3    H248567   5.051   1.339   4.578 -0.6570 -1.6601 -1.9619
 9026TIP3   OH248568   4.498   6.072   5.309 -0.3344 -0.7394  0.1024
 9026TIP3    H148569   4.529   6.061   5.219  1.2673 -2.4597  0.8093
 9026TIP3    H248570   4.416   6.022   5.312 -0.2548 -0.9028 -0.3427
 9027TIP3   OH248571   1.013   2.422  13.679  0.1875 -0.3042  0.2649
 9027TIP3    H148572   0.981   2.483  13.612 -1.5404 -0.0994  1.2475
 9027TIP3    H248573   1.108   2.425  13.670  0.1173  2.0571 -0.1345
 9028TIP3   OH248574   2.955   3.658   5.340 -0.5077 -0.0517 -0.4491
 9028TIP3    H148575   3.039   3.700   5.360 -0.1695 -0.3092 -1.3051
 9028TIP3    H248576   2.979   3.571   5.307 -1.1307 -0.2883 -0.2818
 9029TIP3   OH248577   5.725   6.246   1.260 -0.3630  0.0897 -1.0012
 9029TIP3    H148578   5.688   6.169   1.301  2.2995  0.6965  2.8931
 9029TIP3    H248579   5.776   6.212   1.186 -1.7878 -1.5178 -1.2684
 9030TIP3   OH248580   4.692   0.603   0.627  0.5157  0.8284  0.1933
 9030TIP3    H148581   4.601   0.598   0.656  0.0903 -1.0615 -1.3858
 9030TIP3    H248582   4.701   0.690   0.588 -0.8436  0.7203 -0.3741
 9031TIP3   OH248583   0.482   0.059  17.180 -0.0065 -0.2436  0.1262
 9031TIP3    H148584   0.571   0.025  17.172 -1.0121 -2.3204 -3.4793
 9031TIP3    H248585   0.477   0.129  17.115 -1.2107 -0.6845 -0.2779
 9032TIP3   OH248586   3.057   4.112  15.010 -0.3430  0.2107  0.9895
 9032TIP3    H148587   2.998   4.184  14.991 -1.1542 -0.9832 -1.1692
 9032TIP3    H248588   3.139   4.136  14.967 -0.8626 -0.5057 -0.4273
 9033TIP3   OH248589   3.914   5.557  15.222  0.4569  0.2866  0.5744
 9033TIP3    H148590   3.932   5.595  15.135 -1.5119 -0.5503 -0.2305
 9033TIP3    H248591   3.824   5.583  15.241  0.3353 -0.8840  1.6624
 9034TIP3   OH248592   4.862   2.540   1.705 -0.2027 -0.3436 -0.5992
 9034TIP3    H148593   4.856   2.456   1.660 -4.2584  0.2161 -1.2674
 9034TIP3    H248594   4.835   2.604   1.640 -0.0088  1.1721  0.7766
 9035TIP3   OH248595   5.047   1.663  14.067 -0.2282 -0.2376  0.0687
 9035TIP3    H148596   4.984   1.732  14.089 -1.0063 -0.7876 -0.4142
 9035TIP3    H248597   4.996   1.599  14.017  0.0115 -2.0909  2.1048
 9036TIP3   OH248598   5.998   5.572  16.983  0.0386  0.2421 -0.6235
 9036TIP3    H148599   5.915   5.525  16.979  0.4522 -0.4778 -1.1442
 9036TIP3    H248600   6.026   5.577  16.891  0.1628  1.2134 -0.5334
 9037TIP3   OH248601   2.986   6.251   4.755 -0.2655  0.1777 -0.3824
 9037TIP3    H148602   3.018   6.250   4.845  1.2128  1.2209 -0.8745
 9037TIP3    H248603   2.900   6.294   4.760 -0.7861 -0.9764  0.7043
 9038TIP3   OH248604   3.150   6.561   5.817  0.6857  0.0404  0.1190
 9038TIP3    H148605   3.225   6.546   5.875  0.8815 -0.8180 -0.3544
 9038TIP3    H248606   3.097   6.482   5.824 -0.1828  0.6467  0.4462
 9039TIP3   OH248607   2.453   5.854  13.263  0.2202 -0.8331  0.0630
 9039TIP3    H148608   2.397   5.779  13.282  0.5316 -0.6449  1.8007
 9039TIP3    H248609   2.400   5.931  13.286  0.1009 -0.5297 -1.1840
 9040TIP3   OH248610   5.853   1.607  10.958 -0.6239 -0.3990 -0.6591
 9040TIP3    H148611   5.926   1.594  10.897 -0.9074 -1.1872 -0.8312
 9040TIP3    H248612   5.869   1.544  11.028  0.4300  1.4206  0.7775
 9041TIP3   OH248613   1.721   3.668   1.681 -0.0165  0.1265  0.1989
 9041TIP3    H148614   1.816   3.660   1.692 -0.0184 -1.6921 -0.9211
 9041TIP3    H248615   1.687   3.581   1.703 -1.1002 -0.1629 -2.4020
 9042TIP3   OH248616   3.794   1.843   3.061 -0.4795 -0.6658  0.2761
 9042TIP3    H148617   3.796   1.900   2.984 -0.9655  0.0180  0.7623
 9042TIP3    H248618   3.773   1.756   3.027 -1.1051 -0.2888 -0.3149
 9043TIP3   OH248619   1.893   3.946  15.878 -0.2859  0.5340  0.3430
 9043TIP3    H148620   1.875   3.887  15.806  0.3040  0.8026 -0.0265
 9043TIP3    H248621   1.843   4.025  15.858  0.2973  0.8057 -0.0398
 9044TIP3   OH248622   2.086   4.461   1.563 -0.4981  0.1726  0.3603
 9044TIP3    H148623   2.081   4.381   1.511  3.4499  0.7792 -1.0930
 9044TIP3    H248624   2.014   4.516   1.530  0.3476 -0.4722 -2.7290
 9045TIP3   OH248625   2.679   2.890   0.151  0.1445 -0.0950 -0.1133
 9045TIP3    H148626   2.761   2.896   0.102  0.1252 -1.7733 -0.3613
 9045TIP3    H248627   2.619   2.845   0.092 -0.7222  0.3865  0.3911
 9046TIP3   OH248628   1.689   2.565  12.120 -0.4451  0.1400 -0.2655
 9046TIP3    H148629   1.680   2.600  12.209 -0.6666  0.7901 -0.5399
 9046TIP3    H248630   1.615   2.602  12.072  0.2382  0.6105 -0.9717
 9047TIP3   OH248631   0.024   0.477   0.505  0.3190  0.1789 -0.5840
 9047TIP3    H148632   0.006   0.393   0.545  0.1584  0.9315  0.9554
 9047TIP3    H248633   0.102   0.462   0.451  0.1829 -0.9839 -0.4648
 9048TIP3   OH248634   6.509   4.636   5.820  0.2608 -0.3988 -0.3595
 9048TIP3    H148635   6.480   4.569   5.881 -2.2788 -0.9391 -2.1054
 9048TIP3    H248636   6.586   4.597   5.777  0.9223 -0.7528  1.1016
 9049TIP3   OH248637   4.785   2.272  12.587 -0.6445  0.2737 -0.3471
 9049TIP3    H148638   4.697   2.266  12.623  0.1137 -2.9027  1.1495
 9049TIP3    H248639   4.773   2.279  12.493 -2.5107  0.7845 -0.0775
 9050TIP3   OH248640   5.940   1.567  12.627  0.5786 -0.2821 -0.1771
 9050TIP3    H148641   6.024   1.564  12.673  1.2928  0.5040 -1.4100
 9050TIP3    H248642   5.878   1.527  12.688  1.5049  0.7168  1.4718
 9051TIP3   OH248643   5.720   5.462  16.375  0.0908  0.0870  0.1520
 9051TIP3    H148644   5.702   5.469  16.281  0.8224 -0.3338 -0.0269
 9051TIP3    H248645   5.643   5.418  16.411  0.4254 -1.0035 -0.4683
 9052TIP3   OH248646   1.952   2.303   1.307  0.0464 -0.7380 -0.2942
 9052TIP3    H148647   1.944   2.307   1.212 -1.0637 -1.4327 -0.2484
 9052TIP3    H248648   1.975   2.212   1.326  1.5244 -0.2970  0.0257
 9053TIP3   OH248649   1.759   4.837  16.813  0.1143 -0.0890 -0.2100
 9053TIP3    H148650   1.785   4.918  16.856  2.8230 -0.9719 -0.0459
 9053TIP3    H248651   1.712   4.865  16.734 -2.3063  1.5482  1.7388
 9054TIP3   OH248652   3.752   3.628   2.471  0.4126  0.8781  0.6471
 9054TIP3    H148653   3.785   3.566   2.537  0.5100 -1.1312 -1.2363
 9054TIP3    H248654   3.663   3.648   2.499 -0.0995 -1.1854  0.5576
 9055TIP3   OH248655   0.099   0.342  12.463 -0.2540  0.2110  0.0562
 9055TIP3    H148656   0.174   0.379  12.508 -0.7121  0.3816  0.6867
 9055TIP3    H248657   0.134   0.311  12.379  0.3786  0.8932  0.0645
 9056TIP3   OH248658   2.590   1.631  14.941 -0.6574  0.5197  0.1303
 9056TIP3    H148659   2.685   1.624  14.932 -0.6767 -0.2513  0.4653
 9056TIP3    H248660   2.561   1.541  14.958 -1.5793  0.5550 -1.1875
 9057TIP3   OH248661   5.896   2.787  11.399 -0.2063  0.1717  0.5153
 9057TIP3    H148662   5.850   2.793  11.483 -0.2336 -1.5885  0.6368
 9057TIP3    H248663   5.857   2.857  11.346 -1.6413 -0.0184  1.2719
 9058TIP3   OH248664   3.106   4.251   5.282  0.4527  0.0986  0.0632
 9058TIP3    H148665   3.134   4.255   5.374 -1.3538 -0.7245  0.6607
 9058TIP3    H248666   3.188   4.248   5.233  1.4419  0.1229  1.6698
 9059TIP3   OH248667   2.418   5.809  16.741 -0.0959 -0.4945  0.0139
 9059TIP3    H148668   2.430   5.720  16.774  1.3171 -0.2766  0.1270
 9059TIP3    H248669   2.486   5.820  16.675  1.3058  1.3201  1.7056
 9060TIP3   OH248670   6.515   3.286  16.767  0.8429  0.1548 -0.2540
 9060TIP3    H148671   6.452   3.215  16.759  0.4554  0.3659  0.8757
 9060TIP3    H248672   6.553   3.294  16.679 -1.3769  0.6711 -1.1851
 9061TIP3   OH248673   5.736   2.516   5.540 -0.1400 -0.3321  0.1046
 9061TIP3    H148674   5.769   2.435   5.579  1.2430  0.2315  0.1231
 9061TIP3    H248675   5.808   2.547   5.485 -1.6711 -0.5962 -2.1389
 9062TIP3   OH248676   4.429   1.958   4.797  0.0048 -0.2696  0.4387
 9062TIP3    H148677   4.455   1.958   4.705 -0.9651 -1.2423  0.1604
 9062TIP3    H248678   4.512   1.965   4.845  0.4617  1.1807 -0.5099
 9063TIP3   OH248679   2.141   1.249   0.313 -0.0024  0.2139  0.3616
 9063TIP3    H148680   2.079   1.282   0.247  0.7039  0.1222 -0.3627
 9063TIP3    H248681   2.192   1.183   0.266  1.4252  1.1167  0.6050
 9064TIP3   OH248682   5.677   2.303   3.103 -0.0246  0.5794  0.1420
 9064TIP3    H148683   5.753   2.271   3.055 -0.9265  0.6208 -1.3906
 9064TIP3    H248684   5.629   2.356   3.038 -3.6775 -3.0419 -0.3342
 9065TIP3   OH248685   1.303   1.337  11.280  0.2745 -0.6254  0.0733
 9065TIP3    H148686   1.238   1.386  11.330 -0.2750 -1.4871  0.2066
 9065TIP3    H248687   1.266   1.330  11.192  0.8520  0.1435 -0.2391
 9066TIP3   OH248688   4.246   1.486   3.404  0.4753  0.1568  0.0143
 9066TIP3    H148689   4.329   1.442   3.384  0.1422 -0.8712  0.8425
 9066TIP3    H248690   4.246   1.563   3.348  1.5428 -0.3569 -0.7180
 9067TIP3   OH248691   2.482   2.995  16.616  0.0423 -0.1817 -0.0356
 9067TIP3    H148692   2.404   2.988  16.671  0.9082 -0.4321  1.1680
 9067TIP3    H248693   2.509   2.904  16.601  0.2119 -0.0864 -0.3132
 9068TIP3   OH248694   0.285   6.647   2.309 -0.1877 -0.1557 -0.5289
 9068TIP3    H148695   0.331   6.613   2.386 -0.9673  0.9244  0.4377
 9068TIP3    H248696   0.329   6.731   2.291 -0.3114 -0.1872 -0.9838
 9069TIP3   OH248697   1.114   2.086  13.052 -0.1983 -0.0803 -0.3188
 9069TIP3    H148698   1.117   2.077  12.957 -0.0586 -0.9425 -0.2422
 9069TIP3    H248699   1.024   2.061  13.075 -0.2671  0.2464 -0.2400
 9070TIP3   OH248700   5.985   3.868   3.563 -0.5457  0.1641  0.6150
 9070TIP3    H148701   5.943   3.933   3.506 -0.6138  0.3307  0.8531
 9070TIP3    H248702   6.071   3.854   3.524  0.1632  1.7496  1.5901
 9071TIP3   OH248703   0.395   5.720   5.408 -0.2282 -0.0770  0.6257
 9071TIP3    H148704   0.329   5.659   5.376 -0.0069  0.5693 -1.1024
 9071TIP3    H248705   0.477   5.690   5.369  0.3527 -0.2558  1.9246
 9072TIP3   OH248706   2.304   3.777  14.309 -0.3103  0.2228 -0.2371
 9072TIP3    H148707   2.261   3.841  14.252  1.2341  1.8880  0.4304
 9072TIP3    H248708   2.242   3.765  14.381 -1.4701 -0.5386 -1.3356
 9073TIP3   OH248709   4.656   1.137  15.833 -0.3823 -0.0973 -0.0288
 9073TIP3    H148710   4.562   1.147  15.819 -0.0891  0.6934 -1.4737
 9073TIP3    H248711   4.690   1.112  15.747  0.5819 -1.4434  0.7347
 9074TIP3   OH248712   1.441   5.249  15.674 -0.3154  0.0579 -0.0863
 9074TIP3    H148713   1.425   5.322  15.734  0.3133  0.2261 -0.1231
 9074TIP3    H248714   1.520   5.274  15.626 -0.8685 -0.0294 -1.0634
 9075TIP3   OH248715   1.293   3.868  15.861  0.2626 -0.1037 -0.2665
 9075TIP3    H148716   1.228   3.813  15.904  0.2367  0.1997  0.0827
 9075TIP3    H248717   1.263   3.957  15.876  0.9015  0.0458  0.1279
 9076TIP3   OH248718   4.123   1.677  10.308  0.4976 -0.1206  0.0239
 9076TIP3    H148719   4.140   1.704  10.218 -0.2444 -1.0053 -0.3914
 9076TIP3    H248720   4.028   1.682  10.316  0.6301  0.9433  1.0826
 9077TIP3   OH248721   4.263   3.267   3.184 -0.0612 -0.1229  0.5801
 9077TIP3    H148722   4.331   3.334   3.185 -0.1742  0.0573 -1.6871
 9077TIP3    H248723   4.293   3.202   3.248  1.1740  0.9842  1.1453
 9078TIP3   OH248724   5.629   4.174  14.096 -0.0813 -0.1242  0.4583
 9078TIP3    H148725   5.654   4.220  14.176 -0.4316  0.0890  0.4463
 9078TIP3    H248726   5.686   4.097  14.094  1.5510  1.0686 -0.2881
 9079TIP3   OH248727   0.073   6.020  12.352 -0.3925 -0.4378 -1.0257
 9079TIP3    H148728   0.142   5.968  12.310 -0.0009 -0.2764 -0.5834
 9079TIP3    H248729   0.014   5.954  12.390 -1.3670 -0.6142 -2.7830
 9080TIP3   OH248730   1.294   5.676  12.375  0.5558 -0.1932  0.2356
 9080TIP3    H148731   1.257   5.666  12.463  1.2236 -1.0686  0.4258
 9080TIP3    H248732   1.372   5.620  12.375  0.1626 -0.7673 -1.1389
 9081TIP3   OH248733   0.726   0.762  11.897  0.3597  0.2932  0.3255
 9081TIP3    H148734   0.692   0.839  11.943 -1.1161 -0.4543  0.5182
 9081TIP3    H248735   0.821   0.771  11.902  0.2047  1.2422  1.8047
 9082TIP3   OH248736   1.309   5.147  12.264 -0.4334  0.4684  0.2176
 9082TIP3    H148737   1.257   5.224  12.288  0.6123  2.0114 -2.2769
 9082TIP3    H248738   1.338   5.164  12.175  1.1945 -2.1036  0.1898
 9083TIP3   OH248739   5.838   5.172   6.124  0.2796  0.1050  0.3185
 9083TIP3    H148740   5.748   5.152   6.148  0.1943 -0.6961 -0.6937
 9083TIP3    H248741   5.890   5.140   6.198 -0.1559 -0.6239  0.3120
 9084TIP3   OH248742   1.111   6.287   0.506 -0.6719  0.2858  0.0519
 9084TIP3    H148743   1.131   6.378   0.530 -0.5766 -0.4273  2.8280
 9084TIP3    H248744   1.188   6.237   0.532 -1.4922 -0.8767  0.3040
 9085TIP3   OH248745   3.044   5.765  12.492  0.2319 -0.5550 -0.2497
 9085TIP3    H148746   3.051   5.678  12.531  0.5144 -0.8639 -0.9921
 9085TIP3    H248747   3.071   5.825  12.562 -0.5702 -1.0182  0.4625
 9086TIP3   OH248748   2.472   6.440   2.115 -0.2669  0.2444 -0.1736
 9086TIP3    H148749   2.505   6.449   2.026 -0.4605 -2.0164 -0.5056
 9086TIP3    H248750   2.382   6.410   2.105 -0.2355 -0.1875  0.7900
 9087TIP3   OH248751   1.027   2.125   5.326  0.3438 -0.2852 -0.1099
 9087TIP3    H148752   0.959   2.119   5.393 -0.4320 -1.1642 -0.9796
 9087TIP3    H248753   0.989   2.084   5.249  0.6144  2.2061 -1.6151
 9088TIP3   OH248754   1.555   4.316  15.628 -0.3314  0.0466 -0.2575
 9088TIP3    H148755   1.534   4.232  15.669  2.7425 -1.1415 -0.9164
 9088TIP3    H248756   1.529   4.305  15.536  0.3106 -0.3248 -0.4040
 9089TIP3   OH248757   0.161   4.127  14.246 -0.3356  0.0010  0.1012
 9089TIP3    H148758   0.089   4.153  14.188 -0.6189  0.3616  0.6082
 9089TIP3    H248759   0.194   4.046  14.208 -0.1077  0.5677 -0.9282
 9090TIP3   OH248760   6.481   2.088   3.689 -0.1188  0.0550 -0.0554
 9090TIP3    H148761   6.485   2.120   3.599 -1.5537  0.0358 -0.1428
 9090TIP3    H248762   6.394   2.049   3.696  0.7504 -1.7640  0.7386
 9091TIP3   OH248763   3.355   2.494  12.125 -0.5662 -0.6527  0.0182
 9091TIP3    H148764   3.330   2.461  12.039  0.2118 -1.5903  0.1355
 9091TIP3    H248765   3.418   2.564  12.107 -1.5513  0.1685 -0.2100
 9092TIP3   OH248766   5.991   5.977  13.910  0.4451  0.1902 -0.1065
 9092TIP3    H148767   6.077   6.016  13.901  0.8703 -1.0785 -1.7110
 9092TIP3    H248768   5.930   6.050  13.896  1.2395  1.1157  1.1872
 9093TIP3   OH248769   0.590   0.654  16.478 -0.3429  0.0364  0.3791
 9093TIP3    H148770   0.637   0.718  16.531 -1.0183 -0.6402  1.8385
 9093TIP3    H248771   0.659   0.596  16.445  0.1030  0.5064  0.4779
 9094TIP3   OH248772   1.731   5.027   1.389  0.2634  0.4586  0.1025
 9094TIP3    H148773   1.660   5.038   1.326 -0.9843 -0.8910  1.2393
 9094TIP3    H248774   1.807   5.068   1.347 -0.0806 -1.9206 -3.0014
 9095TIP3   OH248775   6.216   2.318   0.553 -0.0220  0.4895  0.1378
 9095TIP3    H148776   6.229   2.236   0.600 -1.7251  0.4925  0.6437
 9095TIP3    H248777   6.239   2.298   0.462 -0.0550 -0.4451  0.3354
 9096TIP3   OH248778   0.837   6.375   5.040  0.0627  0.0855 -0.2131
 9096TIP3    H148779   0.780   6.415   4.974 -0.1321  0.2286  0.0416
 9096TIP3    H248780   0.862   6.447   5.098 -0.3640 -0.1738  0.3022
 9097TIP3   OH248781   5.188   4.399  17.187  0.1904 -0.2826  0.3800
 9097TIP3    H148782   5.134   4.328  17.152  0.2919 -0.6684  1.0078
 9097TIP3    H248783   5.228   4.438  17.109 -0.3856 -0.4826 -0.0236
 9098TIP3   OH248784   0.453   2.997   1.238  0.0113  0.4783 -0.0178
 9098TIP3    H148785   0.505   3.037   1.308  0.9718 -0.6166 -0.0854
 9098TIP3    H248786   0.453   2.904   1.259  0.9132  0.0431 -1.8669
 9099TIP3   OH248787   0.274   2.339  12.999 -0.5531 -0.0468  0.1714
 9099TIP3    H148788   0.188   2.324  13.038  0.0582 -1.5756  0.9481
 9099TIP3    H248789   0.323   2.259  13.016  0.8897  0.6340 -0.6637
 9100TIP3   OH248790   3.958   6.532   0.440 -0.2526 -0.1238  0.2878
 9100TIP3    H148791   3.952   6.438   0.420  0.5736  0.3691 -2.5442
 9100TIP3    H248792   3.868   6.559   0.455 -0.5721 -1.2398  0.4091
 9101TIP3   OH248793   3.287   0.514  10.892 -0.2697  0.2052 -0.0708
 9101TIP3    H148794   3.257   0.603  10.870 -0.9420 -0.0845 -0.3520
 9101TIP3    H248795   3.220   0.481  10.952  0.9271  0.5448  1.4828
 9102TIP3   OH248796   1.436   3.972  15.542  0.5619 -0.1573  0.4902
 9102TIP3    H148797   1.342   3.971  15.561  0.6880 -0.1477  1.1160
 9102TIP3    H248798   1.441   4.000  15.450 -0.0523 -0.3364  0.3971
 9103TIP3   OH248799   0.876   6.343  15.421  0.0158 -0.1670 -0.1948
 9103TIP3    H148800   0.924   6.404  15.477  1.8070 -0.5156 -1.2924
 9103TIP3    H248801   0.811   6.302  15.479 -0.3227  1.8125  0.8411
 9104TIP3   OH248802   1.635   3.908  14.464 -0.5398 -0.7693 -0.0524
 9104TIP3    H148803   1.677   3.887  14.381  1.0979 -2.5455  1.1524
 9104TIP3    H248804   1.699   3.960  14.511 -1.0400 -0.6270  0.4822
 9105TIP3   OH248805   2.451   2.515   1.785  1.2590  0.1597 -0.3605
 9105TIP3    H148806   2.481   2.605   1.775  1.6161 -0.0569 -1.2726
 9105TIP3    H248807   2.389   2.501   1.714 -0.2693  0.2762  0.9064
 9106TIP3   OH248808   1.071   6.412   2.608 -0.3035  0.4616  0.3743
 9106TIP3    H148809   1.123   6.489   2.632  0.2170  1.0918 -2.5452
 9106TIP3    H248810   0.989   6.447   2.573 -0.0021 -0.2748 -1.1268
 9107TIP3   OH248811   0.190   1.688   4.525 -0.3937  0.2281  0.3985
 9107TIP3    H148812   0.155   1.630   4.458 -0.6220 -0.0098  0.7226
 9107TIP3    H248813   0.249   1.633   4.577  2.1543  1.1343 -1.4537
 9108TIP3   OH248814   4.909   5.291  14.197 -0.3290 -0.2233 -0.2867
 9108TIP3    H148815   4.857   5.214  14.222 -1.1627  0.9015  1.4761
 9108TIP3    H248816   4.944   5.324  14.279  0.0126  1.3067 -1.0331
 9109TIP3   OH248817   0.408   0.095   3.188  0.0626 -0.2006 -0.3057
 9109TIP3    H148818   0.380   0.084   3.279 -0.6987  0.3143 -0.4734
 9109TIP3    H248819   0.464   0.173   3.189 -0.4831  0.1888 -0.3982
 9110TIP3   OH248820   6.489   6.420  12.743  0.4255  0.3289 -0.0171
 9110TIP3    H148821   6.572   6.448  12.781  2.0189 -2.9074 -0.9521
 9110TIP3    H248822   6.430   6.409  12.818  0.7722  2.7284  0.6354
 9111TIP3   OH248823   3.423   2.740   2.547  0.8161  0.2742 -0.6180
 9111TIP3    H148824   3.369   2.768   2.621  0.1874  0.1417 -1.0154
 9111TIP3    H248825   3.374   2.769   2.470  1.2706  0.0693 -0.9883
 9112TIP3   OH248826   4.505   4.800   1.099  0.8049 -0.8417  0.3539
 9112TIP3    H148827   4.565   4.725   1.100 -0.1441 -1.6156 -0.3368
 9112TIP3    H248828   4.456   4.790   1.017 -0.6522 -0.5208  1.1794
 9113TIP3   OH248829   0.851   6.676   5.524  0.6535  0.1345  0.0490
 9113TIP3    H148830   0.898   6.626   5.591  0.2080 -1.5803 -0.8912
 9113TIP3    H248831   0.759   6.651   5.535  0.4711  0.4464 -0.6989
 9114TIP3   OH248832   1.070   5.086  17.013 -0.4282 -0.7604 -0.3133
 9114TIP3    H148833   0.975   5.076  17.007 -0.6408  1.2724 -0.6498
 9114TIP3    H248834   1.097   5.018  17.075 -1.9631 -1.9967 -0.9511
 9115TIP3   OH248835   4.867   3.084  16.408  0.6370 -0.3734  0.5850
 9115TIP3    H148836   4.854   3.161  16.353  1.2638 -1.1971 -0.7397
 9115TIP3    H248837   4.805   3.094  16.480  0.7100  1.3579  0.4127
 9116TIP3   OH248838   3.338   1.940  10.796 -0.2084  0.4696 -0.5068
 9116TIP3    H148839   3.361   1.966  10.707 -0.3750  0.5618 -0.5235
 9116TIP3    H248840   3.324   1.846  10.791  0.5450  0.3508 -0.4192
 9117TIP3   OH248841   1.496   5.261  13.649 -0.2362 -0.1175 -0.0583
 9117TIP3    H148842   1.463   5.346  13.621 -1.2673 -0.5043 -0.0367
 9117TIP3    H248843   1.547   5.228  13.575  1.1002  1.0076  0.3495
 9118TIP3   OH248844   2.460   3.008   5.009  0.2158 -0.3068 -1.2172
 9118TIP3    H148845   2.368   2.993   4.986 -0.5375  0.3800  1.2402
 9118TIP3    H248846   2.493   2.922   5.034  0.2320 -0.5392 -2.0225
 9119TIP3   OH248847   6.276   5.198  15.318 -0.1182  0.3423 -0.7619
 9119TIP3    H148848   6.303   5.248  15.395  1.5860 -0.5862 -0.7356
 9119TIP3    H248849   6.189   5.165  15.340 -0.0783  0.9685  0.3493
 9120TIP3   OH248850   0.511   0.841   5.400 -0.6642 -0.3520 -0.0167
 9120TIP3    H148851   0.591   0.787   5.400 -1.6050 -1.7733  0.2845
 9120TIP3    H248852   0.468   0.818   5.317  0.1146  1.7614 -1.0378
 9121TIP3   OH248853   2.908   2.327   5.474 -0.8103 -0.1195  0.2281
 9121TIP3    H148854   2.877   2.237   5.472 -1.6730  0.2134 -1.6218
 9121TIP3    H248855   2.937   2.340   5.565 -0.4976 -2.2969  0.4701
 9122TIP3   OH248856   0.568   5.137  13.553  0.5333 -0.5883  0.6887
 9122TIP3    H148857   0.580   5.200  13.624  1.8085 -1.2672  1.0853
 9122TIP3    H248858   0.509   5.071  13.590 -0.4313  0.1033  0.4262
 9123TIP3   OH248859   2.816   6.331   5.291  0.6253  0.1302  0.0800
 9123TIP3    H148860   2.724   6.354   5.306  0.2377 -1.8111  0.8010
 9123TIP3    H248861   2.816   6.285   5.207  0.8527 -0.3552  0.3453
 9124TIP3   OH248862   5.430   1.941  15.046  0.0566 -0.0287 -0.0558
 9124TIP3    H148863   5.355   1.930  14.988 -0.4843  2.2559  0.1848
 9124TIP3    H248864   5.397   1.918  15.133  0.5463 -2.2626 -0.4337
 9125TIP3   OH248865   0.628   2.317  16.529  0.4468  0.5299  0.2943
 9125TIP3    H148866   0.606   2.231  16.492 -0.9684 -0.5668  3.4978
 9125TIP3    H248867   0.704   2.300  16.585  0.0628  1.3055  1.0726
 9126TIP3   OH248868   0.123   1.381   3.924 -0.4188 -0.8628 -0.3958
 9126TIP3    H148869   0.215   1.408   3.924 -1.0560  1.3662  0.2143
 9126TIP3    H248870   0.097   1.382   4.016 -0.9493 -1.9475 -0.5188
 9127TIP3   OH248871   2.073   4.423  12.609  0.4697  0.1829  0.0535
 9127TIP3    H148872   2.051   4.436  12.702  1.8441  0.1412  0.3892
 9127TIP3    H248873   2.058   4.509  12.569 -0.3157  0.1533  0.2600
 9128TIP3   OH248874   3.705   4.804   2.270 -0.2165  0.3458  0.4040
 9128TIP3    H148875   3.699   4.758   2.354  2.0298 -3.1132 -1.2209
 9128TIP3    H248876   3.615   4.809   2.239 -0.7347 -1.0375  1.6258
 9129TIP3   OH248877   1.723   5.393   6.123  0.1810  0.0769 -0.1109
 9129TIP3    H148878   1.779   5.345   6.185 -0.3735  0.3424  0.6076
 9129TIP3    H248879   1.705   5.476   6.168 -0.8175 -0.0208 -0.3343
 9130TIP3   OH248880   5.196   4.871   5.374  0.4579  0.1513 -0.6136
 9130TIP3    H148881   5.114   4.847   5.331  2.3454 -3.3612 -2.5034
 9130TIP3    H248882   5.190   4.831   5.461  1.0184 -2.0360 -1.5425
 9131TIP3   OH248883   3.762   4.517   4.205  0.0070 -0.6453 -0.5284
 9131TIP3    H148884   3.750   4.448   4.141 -0.2219 -1.5022  0.4161
 9131TIP3    H248885   3.785   4.594   4.154 -0.9279 -1.1227 -1.6867
 9132TIP3   OH248886   0.350   0.952   4.908  0.2799 -0.0849  0.2173
 9132TIP3    H148887   0.443   0.958   4.931 -0.2962  0.8795  2.4839
 9132TIP3    H248888   0.331   0.858   4.911  0.8790 -0.1912  1.1733
 9133TIP3   OH248889   2.189   6.685   0.679 -0.2155 -0.1755 -0.5228
 9133TIP3    H148890   2.268   6.654   0.635  1.4580 -0.0997  2.2966
 9133TIP3    H248891   2.216   6.764   0.724 -1.8465 -0.2883  0.7164
 9134TIP3   OH248892   1.857   0.031  11.792  0.5263  0.1886 -0.1756
 9134TIP3    H148893   1.803   0.110  11.798  0.3454  0.0582 -0.0665
 9134TIP3    H248894   1.921   0.040  11.863  0.5279  0.2546 -0.1846
 9135TIP3   OH248895   6.724   0.882  10.999  0.4361 -0.6590 -0.2844
 9135TIP3    H148896   6.723   0.948  10.931  0.7367  0.7653  1.0562
 9135TIP3    H248897   6.632   0.870  11.023  0.4455 -0.1151  0.0364
 9136TIP3   OH248898   6.255   1.635   4.244  0.0963  0.0203  0.4682
 9136TIP3    H148899   6.161   1.638   4.223  0.6605  0.0103 -2.2510
 9136TIP3    H248900   6.258   1.601   4.334 -2.3988 -2.6469 -0.3768
 9137TIP3   OH248901   2.835   6.025  14.730  0.6026 -0.2968  0.5696
 9137TIP3    H148902   2.819   6.097  14.792  1.3900  0.8292 -0.5155
 9137TIP3    H248903   2.747   5.994  14.707  0.3108 -1.6909  3.3042
 9138TIP3   OH248904   0.572   4.041   5.945 -0.1441  0.5472  0.2267
 9138TIP3    H148905   0.553   4.053   5.852 -1.3765  0.1107  0.4019
 9138TIP3    H248906   0.615   3.956   5.950 -0.0456  0.5869  0.0481
 9139TIP3   OH248907   0.432   1.208  13.988  0.0792  0.0833  0.1275
 9139TIP3    H148908   0.415   1.247  13.902  0.2772 -0.8815 -0.3620
 9139TIP3    H248909   0.359   1.238  14.042  0.0932  0.9151 -0.3069
 9140TIP3   OH248910   3.174   4.943  10.375  0.1892 -0.2166 -0.4877
 9140TIP3    H148911   3.124   4.917  10.452 -1.8156 -1.1271 -2.0404
 9140TIP3    H248912   3.184   4.862  10.325  2.5678  0.1111 -0.6043
 9141TIP3   OH248913   6.224   2.407  16.308 -0.1685  0.1839 -0.4163
 9141TIP3    H148914   6.315   2.431  16.291 -0.7820  2.9671  0.0031
 9141TIP3    H248915   6.218   2.403  16.404 -0.7532  1.1212 -0.4109
 9142TIP3   OH248916   3.880   5.630   1.222  0.3275  0.5221 -0.1113
 9142TIP3    H148917   3.897   5.538   1.244  1.1246  0.2165 -1.9436
 9142TIP3    H248918   3.958   5.676   1.253 -0.3412  0.6812  1.3657
 9143TIP3   OH248919   6.663   0.503   6.403 -0.7006 -0.0982  0.0985
 9143TIP3    H148920   6.584   0.534   6.360 -0.9665  0.3927  0.9426
 9143TIP3    H248921   6.650   0.522   6.496  0.2161 -0.4192  0.3020
 9144TIP3   OH248922   5.566   6.399  12.092 -0.6792 -0.0920 -0.4972
 9144TIP3    H148923   5.555   6.485  12.133  0.6713  0.0679 -0.4399
 9144TIP3    H248924   5.551   6.414  11.999  0.1181  0.3242 -0.5603
 9145TIP3   OH248925   4.028   5.759  16.911 -0.2507 -0.1343  0.2911
 9145TIP3    H148926   4.000   5.686  16.856  0.9957 -0.7705  0.4968
 9145TIP3    H248927   3.986   5.742  16.996 -1.1333  0.1680 -0.0779
 9146TIP3   OH248928   1.836   1.973   4.579 -0.2550  0.2207 -0.7908
 9146TIP3    H148929   1.885   1.905   4.533 -0.5897 -0.8924  0.4946
 9146TIP3    H248930   1.782   1.926   4.642  0.3265  1.7283  0.8665
 9147TIP3   OH248931   5.282   1.745  16.122  0.3800 -0.1265  0.2340
 9147TIP3    H148932   5.231   1.723  16.044 -0.1818  0.1264  0.5264
 9147TIP3    H248933   5.325   1.663  16.147  2.9640  0.4455 -2.0871
 9148TIP3   OH248934   0.208   2.985  12.407 -0.1338  0.2943 -0.2850
 9148TIP3    H148935   0.247   2.952  12.327  1.6248  2.0319 -0.1989
 9148TIP3    H248936   0.262   2.949  12.478 -0.7877 -0.0606  0.0393
 9149TIP3   OH248937   1.609   3.598   2.897  0.0660  0.1095  0.1657
 9149TIP3    H148938   1.635   3.660   2.828  0.6810 -0.6079 -0.2580
 9149TIP3    H248939   1.533   3.639   2.938  0.2278  0.9650 -0.3635
 9150TIP3   OH248940   1.581   4.852  14.971 -0.5616  0.2949  0.1719
 9150TIP3    H148941   1.596   4.912  15.043  1.3395  3.1700 -2.4786
 9150TIP3    H248942   1.495   4.876  14.936 -0.7951 -0.0414  0.5191
 9151TIP3   OH248943   4.020   5.545  16.756 -0.0304  0.5198 -0.1840
 9151TIP3    H148944   3.967   5.551  16.677 -0.1394  1.6105 -0.0391
 9151TIP3    H248945   4.107   5.521  16.725 -0.3238 -0.0852 -0.5383
 9152TIP3   OH248946   6.091   5.163   0.099 -0.1081 -0.3523  0.0508
 9152TIP3    H148947   6.128   5.163   0.187  0.4486 -0.6624 -0.1855
 9152TIP3    H248948   6.159   5.125   0.044  0.4233  1.8502 -0.8808
 9153TIP3   OH248949   3.583   3.491  13.837 -0.0969  0.1625 -0.0583
 9153TIP3    H148950   3.526   3.503  13.761 -0.9714 -0.0609  0.5647
 9153TIP3    H248951   3.550   3.413  13.881  1.0120 -0.2796  0.0237
 9154TIP3   OH248952   6.143   5.587   3.046 -0.4065 -0.5768 -0.0370
 9154TIP3    H148953   6.229   5.629   3.041 -0.6902 -0.2360 -2.6352
 9154TIP3    H248954   6.123   5.585   3.140  1.6208  0.9984  0.4663
 9155TIP3   OH248955   2.152   6.097   4.545 -0.5295  0.4097 -0.2882
 9155TIP3    H148956   2.140   6.073   4.637 -0.7790 -0.7071 -0.5964
 9155TIP3    H248957   2.127   6.189   4.541 -1.2650  0.2643  0.6237
 9156TIP3   OH248958   5.796   0.864   3.519  0.0235  0.1241 -0.1823
 9156TIP3    H148959   5.846   0.830   3.445  1.1173  1.4864 -0.0847
 9156TIP3    H248960   5.786   0.790   3.578  0.2151 -0.6558 -1.1197
 9157TIP3   OH248961   0.808   5.761   4.807  0.1056  0.0812 -0.5828
 9157TIP3    H148962   0.809   5.813   4.887 -0.1981  0.8682 -1.0910
 9157TIP3    H248963   0.724   5.715   4.809  0.4482 -0.5238 -0.0507
 9158TIP3   OH248964   2.123   4.649  12.202 -0.5151  0.6262  0.0955
 9158TIP3    H148965   2.183   4.643  12.277 -0.2101  1.9555 -0.0311
 9158TIP3    H248966   2.061   4.578  12.215  1.2070 -0.9070  0.1316
 9159TIP3   OH248967   3.187   6.346   1.028 -0.0220 -0.2984  0.1172
 9159TIP3    H148968   3.264   6.290   1.022 -0.9618 -1.6557  0.4650
 9159TIP3    H248969   3.136   6.309   1.100 -1.5909 -0.1553 -0.8897
 9160TIP3   OH248970   2.559   0.481   3.968  0.1247 -0.2247  0.0752
 9160TIP3    H148971   2.574   0.393   3.934 -1.4364 -0.3876 -0.2198
 9160TIP3    H248972   2.643   0.526   3.958  0.7020 -1.4286 -0.5061
 9161TIP3   OH248973   6.442   0.645  12.784 -0.5416  0.7648  0.0746
 9161TIP3    H148974   6.349   0.665  12.794 -0.9385 -0.1524 -1.6525
 9161TIP3    H248975   6.451   0.557  12.821 -0.3687  0.8011  0.1200
 9162TIP3   OH248976   4.548   1.388  15.652 -0.3694 -0.0909 -0.2034
 9162TIP3    H148977   4.624   1.444  15.671 -0.4063 -0.1565  0.1395
 9162TIP3    H248978   4.513   1.423  15.570 -0.6363  0.6593  0.2151
 9163TIP3   OH248979   1.627   4.166   5.789 -0.5996 -0.8733  0.1896
 9163TIP3    H148980   1.552   4.191   5.843  0.0651 -0.6732  1.0268
 9163TIP3    H248981   1.701   4.169   5.849 -0.2182 -3.0422 -0.1261
 9164TIP3   OH248982   2.704   0.370   6.551  0.3777  0.4291  0.7164
 9164TIP3    H148983   2.647   0.405   6.482 -0.0869 -0.2930  0.7185
 9164TIP3    H248984   2.789   0.411   6.536  0.1086  0.7625  0.1001
 9165TIP3   OH248985   2.432   2.235  15.614  0.6972 -0.3009 -0.3326
 9165TIP3    H148986   2.341   2.260  15.599  0.3055 -0.0023  2.3605
 9165TIP3    H248987   2.428   2.170  15.685  2.7676  1.7774  1.7824
 9166TIP3   OH248988   4.086   3.479  13.680  0.4897 -0.0162 -0.4504
 9166TIP3    H148989   4.069   3.469  13.773 -1.8187  0.9239 -0.7359
 9166TIP3    H248990   4.079   3.390  13.644  0.9876 -0.3221  0.2177
 9167TIP3   OH248991   1.410   3.244   1.542 -0.3732 -0.5815 -0.0315
 9167TIP3    H148992   1.498   3.274   1.523 -0.6580 -0.6252 -1.4167
 9167TIP3    H248993   1.355   3.284   1.475 -1.4058 -0.5897  0.7955
 9168TIP3   OH248994   6.143   4.073   6.079 -0.2974 -0.5178  0.0333
 9168TIP3    H148995   6.155   4.018   6.157 -1.3979  0.0350  0.6116
 9168TIP3    H248996   6.057   4.114   6.092 -0.1911  0.0999 -1.1553
 9169TIP3   OH248997   6.164   1.107  11.610 -0.5652  0.1672  0.1151
 9169TIP3    H148998   6.085   1.133  11.657  0.4891  1.6746  1.0913
 9169TIP3    H248999   6.231   1.101  11.678  0.1179 -1.2860 -0.6790
 9170TIP3   OH249000   6.626   0.210   3.458 -0.0032 -0.2260  0.2255
 9170TIP3    H149001   6.649   0.137   3.401 -0.2580 -0.9193  1.0011
 9170TIP3    H249002   6.667   0.189   3.542 -0.7475  0.1199  0.6868
 9171TIP3   OH249003   2.753   3.914  12.782 -0.2281  0.1371 -0.0295
 9171TIP3    H149004   2.786   3.983  12.725 -1.8467  1.8211  0.9876
 9171TIP3    H249005   2.674   3.952  12.821 -0.4564 -1.8459  1.5035
 9172TIP3   OH249006   6.815   1.903   3.110  0.4756  0.4633 -0.1810
 9172TIP3    H149007   6.759   1.828   3.091  0.5646  0.8846 -2.2123
 9172TIP3    H249008   6.754   1.971   3.140  0.0807  0.4072 -0.8478
 9173TIP3   OH249009   6.790   0.476   5.135 -0.3095  0.0934 -0.0139
 9173TIP3    H149010   6.824   0.562   5.111 -0.4331  0.0848 -0.2239
 9173TIP3    H249011   6.698   0.479   5.110 -0.8172  0.6129  1.8516
 9174TIP3   OH249012   3.125   2.985  11.865 -0.1092 -0.0022  0.0777
 9174TIP3    H149013   3.054   3.043  11.892 -0.1400  0.8652 -1.7954
 9174TIP3    H249014   3.125   2.990  11.769  1.8554 -0.7517  0.0141
 9175TIP3   OH249015   1.743   6.042   5.583  0.0042  0.2505 -0.1623
 9175TIP3    H149016   1.752   6.137   5.586 -1.6377  0.3919  0.5263
 9175TIP3    H249017   1.755   6.020   5.490 -1.7174  1.3521 -0.6712
 9176TIP3   OH249018   3.888   1.962  12.813 -0.1850 -0.3061  0.1102
 9176TIP3    H149019   3.811   1.906  12.821 -1.5300  1.5164  0.1490
 9176TIP3    H249020   3.904   1.968  12.719 -0.8279  0.2945  0.0370
 9177TIP3   OH249021   3.563   4.809   0.769  0.0709 -0.0873  0.2670
 9177TIP3    H149022   3.629   4.740   0.757 -0.3568 -0.4405 -0.0716
 9177TIP3    H249023   3.605   4.872   0.827 -0.0483 -1.3658  1.7926
 9178TIP3   OH249024   4.808   2.589  15.793 -0.0929 -0.2989  0.5530
 9178TIP3    H149025   4.871   2.546  15.850 -0.9964  0.5052  2.2089
 9178TIP3    H249026   4.724   2.579  15.838 -0.7754  0.6249 -0.4784
 9179TIP3   OH249027   6.182   4.793  15.659 -0.4072  0.6755  0.4679
 9179TIP3    H149028   6.142   4.785  15.746 -0.6463  1.9720  0.4810
 9179TIP3    H249029   6.128   4.857  15.613  0.0984  0.4708 -0.4205
 9180TIP3   OH249030   1.317   2.220   2.279 -0.2520  0.2493 -0.5688
 9180TIP3    H149031   1.255   2.291   2.294  0.4341  0.6845  0.2736
 9180TIP3    H249032   1.396   2.263   2.247 -0.6133 -0.3712 -2.3322
 9181TIP3   OH249033   6.341   1.275   3.773  0.7162 -0.2711 -0.1436
 9181TIP3    H149034   6.299   1.254   3.690 -0.2149  0.7839  0.0519
 9181TIP3    H249035   6.286   1.235   3.839  0.2159  0.7861  0.0909
 9182TIP3   OH249036   2.339   5.390   1.783 -0.2534 -1.0210 -0.1619
 9182TIP3    H149037   2.368   5.468   1.831 -0.3600  0.0290 -1.7430
 9182TIP3    H249038   2.401   5.382   1.711 -1.2321 -1.4061 -0.9688
 9183TIP3   OH249039   6.447   1.617  15.395 -0.6277  0.3088 -0.3273
 9183TIP3    H149040   6.440   1.680  15.323  0.4568 -0.2918 -0.9731
 9183TIP3    H249041   6.508   1.550  15.362 -1.4854 -0.8879  0.4757
 9184TIP3   OH249042   1.022   4.138   1.504 -0.6157  0.6558 -0.1137
 9184TIP3    H149043   0.951   4.170   1.560 -0.4793  2.3449 -0.8693
 9184TIP3    H249044   1.098   4.134   1.562 -0.7181  1.3998  0.0797
 9185TIP3   OH249045   1.714   5.287  16.652  0.0884 -0.1894 -0.0127
 9185TIP3    H149046   1.742   5.378  16.656  1.0529 -0.3735 -1.8354
 9185TIP3    H249047   1.627   5.287  16.689  0.2100  1.4303  0.3133
 9186TIP3   OH249048   3.125   3.325  16.366 -0.8034  0.0006  0.7378
 9186TIP3    H149049   3.107   3.403  16.313 -1.3496 -0.9799 -0.5590
 9186TIP3    H249050   3.039   3.286  16.380 -0.4944 -0.5704  1.0524
 9187TIP3   OH249051   3.862   6.206   3.131  0.5763 -0.1171  0.1545
 9187TIP3    H149052   3.909   6.173   3.054  1.3296  1.2624 -0.0011
 9187TIP3    H249053   3.799   6.268   3.096  0.1454 -0.3216  0.5618
 9188TIP3   OH249054   1.264   5.290   5.123  0.0092  0.1142  0.1590
 9188TIP3    H149055   1.267   5.323   5.213 -0.1781  0.7844 -0.0829
 9188TIP3    H249056   1.333   5.338   5.077 -0.5918  0.5458 -0.3127
 9189TIP3   OH249057   2.602   6.045  11.066  0.1425 -0.4808  0.2216
 9189TIP3    H149058   2.537   5.989  11.024  1.3088 -0.8113 -1.2023
 9189TIP3    H249059   2.627   6.108  10.997  0.5214  0.3273  1.0875
 9190TIP3   OH249060   1.651   2.045  12.768  0.4261 -1.3230  0.7421
 9190TIP3    H149061   1.594   2.080  12.836  0.3047 -1.0700  0.5115
 9190TIP3    H249062   1.662   1.953  12.792  1.7696 -0.8385  2.0462
 9191TIP3   OH249063   3.171   3.160   1.527 -0.0540  0.1843 -0.2572
 9191TIP3    H149064   3.267   3.163   1.522  0.1261 -2.2320  0.6884
 9191TIP3    H249065   3.143   3.249   1.506  2.3138  0.5383 -2.2304
 9192TIP3   OH249066   5.911   3.275   3.494  0.1379 -0.5263 -0.4431
 9192TIP3    H149067   5.958   3.244   3.416  0.2668 -1.6207  0.0638
 9192TIP3    H249068   5.826   3.231   3.490  0.7222 -1.7698  0.8479
 9193TIP3   OH249069   3.705   4.375  13.555 -0.1649 -0.0598 -0.3884
 9193TIP3    H149070   3.610   4.378  13.549 -0.1558 -1.2188 -1.2814
 9193TIP3    H249071   3.723   4.304  13.617  0.1258 -0.1611 -0.5863
 9194TIP3   OH249072   6.679   1.220   2.766  0.0303 -0.0422 -0.0960
 9194TIP3    H149073   6.754   1.193   2.713  0.6836  1.8793 -0.1977
 9194TIP3    H249074   6.666   1.148   2.827  1.8056 -0.5152 -0.2349
 9195TIP3   OH249075   0.596   3.297  13.241 -0.1993 -0.1056 -0.1230
 9195TIP3    H149076   0.653   3.276  13.315 -0.4627 -2.3382 -0.5346
 9195TIP3    H249077   0.649   3.354  13.185  1.4135 -1.6726 -0.2062
 9196TIP3   OH249078   5.398   4.502   2.486 -0.1204  0.1598 -0.0997
 9196TIP3    H149079   5.363   4.462   2.407 -1.1750  0.6826  0.0980
 9196TIP3    H249080   5.357   4.454   2.558  0.9142 -0.3841  0.1313
 9197TIP3   OH249081   3.878   2.080  16.209 -0.0283 -0.5223 -0.2850
 9197TIP3    H149082   3.785   2.062  16.193 -0.2946 -0.5641  1.2711
 9197TIP3    H249083   3.924   2.026  16.145 -1.0921  0.0974 -1.5911
 9198TIP3   OH249084   0.764   2.274  12.221  0.1561  0.5783  0.2750
 9198TIP3    H149085   0.794   2.309  12.138  0.1285  1.7999  0.7782
 9198TIP3    H249086   0.732   2.186  12.199  2.0030  0.1141 -0.6373
 9199TIP3   OH249087   0.636   3.835   1.054  0.0583 -0.5680 -0.2951
 9199TIP3    H149088   0.720   3.795   1.080  2.7309  1.1642 -5.4183
 9199TIP3    H249089   0.585   3.761   1.020  2.0933 -0.7988 -3.0017
 9200TIP3   OH249090   6.767   3.506   1.772  0.1280  0.6926 -0.3895
 9200TIP3    H149091   6.681   3.481   1.805 -0.0057  0.6770 -0.7482
 9200TIP3    H249092   6.752   3.529   1.680  0.2012  2.3436 -0.0046
 9201TIP3   OH249093   3.748   5.683  11.926 -0.0210  0.0497 -0.3404
 9201TIP3    H149094   3.803   5.756  11.896  1.6278 -0.6797  0.7878
 9201TIP3    H249095   3.743   5.624  11.851  1.2057 -0.1192 -0.3053
 9202TIP3   OH249096   0.691   4.101   1.065  0.0259 -0.3308 -0.0099
 9202TIP3    H149097   0.616   4.159   1.076  1.1735  1.1190  0.4575
 9202TIP3    H249098   0.656   4.013   1.074 -1.0620  0.4004  3.8070
 9203TIP3   OH249099   2.430   5.268   5.666 -0.2429 -0.3124 -0.4379
 9203TIP3    H149100   2.409   5.178   5.691  2.9528 -1.5122 -1.8557
 9203TIP3    H249101   2.383   5.322   5.730 -0.3188 -3.0331  1.9045
 9204TIP3   OH249102   6.367   1.947  12.092 -0.4669 -0.2959 -0.1371
 9204TIP3    H149103   6.303   1.886  12.056  0.2977  0.3203 -2.6343
 9204TIP3    H249104   6.315   2.025  12.115 -1.0549 -0.9259  0.7081
 9205TIP3   OH249105   6.022   5.032   1.846 -0.1739 -0.3392  0.1780
 9205TIP3    H149106   6.038   4.955   1.901 -0.4293  0.9841  2.1773
 9205TIP3    H249107   5.932   5.058   1.868 -0.0358  0.6129 -0.3669
 9206TIP3   OH249108   0.219   1.017   4.670  0.2031  0.0395  0.1536
 9206TIP3    H149109   0.267   0.953   4.617  1.0793  1.0626 -0.3078
 9206TIP3    H249110   0.255   1.007   4.758  0.5069  0.0545  0.0338
 9207TIP3   OH249111   0.199   5.121   4.900  0.3000 -0.2339 -0.0101
 9207TIP3    H149112   0.152   5.077   4.830 -1.3944 -0.3927  1.1861
 9207TIP3    H249113   0.263   5.176   4.856 -0.1681 -0.9769 -1.6412
 9208TIP3   OH249114   0.934   1.329   1.400 -0.1850  0.3623  0.4379
 9208TIP3    H149115   0.938   1.293   1.312  1.1140  0.5740  0.4123
 9208TIP3    H249116   0.946   1.254   1.458  1.0822  0.5449  0.4062
 9209TIP3   OH249117   6.659   6.554   1.338  0.1270  0.1349  0.3997
 9209TIP3    H149118   6.666   6.529   1.430  0.7548 -0.2611  0.2393
 9209TIP3    H249119   6.712   6.633   1.331 -0.5135  0.5877  0.5336
 9210TIP3   OH249120   3.088   6.095  13.406 -0.2400 -0.4432 -0.5352
 9210TIP3    H149121   3.162   6.149  13.433 -0.2620  0.4588 -2.2139
 9210TIP3    H249122   3.093   6.017  13.461  0.9922  0.3556  0.4947
 9211TIP3   OH249123   1.043   1.763   3.301  0.0240  0.2421  0.2117
 9211TIP3    H149124   1.134   1.761   3.273 -0.0347 -0.7881  0.0766
 9211TIP3    H249125   1.044   1.807   3.386  0.7814 -0.7107  0.6976
 9212TIP3   OH249126   4.066   5.485  16.033 -0.1310  0.3421  0.2233
 9212TIP3    H149127   4.007   5.462  16.105 -0.4725  1.5207  0.3258
 9212TIP3    H249128   4.082   5.579  16.044  3.0926 -0.2501  1.1873
 9213TIP3   OH249129   4.059   1.123  13.509 -0.1503 -0.6317 -0.3125
 9213TIP3    H149130   4.034   1.211  13.539 -0.2390 -1.5895  2.5091
 9213TIP3    H249131   3.985   1.095  13.456 -0.9543  0.2524  0.3169
 9214TIP3   OH249132   1.865   1.510  11.097 -0.3901 -0.0352  0.2208
 9214TIP3    H149133   1.924   1.491  11.170 -0.2999  0.9610  0.4096
 9214TIP3    H249134   1.886   1.443  11.031 -0.2254 -0.7155  0.9646
 9215TIP3   OH249135   3.229   0.254  13.599 -0.6846 -0.1041 -0.5278
 9215TIP3    H149136   3.301   0.307  13.631 -0.3893 -0.1393 -1.1241
 9215TIP3    H249137   3.169   0.316  13.559 -0.9464 -0.0832 -0.1003
 9216TIP3   OH249138   4.386   6.241  16.107  0.1495 -0.0608 -0.4443
 9216TIP3    H149139   4.481   6.247  16.122  0.0191 -0.1164  0.3894
 9216TIP3    H249140   4.350   6.320  16.147 -0.3110 -0.7256  0.4520
 9217TIP3   OH249141   0.308   6.453  14.682  0.0853  0.1096 -0.1658
 9217TIP3    H149142   0.239   6.450  14.748  0.8915 -0.0525  0.6971
 9217TIP3    H249143   0.332   6.362  14.668  0.0101  0.1533 -0.5866
 9218TIP3   OH249144   3.362   0.404   1.837 -0.2241 -0.0808 -0.3728
 9218TIP3    H149145   3.447   0.447   1.843 -0.5432  0.4040  0.8193
 9218TIP3    H249146   3.376   0.318   1.875 -0.2404 -0.0335 -0.2588
 9219TIP3   OH249147   2.413   0.599   2.991 -0.5039  0.0991 -0.6861
 9219TIP3    H149148   2.381   0.625   3.077 -0.4674 -0.3251 -0.5418
 9219TIP3    H249149   2.504   0.574   3.005 -0.8798 -1.2381 -0.5973
 9220TIP3   OH249150   3.917   3.663   0.755 -0.4342 -0.1118  0.0751
 9220TIP3    H149151   3.887   3.742   0.711 -0.1620 -0.6008 -1.0082
 9220TIP3    H249152   3.980   3.624   0.694  0.3673 -0.5088  1.1443
 9221TIP3   OH249153   3.918   0.342  10.555 -0.2902 -0.0737 -0.1503
 9221TIP3    H149154   3.915   0.326  10.461 -4.1151  0.0359 -0.1271
 9221TIP3    H249155   3.957   0.429  10.563  0.3124 -0.1951 -1.5892
 9222TIP3   OH249156   2.236   6.332   4.036 -0.1346 -0.4244  0.4540
 9222TIP3    H149157   2.323   6.360   4.063 -1.0151  1.5544  1.2946
 9222TIP3    H249158   2.249   6.244   4.001  2.2734  0.0321  0.1310
 9223TIP3   OH249159   5.054   6.491   3.694 -0.5520 -0.1228  0.2412
 9223TIP3    H149160   5.088   6.419   3.642  2.5947 -0.1696  2.2020
 9223TIP3    H249161   5.033   6.559   3.630  0.1402 -1.3472 -1.3193
 9224TIP3   OH249162   4.143   2.458  13.708 -0.4697  0.2924 -0.3251
 9224TIP3    H149163   4.183   2.537  13.670  1.3356 -0.5652 -0.2809
 9224TIP3    H249164   4.174   2.458  13.799 -0.7400 -0.2850 -0.2382
 9225TIP3   OH249165   5.723   5.452   4.709 -0.2163 -0.0281 -0.0333
 9225TIP3    H149166   5.800   5.460   4.653  0.1196 -0.2862  0.3925
 9225TIP3    H249167   5.755   5.410   4.789 -0.7773 -0.0474  0.1852
 9226TIP3   OH249168   3.433   2.309  12.330  0.0357 -0.7027 -0.5760
 9226TIP3    H149169   3.424   2.378  12.265  0.8800  1.1791  1.2380
 9226TIP3    H249170   3.490   2.346  12.397 -1.0164 -2.4707  1.3826
 9227TIP3   OH249171   5.197   1.998  12.066  0.3169  0.2682  0.0866
 9227TIP3    H149172   5.209   1.909  12.033 -0.1283  0.3638 -0.3301
 9227TIP3    H249173   5.284   2.038  12.059  0.6240 -0.2750  0.7001
 9228TIP3   OH249174   1.904   5.641  16.890  0.3207  0.4936  0.5027
 9228TIP3    H149175   1.849   5.591  16.830  0.1928  2.2709 -0.8833
 9228TIP3    H249176   1.847   5.707  16.928  0.2938 -0.8613  2.9597
 9229TIP3   OH249177   5.032   1.983   1.231  0.6247 -0.4362  0.1282
 9229TIP3    H149178   5.119   2.008   1.261  0.6611 -0.2064 -0.1661
 9229TIP3    H249179   5.010   2.047   1.164 -0.3069  0.2522  1.0869
 9230TIP3   OH249180   5.511   0.864  13.469  0.8259 -0.1797 -0.2792
 9230TIP3    H149181   5.485   0.949  13.433 -1.4960 -0.8646 -0.2609
 9230TIP3    H249182   5.498   0.802  13.398  0.1795 -0.9001  0.4628
 9231TIP3   OH249183   6.555   3.981   6.090 -0.1009 -0.1346 -0.5228
 9231TIP3    H149184   6.484   3.994   6.028 -1.2808  1.8468  1.1999
 9231TIP3    H249185   6.560   3.886   6.102 -2.7623 -0.2600 -0.2860
 9232TIP3   OH249186   6.163   2.634   1.530 -0.7807 -0.4831 -0.4358
 9232TIP3    H149187   6.110   2.707   1.499 -0.3319  0.9733  2.0925
 9232TIP3    H249188   6.236   2.675   1.576  0.0526 -2.5135  0.0996
 9233TIP3   OH249189   1.673   3.332   3.395  0.4567  0.3205 -0.0224
 9233TIP3    H149190   1.686   3.240   3.416  0.2802  0.2454 -0.2373
 9233TIP3    H249191   1.752   3.375   3.426  0.5022  0.1090  0.1558
 9234TIP3   OH249192   1.454   2.227  10.800 -0.0131  0.0578  0.6545
 9234TIP3    H149193   1.507   2.192  10.871  1.6336 -0.7741 -0.9350
 9234TIP3    H249194   1.500   2.200  10.720 -1.2873  1.7670 -0.7097
 9235TIP3   OH249195   3.871   2.874  16.765 -0.2005 -0.0170 -0.0229
 9235TIP3    H149196   3.889   2.957  16.809  0.5055 -0.5123  0.6227
 9235TIP3    H249197   3.823   2.823  16.830 -1.3402  0.1798 -0.6968
 9236TIP3   OH249198   4.523   3.718   4.590  0.2409 -0.5415  0.0881
 9236TIP3    H149199   4.507   3.691   4.680  3.3601  0.2557  0.9393
 9236TIP3    H249200   4.438   3.711   4.547 -1.2736 -0.9930  3.0677
 9237TIP3   OH249201   3.280   2.196  12.542 -0.1056 -0.0079  0.1180
 9237TIP3    H149202   3.305   2.222  12.453 -1.3144  1.0104  0.0563
 9237TIP3    H249203   3.361   2.167  12.583  0.8600  1.5997 -0.6139
 9238TIP3   OH249204   1.396   4.628  16.137 -0.3896 -0.1536  0.3080
 9238TIP3    H149205   1.402   4.576  16.217 -1.8015 -0.9490 -0.0936
 9238TIP3    H249206   1.302   4.636  16.121 -0.0970 -0.8117 -1.7956
 9239TIP3   OH249207   2.171   2.662   3.967  0.5253 -0.3400  0.1464
 9239TIP3    H149208   2.124   2.692   3.890  1.4887  1.0146  0.0614
 9239TIP3    H249209   2.259   2.643   3.936  0.4616 -1.3671  0.5933
 9240TIP3   OH249210   3.709   5.150  10.805 -0.4231  0.3673 -0.1312
 9240TIP3    H149211   3.667   5.225  10.764 -0.6419 -0.2150 -0.9755
 9240TIP3    H249212   3.776   5.123  10.743 -1.4173 -1.1310 -0.5917
 9241TIP3   OH249213   2.189   2.235  12.930 -0.7020 -0.3231 -0.2216
 9241TIP3    H149214   2.273   2.269  12.899 -0.1314 -1.4903  0.0409
 9241TIP3    H249215   2.210   2.190  13.012 -1.6100 -0.4812 -0.0683
 9242TIP3   OH249216   2.065   5.269  12.496 -0.0647  0.0199  0.4778
 9242TIP3    H149217   2.133   5.232  12.439 -0.8203  1.1358 -1.1816
 9242TIP3    H249218   2.092   5.244  12.584  1.4354 -1.2587 -0.3146
 9243TIP3   OH249219   1.604   6.236   2.647  0.2144 -0.2325  0.3226
 9243TIP3    H149220   1.590   6.206   2.737  3.0695  2.3564  1.7306
 9243TIP3    H249221   1.535   6.299   2.631  0.5048  0.3164  1.2107
 9244TIP3   OH249222   0.100   2.230   0.586 -0.2945  0.1312 -0.5765
 9244TIP3    H149223   0.084   2.324   0.572 -2.2406  0.1670  1.4724
 9244TIP3    H249224   0.060   2.187   0.510 -1.7460  0.8283 -0.2245
 9245TIP3   OH249225   5.676   5.173   3.577  0.2888 -0.4200 -0.3005
 9245TIP3    H149226   5.588   5.209   3.565  0.2353  0.2177  1.7742
 9245TIP3    H249227   5.721   5.240   3.629  1.6792 -1.2068 -0.4963
 9246TIP3   OH249228   1.066   5.649   2.672 -0.1379 -0.2628  0.3810
 9246TIP3    H149229   1.094   5.736   2.702 -0.7782  0.1795 -0.3125
 9246TIP3    H249230   1.091   5.647   2.580  3.0703 -2.1379  1.2040
 9247TIP3   OH249231   2.062   2.184  13.818  0.7794  0.4089 -0.1674
 9247TIP3    H149232   2.104   2.127  13.882  2.6695  1.9055 -0.0119
 9247TIP3    H249233   2.038   2.126  13.746  2.6438 -0.5890 -0.0030
 9248TIP3   OH249234   0.844   1.602   5.590 -0.3323  0.1077 -0.1894
 9248TIP3    H149235   0.871   1.686   5.554  0.4466  0.1292  0.4369
 9248TIP3    H249236   0.924   1.550   5.593 -0.1407  0.4770  2.5149
 9249TIP3   OH249237   0.424   3.032  14.529  0.3079  0.1763  0.4724
 9249TIP3    H149238   0.358   3.080  14.480  1.0661 -0.1422 -0.8860
 9249TIP3    H249239   0.375   2.964  14.576 -0.2452 -0.5632 -1.1436
 9250TIP3   OH249240   4.881   1.495  16.250 -0.3705 -0.2330  0.2994
 9250TIP3    H149241   4.794   1.497  16.290 -1.3408  2.3417 -1.8034
 9250TIP3    H249242   4.867   1.458  16.163  0.1440  2.5295 -1.0221
 9251TIP3   OH249243   2.290   1.831   1.670  0.1529  0.2511  0.4708
 9251TIP3    H149244   2.296   1.925   1.654  0.5622 -0.2899 -3.0872
 9251TIP3    H249245   2.370   1.795   1.630 -1.9383 -1.9615 -1.8961
 9252TIP3   OH249246   6.273   4.900  12.780 -0.0308  0.0803  0.0106
 9252TIP3    H149247   6.321   4.913  12.862 -1.3914  3.8425  0.2924
 9252TIP3    H249248   6.186   4.871  12.808 -0.7082  2.0137 -0.0169
 9253TIP3   OH249249   6.530   6.407   2.034  0.4690 -0.1004 -0.2137
 9253TIP3    H149250   6.570   6.321   2.045  1.6632  0.3947 -0.6066
 9253TIP3    H249251   6.600   6.469   2.056 -0.3488  0.7722 -0.0337
 9254TIP3   OH249252   1.835   6.387  13.847 -0.0035  0.2973 -0.3500
 9254TIP3    H149253   1.751   6.352  13.815  0.1247 -0.6099  0.2895
 9254TIP3    H249254   1.901   6.331  13.806  0.3183  1.2054 -1.1044
 9255TIP3   OH249255   6.625   6.754   4.763 -0.0904 -0.3936  0.4565
 9255TIP3    H149256   6.653   6.742   4.853  0.0433  0.4530  0.5238
 9255TIP3    H249257   6.582   6.671   4.740  1.6043 -1.3551  0.6558
 9256TIP3   OH249258   2.856   5.509  10.956 -0.4279 -0.0490 -1.0402
 9256TIP3    H149259   2.834   5.442  11.021  0.8054 -0.4192 -0.9881
 9256TIP3    H249260   2.926   5.470  10.904  1.7968  1.9522  0.3163
 9257TIP3   OH249261   0.753   1.388   1.124 -0.2391  0.6783 -0.3933
 9257TIP3    H149262   0.756   1.424   1.036 -0.8114  0.5617 -0.4619
 9257TIP3    H249263   0.821   1.322   1.126 -0.9348 -0.0691 -1.0764
 9258TIP3   OH249264   6.421   4.899   5.336  0.4828 -0.1989  0.0911
 9258TIP3    H149265   6.428   4.980   5.385 -0.3607  0.2061 -0.4431
 9258TIP3    H249266   6.339   4.859   5.366  0.7139 -0.6803  0.0972
 9259TIP3   OH249267   6.021   0.464  15.509 -0.1847  0.0214  0.1875
 9259TIP3    H149268   5.982   0.522  15.444  0.7056 -0.3236 -0.6707
 9259TIP3    H249269   6.078   0.522  15.561  0.8339 -0.0953 -0.7759
 9260TIP3   OH249270   5.358   1.611  12.388  0.6058  0.1370 -0.0713
 9260TIP3    H149271   5.331   1.696  12.354  0.5488 -0.0662 -0.5390
 9260TIP3    H249272   5.278   1.558  12.385  1.0982 -0.5515 -1.7081
 9261TIP3   OH249273   5.879   1.565   1.654 -0.8949 -0.8657  0.0636
 9261TIP3    H149274   5.937   1.618   1.599 -0.6879 -0.7196  0.4276
 9261TIP3    H249275   5.865   1.485   1.603  2.1704 -2.2818  1.3238
 9262TIP3   OH249276   3.222   1.810  14.404 -0.6058 -0.4473 -0.0234
 9262TIP3    H149277   3.199   1.886  14.458 -1.0664 -1.5194  1.3212
 9262TIP3    H249278   3.191   1.833  14.316  1.9268  2.1634 -0.3058
 9263TIP3   OH249279   2.526   1.377  16.820 -0.2394 -0.3464 -0.2668
 9263TIP3    H149280   2.575   1.367  16.902 -0.6943 -0.6306 -0.0313
 9263TIP3    H249281   2.542   1.295  16.772 -1.7733 -1.1028  0.5017
 9264TIP3   OH249282   1.256   4.284   2.083 -0.1534  0.1514 -0.2368
 9264TIP3    H149283   1.193   4.213   2.096  0.9549 -0.3968  2.4338
 9264TIP3    H249284   1.331   4.243   2.040  0.1790 -0.1574  0.6247
 9265TIP3   OH249285   5.722   6.444  13.632 -0.2027 -0.1972 -0.0662
 9265TIP3    H149286   5.718   6.539  13.618 -1.2932 -0.4569 -1.6655
 9265TIP3    H249287   5.637   6.422  13.670  1.0113 -0.1906  2.8075
 9266TIP3   OH249288   6.056   2.739   2.415 -0.4807 -0.3404 -0.4859
 9266TIP3    H149289   6.096   2.775   2.493  0.6836  0.0356 -1.2473
 9266TIP3    H249290   6.121   2.680   2.378 -1.5028 -1.4915 -0.4954
 9267TIP3   OH249291   0.146   2.697  15.834 -0.2034 -0.1526 -0.2211
 9267TIP3    H149292   0.220   2.731  15.784 -0.4837  0.7787 -0.0192
 9267TIP3    H249293   0.071   2.748  15.803 -0.2369  1.0959  1.7613
 9268TIP3   OH249294   2.090   1.869   0.339 -1.2518 -0.2771 -0.1499
 9268TIP3    H149295   2.141   1.854   0.418 -0.4502 -2.3477 -0.9991
 9268TIP3    H249296   2.025   1.799   0.340 -2.3689  0.7569 -0.4197
 9269TIP3   OH249297   3.872   3.538  14.699  0.1879  0.3614  0.1362
 9269TIP3    H149298   3.967   3.547  14.691  0.3827 -0.8400  1.0241
 9269TIP3    H249299   3.859   3.487  14.779 -1.1451 -0.7691 -0.7826
 9270TIP3   OH249300   5.880   3.847  16.403 -0.4929 -0.0885  0.4381
 9270TIP3    H149301   5.912   3.908  16.337  0.3864  0.2789  1.1969
 9270TIP3    H249302   5.951   3.784  16.415 -0.9384 -0.5899  0.5077
 9271TIP3   OH249303   5.250   1.266  16.756 -0.1756 -0.1565  0.6860
 9271TIP3    H149304   5.235   1.360  16.746  0.9308 -0.0805 -0.3707
 9271TIP3    H249305   5.163   1.227  16.747 -0.3602  0.6042 -1.0113
 9272TIP3   OH249306   2.697   3.855   3.100 -0.2846 -0.7145  0.2918
 9272TIP3    H149307   2.659   3.914   3.165 -0.4933 -1.4552  0.8560
 9272TIP3    H249308   2.762   3.805   3.149  0.7222 -0.1276 -0.4518
 9273TIP3   OH249309   3.424   0.715   3.754  0.0362 -0.0704  0.1222
 9273TIP3    H149310   3.434   0.735   3.847 -1.7884  0.2722  0.2697
 9273TIP3    H249311   3.465   0.788   3.708 -0.7922  0.7503  0.6717
 9274TIP3   OH249312   4.754   0.819  15.887 -0.1942 -0.2765 -0.5043
 9274TIP3    H149313   4.760   0.765  15.966  0.3663  0.2511 -0.1826
 9274TIP3    H249314   4.668   0.799  15.850 -0.8233  0.1328  0.7243
 9275TIP3   OH249315   6.389   4.324   4.471  0.0967  0.8154  0.3752
 9275TIP3    H149316   6.391   4.415   4.501 -0.7900  0.9194  0.1379
 9275TIP3    H249317   6.302   4.292   4.496 -0.0407  0.3998 -0.5991
 9276TIP3   OH249318   4.314   4.593  16.370  0.0584  0.1077  0.2300
 9276TIP3    H149319   4.241   4.640  16.409 -0.6872 -1.2659  0.5252
 9276TIP3    H249320   4.273   4.522  16.321  1.1106  0.3904 -1.0895
 9277TIP3   OH249321   2.095   4.956   0.265  0.1488  0.1878 -0.2500
 9277TIP3    H149322   2.058   5.018   0.203 -0.1309 -0.7379 -1.0185
 9277TIP3    H249323   2.178   4.995   0.293  0.1043  0.7678 -0.9332
 9278TIP3   OH249324   3.915   4.171  16.337 -0.0651  0.9421 -0.5288
 9278TIP3    H149325   3.914   4.094  16.280  1.0675 -1.2572  2.3172
 9278TIP3    H249326   3.823   4.182  16.364 -0.0942  0.1005 -0.2849
 9279TIP3   OH249327   3.693   4.378  12.253 -0.1138 -0.3030  0.0666
 9279TIP3    H149328   3.724   4.290  12.276  0.4384  0.0407  0.6235
 9279TIP3    H249329   3.706   4.383  12.158  0.0228 -0.7575  0.0605
 9280TIP3   OH249330   4.672   4.054  13.210 -0.1444 -0.5633 -0.4502
 9280TIP3    H149331   4.591   4.064  13.160 -0.2751 -0.8182 -0.2906
 9280TIP3    H249332   4.728   4.001  13.154 -0.8203 -2.0710  0.2723
 9281TIP3   OH249333   2.005   4.417  14.818 -0.2259 -0.2837  0.7015
 9281TIP3    H149334   1.987   4.425  14.724 -0.3100  1.0340  0.8138
 9281TIP3    H249335   2.053   4.335  14.826  0.3554 -0.0902 -0.5735
 9282TIP3   OH249336   0.846   0.011  15.353 -0.0852  0.3238 -0.3560
 9282TIP3    H149337   0.853   0.015  15.448 -0.8123  0.2952 -0.2969
 9282TIP3    H249338   0.864  -0.080  15.332  2.3011  0.7897 -0.4514
 9283TIP3   OH249339   0.645   4.111   0.642 -0.0886  0.0325 -0.1009
 9283TIP3    H149340   0.634   4.181   0.577  1.5440 -0.1393 -0.5842
 9283TIP3    H249341   0.739   4.095   0.644 -0.0101  0.4988  2.8304
 9284TIP3   OH249342   1.926   3.435   1.535 -0.2820 -0.1140  1.4279
 9284TIP3    H149343   1.972   3.452   1.453 -0.0261 -1.5178  1.2688
 9284TIP3    H249344   1.910   3.522   1.572  0.9198  0.4637  0.6273
 9285TIP3   OH249345   2.754   5.254   3.417  0.2846 -0.4651 -0.7291
 9285TIP3    H149346   2.797   5.186   3.468  0.6941 -0.6181 -1.2617
 9285TIP3    H249347   2.814   5.329   3.422  0.0067 -0.2654 -0.4347
 9286TIP3   OH249348   6.522   5.554   3.929  0.2774  0.3298  0.3814
 9286TIP3    H149349   6.490   5.476   3.884  1.4587 -0.5005  0.9634
 9286TIP3    H249350   6.456   5.572   3.996 -0.8338  0.8131 -0.8381
 9287TIP3   OH249351   5.637   2.056   2.560 -0.2640 -0.7475 -0.4068
 9287TIP3    H149352   5.543   2.045   2.574 -0.2951 -0.7927 -0.6606
 9287TIP3    H249353   5.677   1.986   2.611 -0.3426 -0.4368  0.0977
 9288TIP3   OH249354   0.975   0.741   5.716  0.2223  0.1788  0.1078
 9288TIP3    H149355   1.030   0.682   5.768  1.7764  1.1522 -0.3833
 9288TIP3    H249356   1.014   0.738   5.628 -0.6111  0.7669 -0.2861
 9289TIP3   OH249357   5.295   1.753  15.476 -0.2438 -0.3074 -0.2301
 9289TIP3    H149358   5.262   1.712  15.396  0.0120 -0.8240 -0.0732
 9289TIP3    H249359   5.390   1.758  15.462 -0.4891  2.4717 -1.2934
 9290TIP3   OH249360   1.685   5.085   4.958 -0.1998 -0.1134 -0.0934
 9290TIP3    H149361   1.626   5.159   4.949 -0.5061 -0.5306 -1.7628
 9290TIP3    H249362   1.757   5.117   5.012 -1.2455  0.8207  0.7549
 9291TIP3   OH249363   1.703   4.213  14.216  0.1236 -0.0291 -0.3229
 9291TIP3    H149364   1.678   4.134  14.169  0.7652 -2.1409  2.7515
 9291TIP3    H249365   1.797   4.222  14.198 -0.0491  0.3716 -1.0807
 9292TIP3   OH249366   3.176   5.846  13.588  0.0672  0.0900 -0.5526
 9292TIP3    H149367   3.241   5.900  13.632  0.2779  1.0256 -1.9703
 9292TIP3    H249368   3.225   5.797  13.522 -0.0309 -2.2753  1.0635
 9293TIP3   OH249369   5.686   0.157  16.169  0.3616  0.2212  0.2338
 9293TIP3    H149370   5.594   0.158  16.142 -0.3576 -1.6478  2.3691
 9293TIP3    H249371   5.724   0.081  16.124  1.0727  1.4336 -1.2337
 9294TIP3   OH249372   5.528   6.598  14.158 -0.1921 -0.5096  0.4556
 9294TIP3    H149373   5.582   6.626  14.233 -0.7811 -0.2775  0.7993
 9294TIP3    H249374   5.445   6.572  14.197 -0.6422 -0.0050 -0.1635
 9295TIP3   OH249375   1.447   3.520   1.648 -0.4909 -0.2523 -0.0693
 9295TIP3    H149376   1.479   3.486   1.564  1.0730  1.9796 -0.4356
 9295TIP3    H249377   1.507   3.485   1.713 -0.8201 -0.7895 -0.0525
 9296TIP3   OH249378   3.729   2.058   1.980  0.3085 -0.0698 -0.2331
 9296TIP3    H149379   3.707   2.128   2.042 -0.0333  0.3544 -0.8218
 9296TIP3    H249380   3.770   1.990   2.033 -0.3324  0.1257  0.5143
 9297TIP3   OH249381   6.046   6.062   6.379 -0.3909 -0.0044 -0.4586
 9297TIP3    H149382   6.088   6.148   6.381 -0.2348 -0.0750 -0.6587
 9297TIP3    H249383   5.955   6.079   6.403 -0.4911  0.2930 -1.0440
 9298TIP3   OH249384   0.796   3.190   4.226  0.4119 -0.1052 -0.0636
 9298TIP3    H149385   0.724   3.252   4.213  0.0513 -0.2904  1.0567
 9298TIP3    H249386   0.846   3.226   4.299  2.6456  1.1070 -2.0753
 9299TIP3   OH249387   1.676   5.700  17.235 -0.5222  0.0809  0.4868
 9299TIP3    H149388   1.668   5.777  17.291  2.2079  0.3294  0.6173
 9299TIP3    H249389   1.767   5.702  17.204 -0.9248 -2.0779 -0.9926
 9300TIP3   OH249390   1.115   1.993  14.512  0.1214 -0.1957 -0.0251
 9300TIP3    H149391   1.154   1.934  14.576  0.1210  0.5863  0.6976
 9300TIP3    H249392   1.024   2.002  14.540  0.1994  0.3833  0.0349
 9301TIP3   OH249393   3.793   0.625   2.907  0.0228  0.4698  0.1667
 9301TIP3    H149394   3.805   0.684   2.981  2.2250  1.3041 -0.8186
 9301TIP3    H249395   3.791   0.682   2.831  0.8052 -0.6289 -0.6872
 9302TIP3   OH249396   2.835   3.611  10.958 -0.0499  0.2877  0.1420
 9302TIP3    H149397   2.834   3.625  10.863 -2.3064  0.9452  0.2303
 9302TIP3    H249398   2.892   3.680  10.991 -0.7940  1.2735 -0.5792
 9303TIP3   OH249399   4.649   5.356  11.974 -0.3890  0.3133  0.5365
 9303TIP3    H149400   4.686   5.423  11.916 -1.5525  0.2479 -0.2914
 9303TIP3    H249401   4.573   5.397  12.015 -0.8855 -0.3661  0.3123
 9304TIP3   OH249402   6.628   5.905  11.365 -0.4848  0.1212 -0.3184
 9304TIP3    H149403   6.532   5.900  11.362 -0.6919  3.0032  0.4402
 9304TIP3    H249404   6.652   5.948  11.283  0.1856 -0.7088 -0.5589
 9305TIP3   OH249405   2.185   0.734   4.572 -0.3311  0.0235 -0.1850
 9305TIP3    H149406   2.178   0.642   4.597 -0.3802 -0.0846 -0.5948
 9305TIP3    H249407   2.154   0.783   4.649 -0.3269 -0.3000  0.0222
 9306TIP3   OH249408   1.735   0.526   4.782 -0.7387 -0.1750  0.4829
 9306TIP3    H149409   1.780   0.530   4.698 -1.4033 -2.1497  0.0009
 9306TIP3    H249410   1.766   0.445   4.822 -1.8316 -0.1796  1.3390
 9307TIP3   OH249411   5.441   2.998   2.961  0.7556 -1.1264  0.0640
 9307TIP3    H149412   5.446   3.090   2.933 -0.4171 -0.3032  2.4055
 9307TIP3    H249413   5.395   3.002   3.045  0.8948 -3.8529  0.2867
 9308TIP3   OH249414   5.598   0.886   5.376  0.0014  0.0527  0.8456
 9308TIP3    H149415   5.519   0.933   5.399 -0.1220  0.1211  0.2885
 9308TIP3    H249416   5.669   0.935   5.417 -0.2408 -0.0030  1.3326
 9309TIP3   OH249417   0.876   2.970  15.670 -0.1941  0.2637  0.3476
 9309TIP3    H149418   0.971   2.958  15.669  0.0663  2.2297 -0.8539
 9309TIP3    H249419   0.843   2.904  15.610  0.4563 -0.0224  0.2955
 9310TIP3   OH249420   0.453   1.349   3.666  0.2641  0.3448 -0.0488
 9310TIP3    H149421   0.479   1.263   3.631  0.6068  0.9544 -1.3172
 9310TIP3    H249422   0.466   1.341   3.760  0.7181 -0.8570 -0.2026
 9311TIP3   OH249423   1.842   4.964   5.499  0.0173  0.2916  0.0619
 9311TIP3    H149424   1.786   4.975   5.422 -1.3134 -0.6736  0.8640
 9311TIP3    H249425   1.864   5.053   5.526  0.2244  0.6389 -1.2450
 9312TIP3   OH249426   5.230   4.484  12.045 -1.0275  0.3695  0.0105
 9312TIP3    H149427   5.161   4.424  12.019 -0.8297  0.4990 -0.8364
 9312TIP3    H249428   5.231   4.551  11.976  0.9569 -0.4771 -0.8392
 9313TIP3   OH249429   4.930   0.573  14.333  0.0807  0.3887 -0.4626
 9313TIP3    H149430   4.972   0.500  14.288 -0.7485 -0.8429  0.7367
 9313TIP3    H249431   4.839   0.570  14.305 -0.0974  0.5841  0.0878
 9314TIP3   OH249432   2.972   3.572  15.930 -0.0410  0.2546 -0.0410
 9314TIP3    H149433   2.902   3.555  15.993 -0.5098  0.4855 -0.4946
 9314TIP3    H249434   2.970   3.497  15.871  0.8237 -0.2821  0.5892
 9315TIP3   OH249435   4.068   2.052   4.832  0.1701  0.5393  0.5343
 9315TIP3    H149436   4.042   2.138   4.866  0.1868  0.1061  1.6576
 9315TIP3    H249437   4.122   2.014   4.901  1.3063  0.1802 -0.5364
 9316TIP3   OH249438   4.204   6.218   1.945 -0.2773 -0.0949 -0.3360
 9316TIP3    H149439   4.144   6.254   2.010  0.2129  3.2333 -1.5865
 9316TIP3    H249440   4.147   6.193   1.872 -0.5972 -1.6020  0.4191
 9317TIP3   OH249441   0.819   0.586  12.224 -0.0690  0.2831 -1.1158
 9317TIP3    H149442   0.885   0.520  12.247  0.5119  0.4081 -2.4033
 9317TIP3    H249443   0.735   0.542  12.239  0.2711  0.4047  1.3884
 9318TIP3   OH249444   1.987   1.243  11.810  0.3639 -0.8866 -0.0321
 9318TIP3    H149445   1.897   1.266  11.785  0.7382 -0.7566 -1.2702
 9318TIP3    H249446   1.978   1.203  11.897 -0.9152 -1.0259 -0.2216
 9319TIP3   OH249447   5.692   4.478  12.294 -0.5514  0.3085  0.2019
 9319TIP3    H149448   5.772   4.427  12.308 -0.4114 -0.0215 -1.7229
 9319TIP3    H249449   5.687   4.489  12.199 -3.0588 -0.1227  0.2551
 9320TIP3   OH249450   2.804   5.334   2.272 -0.6496 -0.2047 -0.4058
 9320TIP3    H149451   2.742   5.274   2.312  0.3939 -0.7744  0.4053
 9320TIP3    H249452   2.889   5.290   2.280  0.1198  1.3137  0.0812
 9321TIP3   OH249453   5.990   5.365  10.958 -0.5991 -0.4454  0.0838
 9321TIP3    H149454   6.084   5.351  10.971 -0.7621  0.4662  2.5880
 9321TIP3    H249455   5.966   5.306  10.887  2.0506  0.0066 -1.2392
 9322TIP3   OH249456   5.981   3.334  12.763  0.1653 -0.5153  0.2017
 9322TIP3    H149457   5.897   3.325  12.808  0.0453 -1.3053 -0.1770
 9322TIP3    H249458   6.046   3.300  12.825  0.2655  0.4985  0.6682
 9323TIP3   OH249459   4.070   6.298  12.116  0.0550 -0.3619 -0.1264
 9323TIP3    H149460   4.072   6.384  12.074 -1.8740 -0.0539  0.3790
 9323TIP3    H249461   4.050   6.237  12.045 -0.3592 -0.1875 -0.1566
 9324TIP3   OH249462   4.030   0.373   1.019 -0.0267  0.4564  0.3384
 9324TIP3    H149463   4.053   0.465   1.036  0.4230  1.0385 -3.0112
 9324TIP3    H249464   4.114   0.331   0.999 -0.5363 -0.0203 -0.8527
 9325TIP3   OH249465   0.203   0.233   2.291  0.0450  0.0359  0.2208
 9325TIP3    H149466   0.152   0.282   2.226 -0.6199  0.0239  0.7301
 9325TIP3    H249467   0.262   0.179   2.239  0.4455  1.0226 -0.3552
 9326TIP3   OH249468   1.500   3.241  13.424  0.0639 -0.0087  0.0443
 9326TIP3    H149469   1.545   3.160  13.448  0.1121  0.2639  0.8937
 9326TIP3    H249470   1.460   3.271  13.506 -0.3266  0.5882 -0.3648
 9327TIP3   OH249471   1.928   2.005  16.017  0.0492  0.1672 -0.4916
 9327TIP3    H149472   2.013   1.967  16.039  0.0998 -0.0748 -1.0797
 9327TIP3    H249473   1.900   1.957  15.939  0.0255  1.2250 -1.1437
 9328TIP3   OH249474   2.845   2.173   2.545  0.0667 -0.6555 -0.4419
 9328TIP3    H149475   2.753   2.147   2.538 -1.2639  3.3540  0.5595
 9328TIP3    H249476   2.878   2.126   2.621 -0.5326 -3.6763 -1.9953
 9329TIP3   OH249477   6.743   5.188  13.931  0.2938  0.4942  0.4105
 9329TIP3    H149478   6.805   5.161  13.998  0.5885  2.4426  0.9549
 9329TIP3    H249479   6.798   5.219  13.859  0.0161 -2.9548 -1.3894
 9330TIP3   OH249480   2.721   4.028   1.920  0.5748 -0.2338  0.0941
 9330TIP3    H149481   2.812   4.001   1.904 -0.1057 -1.7142 -1.3857
 9330TIP3    H249482   2.682   3.956   1.969 -0.2069 -0.2906 -0.5898
 9331TIP3   OH249483   3.721   1.866   4.655  0.2547 -0.2710 -0.4022
 9331TIP3    H149484   3.795   1.805   4.646  2.6144  2.0868  2.1175
 9331TIP3    H249485   3.721   1.890   4.748 -0.6513  3.4738 -1.2931
 9332TIP3   OH249486   3.355   6.113   6.439  0.4410  0.5222 -0.0666
 9332TIP3    H149487   3.322   6.102   6.528 -1.3125  0.0801 -0.7578
 9332TIP3    H249488   3.306   6.050   6.387  1.1021  1.1202 -1.4402
 9333TIP3   OH249489   1.343   5.286   2.538  0.3446  0.1383 -0.6118
 9333TIP3    H149490   1.354   5.379   2.558 -0.2095  0.0955 -0.0799
 9333TIP3    H249491   1.261   5.281   2.490 -0.9510 -0.3712  1.5983
 9334TIP3   OH249492   1.652   5.827   5.040  0.3971  0.3809  0.0312
 9334TIP3    H149493   1.602   5.847   4.960  1.0763  0.5788 -0.3471
 9334TIP3    H249494   1.735   5.874   5.029 -0.2317  1.9189  1.7095
 9335TIP3   OH249495   5.158   3.275  13.324  0.2526  0.1986  0.1822
 9335TIP3    H149496   5.211   3.336  13.375  1.5258 -0.6743 -0.0602
 9335TIP3    H249497   5.104   3.331  13.267 -0.6598  1.1517  1.9522
 9336TIP3   OH249498   6.247   6.758   2.420 -0.0543 -0.2445 -0.6875
 9336TIP3    H149499   6.319   6.721   2.368  1.6030  0.5642  1.0164
 9336TIP3    H249500   6.211   6.827   2.364  2.7335  1.6952 -0.1655
 9337TIP3   OH249501   1.959   3.792  12.345 -0.1112 -0.7162  0.1592
 9337TIP3    H149502   1.971   3.856  12.415  0.3097 -1.4817  0.8000
 9337TIP3    H249503   2.041   3.743  12.344  0.3603  0.0628 -1.6845
 9338TIP3   OH249504   4.216   4.932   3.047 -0.2981 -0.0651  0.4141
 9338TIP3    H149505   4.293   4.882   3.021  0.8496  0.5371  2.5401
 9338TIP3    H249506   4.144   4.868   3.044 -0.0207 -0.2819 -2.9743
 9339TIP3   OH249507   3.913   0.123   4.571 -0.3044  0.9006 -0.4514
 9339TIP3    H149508   3.991   0.071   4.591 -0.3557  1.1348  0.3882
 9339TIP3    H249509   3.921   0.143   4.478  0.3708  0.4752 -0.4913
 9340TIP3   OH249510   5.175   5.060   5.989  0.3648  0.2467 -0.1426
 9340TIP3    H149511   5.271   5.057   5.996  0.2388 -1.1850  1.1914
 9340TIP3    H249512   5.145   5.092   6.074 -0.3061  1.6106 -0.8873
 9341TIP3   OH249513   5.896   4.617   4.112 -0.3103  0.3095 -0.3252
 9341TIP3    H149514   5.928   4.538   4.069  1.8884  0.5099  0.8397
 9341TIP3    H249515   5.963   4.637   4.177 -1.8595  1.9616  0.8163
 9342TIP3   OH249516   6.341   3.237  11.728  0.1548  0.1733  0.5038
 9342TIP3    H149517   6.369   3.145  11.729 -1.2240 -0.2650  1.3992
 9342TIP3    H249518   6.286   3.244  11.651 -1.9168 -0.4674  1.8807
 9343TIP3   OH249519   5.258   5.801  14.070  0.1771 -0.5270  0.0901
 9343TIP3    H149520   5.300   5.756  13.996 -0.5253 -1.0755  0.0181
 9343TIP3    H249521   5.294   5.758  14.148 -0.0783 -0.8440  0.0348
 9344TIP3   OH249522   4.577   3.160  13.558  0.3675  0.0976  0.2630
 9344TIP3    H149523   4.551   3.090  13.498 -0.9184 -1.3142  2.4037
 9344TIP3    H249524   4.670   3.145  13.572  0.2122 -0.8913  0.3131
 9345TIP3   OH249525   6.371   3.250   5.004  0.5500 -0.4600 -0.0371
 9345TIP3    H149526   6.301   3.185   4.999 -0.0722  0.2282 -0.4417
 9345TIP3    H249527   6.447   3.208   4.964 -0.0172 -0.7189 -0.8499
 9346TIP3   OH249528   3.510   3.935  15.203 -0.9965 -0.7664 -0.5921
 9346TIP3    H149529   3.481   3.889  15.282  0.4542  1.5717  1.3721
 9346TIP3    H249530   3.445   4.003  15.189 -0.2407  0.0393 -0.2591
 9347TIP3   OH249531   2.070   0.008  10.984  0.4223 -0.0518  0.2858
 9347TIP3    H149532   2.066  -0.082  10.951 -0.8999  0.2066 -0.2863
 9347TIP3    H249533   1.997   0.015  11.046  0.6565  0.5623  0.5001
 9348TIP3   OH249534   2.508   0.949   0.172 -0.2837 -0.6297  0.5010
 9348TIP3    H149535   2.514   0.886   0.101  1.8472 -1.5307  1.4437
 9348TIP3    H249536   2.495   1.033   0.129  1.8552 -1.0353 -1.0306
 9349TIP3   OH249537   5.484   0.298  12.754 -0.1203 -0.0923 -1.2176
 9349TIP3    H149538   5.435   0.227  12.713 -1.0814 -1.0477  1.4305
 9349TIP3    H249539   5.538   0.255  12.821  0.5196  1.4892 -0.6882
 9350TIP3   OH249540   0.047   2.912  14.614  0.2909 -0.0749  0.1669
 9350TIP3    H149541   0.047   2.926  14.709  0.7336 -1.8958  0.4517
 9350TIP3    H249542   0.127   2.862  14.597 -0.6220 -1.1902 -0.9386
 9351TIP3   OH249543   0.892   0.335   4.281 -0.3669  0.2530 -0.2260
 9351TIP3    H149544   0.801   0.315   4.305  0.3052 -2.1880  0.4077
 9351TIP3    H249545   0.933   0.250   4.271  1.7368  1.3417 -1.0827
 9352TIP3   OH249546   1.791   2.509   4.732 -0.3907  0.3555  0.1162
 9352TIP3    H149547   1.700   2.519   4.759 -0.9120 -2.0699 -0.6490
 9352TIP3    H249548   1.794   2.425   4.687  1.6892  1.6098 -2.2070
 9353TIP3   OH249549   2.711   2.027   2.173  0.8098 -0.3309  0.0310
 9353TIP3    H149550   2.716   1.985   2.259 -0.1023  0.3638  0.4324
 9353TIP3    H249551   2.618   2.034   2.155  0.9881 -0.0850 -0.8350
 9354TIP3   OH249552   3.955   4.005   3.668  0.0343 -0.0310 -0.2423
 9354TIP3    H149553   3.883   4.047   3.620  1.2470 -0.5342 -2.5740
 9354TIP3    H249554   3.918   3.922   3.698 -0.7678  0.3286 -0.2206
 9355TIP3   OH249555   1.458   2.658  11.995 -0.2697  0.5260  0.1044
 9355TIP3    H149556   1.388   2.603  11.961  0.8405 -1.6590  1.2470
 9355TIP3    H249557   1.496   2.699  11.917 -0.4499 -1.1581 -0.8992
 9356TIP3   OH249558   5.127   4.613  16.343 -0.1304  0.0080 -0.3075
 9356TIP3    H149559   5.172   4.670  16.280  2.1455 -0.4358  0.8750
 9356TIP3    H249560   5.035   4.641  16.338  0.2413  1.0091 -2.7035
 9357TIP3   OH249561   0.492   0.118  11.812  0.3115 -0.5098  0.5282
 9357TIP3    H149562   0.480   0.168  11.893  0.5569  1.8038 -0.8005
 9357TIP3    H249563   0.576   0.075  11.822  0.6997  0.3791  1.2082
 9358TIP3   OH249564   0.020   4.114  16.280  0.1913  0.9386  0.2337
 9358TIP3    H149565   0.114   4.101  16.289  0.0528 -0.8389 -0.5459
 9358TIP3    H249566  -0.018   4.073  16.358 -0.0690 -0.6817 -0.7125
 9359TIP3   OH249567   6.759   4.243   0.193  0.1440 -0.0955  0.1399
 9359TIP3    H149568   6.838   4.293   0.173 -0.5708  0.5532 -1.1165
 9359TIP3    H249569   6.692   4.278   0.133 -0.9616 -0.9842  0.8252
 9360TIP3   OH249570   5.163   2.012   2.002 -0.0518 -0.1379 -0.1687
 9360TIP3    H149571   5.122   1.990   1.918 -1.7921  0.2537  0.5533
 9360TIP3    H249572   5.164   1.929   2.051  0.1675 -0.1784 -0.2401
 9361TIP3   OH249573   1.992   2.407   3.733 -0.2333  0.6034 -0.3918
 9361TIP3    H149574   1.943   2.329   3.757 -0.2415  0.6338 -0.3074
 9361TIP3    H249575   2.067   2.408   3.793 -1.6748  2.1186  1.4762
 9362TIP3   OH249576   0.012   4.269   2.696  0.7564  0.6063 -0.7719
 9362TIP3    H149577   0.025   4.279   2.791 -1.2592  0.9173 -0.5113
 9362TIP3    H249578   0.059   4.189   2.674 -0.1544 -0.3745  0.7999
 9363TIP3   OH249579   6.714   5.674   6.092 -0.2795  0.6579 -0.2013
 9363TIP3    H149580   6.693   5.589   6.130  0.1571  0.3986 -0.5331
 9363TIP3    H249581   6.724   5.657   5.998 -0.6053  1.1520 -0.3263
 9364TIP3   OH249582   0.100   0.473   4.885 -0.0365 -0.3801 -0.1641
 9364TIP3    H149583   0.034   0.517   4.830 -0.3070 -1.1126 -0.4382
 9364TIP3    H249584   0.083   0.379   4.871  0.0336 -0.5682  1.0104
 9365TIP3   OH249585   4.049   0.394   3.566  0.6100 -0.0848  0.0957
 9365TIP3    H149586   4.046   0.428   3.655  0.7395  1.3888 -0.4395
 9365TIP3    H249587   4.033   0.300   3.575  0.0718  0.1386  1.6092
 9366TIP3   OH249588   4.693   2.982  12.772  0.4861  0.3628 -0.0826
 9366TIP3    H149589   4.757   3.009  12.838 -1.2049  1.8495  1.0094
 9366TIP3    H249590   4.730   2.903  12.732  3.4734  1.7902 -0.2194
 9367TIP3   OH249591   3.556   0.345  14.437  0.1885 -0.0050 -0.4746
 9367TIP3    H149592   3.610   0.335  14.516  1.4315 -1.2182 -1.4462
 9367TIP3    H249593   3.467   0.324  14.465 -0.2985  4.4417  1.7511
 9368TIP3   OH249594   6.137   2.375   4.280  0.0739 -0.9257  0.1813
 9368TIP3    H149595   6.194   2.410   4.348 -0.0456  0.1315 -0.2589
 9368TIP3    H249596   6.181   2.295   4.250  1.9600  0.4961 -0.9827
 9369TIP3   OH249597   2.041   0.487  11.822 -0.1393  0.3181  0.3415
 9369TIP3    H149598   2.070   0.400  11.851 -1.1999  0.0109  0.5346
 9369TIP3    H249599   1.947   0.487  11.841 -0.2593  1.2725 -0.2633
 9370TIP3   OH249600   0.890   0.541  13.901  0.8393 -0.1043 -0.4132
 9370TIP3    H149601   0.853   0.532  13.813  0.7002  1.2083 -0.4879
 9370TIP3    H249602   0.979   0.507  13.893  1.4388  1.6704 -1.4885
 9371TIP3   OH249603   3.201   4.062  15.397  0.3623  0.5511 -0.2338
 9371TIP3    H149604   3.218   4.062  15.302  0.6511  0.6558 -0.1845
 9371TIP3    H249605   3.173   3.973  15.416 -0.6973  0.8067 -0.5905
 9372TIP3   OH249606   2.534   0.151   3.636  0.4199  0.3164  0.7145
 9372TIP3    H149607   2.617   0.187   3.668  1.1754 -1.6615  1.0385
 9372TIP3    H249608   2.495   0.222   3.586  3.3069  0.6360 -1.2029
 9373TIP3   OH249609   2.734   1.978  13.937 -0.3383 -0.5245 -0.5486
 9373TIP3    H149610   2.820   1.935  13.943 -0.0228 -0.0319 -1.5541
 9373TIP3    H249611   2.719   2.013  14.025 -0.1632 -1.8582  0.0222
 9374TIP3   OH249612   4.210   3.588   1.359  0.4770 -0.1082 -0.7446
 9374TIP3    H149613   4.209   3.649   1.285  0.9966 -1.0268 -1.5380
 9374TIP3    H249614   4.280   3.619   1.416 -0.0157  0.6850 -0.5763
 9375TIP3   OH249615   2.062   0.596   5.296  0.2453 -0.2419  0.1685
 9375TIP3    H149616   2.086   0.518   5.346 -0.1441 -0.1009  0.5851
 9375TIP3    H249617   2.094   0.579   5.207 -0.3921 -1.1551  0.1016
 9376TIP3   OH249618   2.173   3.614   4.223  1.0546  0.6535  0.0716
 9376TIP3    H149619   2.181   3.526   4.187  0.0290  0.6340 -0.1197
 9376TIP3    H249620   2.102   3.655   4.172 -0.1965  0.7291  1.8292
 9377TIP3   OH249621   6.266   6.701  13.112 -0.0876  0.3804 -0.0823
 9377TIP3    H149622   6.278   6.777  13.169  0.8190 -0.6450  1.1150
 9377TIP3    H249623   6.180   6.714  13.072 -1.1040  0.7249  2.1381
 9378TIP3   OH249624   6.373   1.024  14.044 -0.6952 -0.3031 -0.4809
 9378TIP3    H149625   6.355   1.074  14.124  1.8088 -0.2027  0.0881
 9378TIP3    H249626   6.339   0.937  14.062 -0.4629 -0.1880  0.5834
 9379TIP3   OH249627   3.748   0.575   4.672 -0.1120  0.1114 -0.4019
 9379TIP3    H149628   3.742   0.668   4.693 -0.6696 -0.0563  0.1948
 9379TIP3    H249629   3.842   0.558   4.667 -0.0020  0.5643  0.1245
 9380TIP3   OH249630   2.500   6.439  16.982 -0.4226 -0.1619 -0.0900
 9380TIP3    H149631   2.444   6.376  17.027 -0.2264 -0.4022 -0.1848
 9380TIP3    H249632   2.508   6.405  16.893  1.0461 -0.8701  0.3086
 9381TIP3   OH249633   2.232   0.787   2.312 -0.5719 -0.3023  0.1283
 9381TIP3    H149634   2.167   0.841   2.357 -0.4860 -0.1880  0.1133
 9381TIP3    H249635   2.307   0.785   2.372 -0.1505  0.5087 -0.3656
 9382TIP3   OH249636   1.046   5.058   6.695  0.0023 -0.0525 -0.4777
 9382TIP3    H149637   0.984   5.040   6.624  0.2157  0.5090 -0.8067
 9382TIP3    H249638   1.057   4.973   6.740  0.3736 -0.5576 -1.5111
 9383TIP3   OH249639   2.521   2.644  11.965  0.2278  0.0709 -0.3434
 9383TIP3    H149640   2.575   2.681  11.895 -1.4946  0.5375 -1.4392
 9383TIP3    H249641   2.454   2.710  11.981 -1.3406 -1.4562 -0.5194
 9384TIP3   OH249642   4.957   0.833   6.267 -0.1751  0.4472  0.2024
 9384TIP3    H149643   4.901   0.893   6.217 -1.4177 -0.7523  0.1251
 9384TIP3    H249644   5.038   0.829   6.217 -0.3365  1.5390 -0.1543
 9385TIP3   OH249645   0.708   3.319   0.280 -0.5519 -0.2241  0.2293
 9385TIP3    H149646   0.756   3.394   0.315 -0.2848 -0.3969  0.2403
 9385TIP3    H249647   0.618   3.332   0.309 -0.1806 -0.8047  1.7031
 9386TIP3   OH249648   3.935   4.689   2.159 -0.0626  0.0615  0.2449
 9386TIP3    H149649   3.981   4.695   2.243  0.1740  1.7898  0.0155
 9386TIP3    H249650   3.849   4.728   2.176 -0.1482  0.0712 -0.2067
 9387TIP3   OH249651   6.505   2.625  13.577  0.4464 -0.0871 -0.1910
 9387TIP3    H149652   6.539   2.577  13.502  0.5700 -1.0918  0.4932
 9387TIP3    H249653   6.479   2.710  13.542  0.9733 -0.3662 -1.2663
 9388TIP3   OH249654   2.658   6.778   3.833 -0.0789 -0.3723  0.3517
 9388TIP3    H149655   2.621   6.748   3.750 -0.3513 -0.1121  0.3810
 9388TIP3    H249656   2.751   6.794   3.813 -0.6503  2.0881 -0.5371
 9389TIP3   OH249657   1.566   2.580   3.383 -0.4321 -0.3158 -0.1511
 9389TIP3    H149658   1.660   2.568   3.398 -0.2105  0.4708 -0.9270
 9389TIP3    H249659   1.531   2.603   3.469 -0.2922 -2.8836  0.6409
 9390TIP3   OH249660   0.364   3.181   6.506  0.0793 -0.3041  0.2484
 9390TIP3    H149661   0.377   3.275   6.500 -2.3768  0.0964  0.7530
 9390TIP3    H249662   0.442   3.143   6.465  2.1625  1.8850  2.0728
 9391TIP3   OH249663   6.284   4.380  14.624  0.0748  0.6102 -0.3491
 9391TIP3    H149664   6.196   4.364  14.589  0.3644 -0.4536 -0.6147
 9391TIP3    H249665   6.290   4.326  14.703  0.4907  0.6768 -0.3300
 9392TIP3   OH249666   1.831   5.132  11.571  0.2944 -0.3864 -0.0760
 9392TIP3    H149667   1.814   5.219  11.608  2.0032 -0.1163  0.1305
 9392TIP3    H249668   1.755   5.114  11.516 -0.9755  0.4073  1.3828
 9393TIP3   OH249669   1.785   5.921  17.055  0.1489  0.0407 -0.4010
 9393TIP3    H149670   1.694   5.915  17.027  0.1202 -0.2698 -0.2442
 9393TIP3    H249671   1.821   5.993  17.003 -0.8487  1.8327  1.3408
 9394TIP3   OH249672   1.017   6.534  14.466 -0.2057  0.0274 -0.0097
 9394TIP3    H149673   0.945   6.556  14.526 -0.6758  2.2352 -1.3176
 9394TIP3    H249674   0.977   6.479  14.399 -0.2636 -0.2288  0.2321
 9395TIP3   OH249675   6.526   3.818   3.212 -0.5180  0.2873 -0.2961
 9395TIP3    H149676   6.551   3.868   3.289  0.7944  0.8635 -1.0724
 9395TIP3    H249677   6.485   3.882   3.154  2.0680  0.7495 -1.7181
 9396TIP3   OH249678   6.652   6.554  13.597  0.1291  0.4167  0.3432
 9396TIP3    H149679   6.721   6.604  13.552  1.5820 -1.4674  0.3984
 9396TIP3    H249680   6.699   6.483  13.640 -1.8983 -1.0140  0.2405
 9397TIP3   OH249681   1.886   0.159   5.073 -0.6732  0.6296 -0.6450
 9397TIP3    H149682   1.822   0.121   5.133  0.0603  1.1731  0.4993
 9397TIP3    H249683   1.970   0.127   5.105 -0.3733 -0.3051 -2.2956
 9398TIP3   OH249684   5.410   5.730  11.592  0.0105  0.1364 -0.1576
 9398TIP3    H149685   5.457   5.675  11.529  2.5371  1.1917  0.7335
 9398TIP3    H249686   5.387   5.808  11.542  1.6879  0.8164  0.1116
 9399TIP3   OH249687   6.559   5.576  15.394 -0.7880 -0.4292  0.2144
 9399TIP3    H149688   6.566   5.488  15.429  0.5115  0.1532  1.4920
 9399TIP3    H249689   6.531   5.630  15.468  1.4217  0.7116  0.2638
 9400TIP3   OH249690   0.799   3.539  13.486 -0.2789 -0.0870  0.6362
 9400TIP3    H149691   0.749   3.599  13.540  1.7231 -0.2106  2.7010
 9400TIP3    H249692   0.884   3.582  13.474  0.7930 -1.9762  1.2303
 9401TIP3   OH249693   2.245   5.123   6.703 -0.5960  0.4347  0.0190
 9401TIP3    H149694   2.232   5.030   6.723 -1.7392  0.3097 -1.2679
 9401TIP3    H249695   2.157   5.158   6.694 -0.1740  1.7150  0.7017
 9402TIP3   OH249696   3.467   1.312  12.917 -0.6496 -0.1721 -0.0609
 9402TIP3    H149697   3.432   1.328  12.830  1.4100  0.2613 -0.8395
 9402TIP3    H249698   3.390   1.300  12.972 -2.0165  1.4626 -1.5723
 9403TIP3   OH249699   3.046   2.372  15.835  0.3104 -0.1943 -0.7806
 9403TIP3    H149700   3.137   2.387  15.809  0.0585  3.0126 -0.0134
 9403TIP3    H249701   3.032   2.279  15.820  3.7472 -0.7691 -0.8411
 9404TIP3   OH249702   4.155   3.505  12.679  0.1621 -0.6003 -0.1449
 9404TIP3    H149703   4.231   3.453  12.706  1.4382  0.6139 -1.3042
 9404TIP3    H249704   4.167   3.589  12.723 -0.9418 -0.6672  0.2982
 9405TIP3   OH249705   5.042   4.238   1.894  0.2556 -0.9401 -0.0564
 9405TIP3    H149706   5.103   4.273   1.959 -1.0051  0.8364  0.2135
 9405TIP3    H249707   5.094   4.175   1.844  2.2029  0.1859  0.4789
 9406TIP3   OH249708   5.872   5.317   1.863  0.1219  0.1373  0.2876
 9406TIP3    H149709   5.888   5.272   1.780 -0.7388  1.0368 -0.3755
 9406TIP3    H249710   5.776   5.318   1.871  0.1905  0.4235  1.0866
 9407TIP3   OH249711   3.986   3.119  16.093  0.2036 -0.5557 -0.3743
 9407TIP3    H149712   3.949   3.044  16.138 -0.9402  0.1915 -0.0563
 9407TIP3    H249713   3.915   3.183  16.089  1.3862  0.8254  0.0724
 9408TIP3   OH249714   1.211   2.203  12.431 -0.3247 -0.2423  0.3389
 9408TIP3    H149715   1.163   2.136  12.479 -0.5789  0.3954  0.9768
 9408TIP3    H249716   1.183   2.192  12.340 -0.8921 -0.5443  0.5513
 9409TIP3   OH249717   1.147   6.508  14.719  0.3655  0.8384  0.0132
 9409TIP3    H149718   1.128   6.538  14.630 -0.4986  1.0553  0.2654
 9409TIP3    H249719   1.242   6.515  14.727  0.3618  1.6059 -0.6093
 9410TIP3   OH249720   5.483   6.251   2.553 -0.2026  0.3966 -0.1247
 9410TIP3    H149721   5.561   6.299   2.524 -0.2331 -0.2687 -1.3710
 9410TIP3    H249722   5.411   6.291   2.506 -0.8169  1.7857  1.9173
 9411TIP3   OH249723   1.246   4.604  13.243  0.0584  0.2868 -0.3617
 9411TIP3    H149724   1.271   4.526  13.293 -0.1085 -0.2805 -1.1499
 9411TIP3    H249725   1.258   4.677  13.304 -0.4208 -0.4258  0.5894
 9412TIP3   OH249726   2.542   4.894   3.696 -0.0188  0.2387  0.0884
 9412TIP3    H149727   2.634   4.880   3.672 -0.6076 -2.1491 -0.9220
 9412TIP3    H249728   2.530   4.988   3.691  1.6275  0.3484 -2.6610
 9413TIP3   OH249729   2.142   1.093  12.396 -0.1759  0.2453 -0.4495
 9413TIP3    H149730   2.047   1.084  12.403 -0.1441  0.9896  1.2348
 9413TIP3    H249731   2.169   1.021  12.338 -1.7249 -0.1470 -0.6979
 9414TIP3   OH249732   6.353   2.184   2.440 -0.3982 -0.2510 -0.0134
 9414TIP3    H149733   6.432   2.177   2.493  0.2311  1.8207 -0.6255
 9414TIP3    H249734   6.281   2.173   2.502  0.3422  0.6787  1.0319
 9415TIP3   OH249735   2.349   0.120   4.273  0.3282 -0.0826 -0.6796
 9415TIP3    H149736   2.396   0.072   4.340 -0.1934 -1.0269 -0.9915
 9415TIP3    H249737   2.404   0.196   4.255  2.5363 -1.9884 -2.1775
 9416TIP3   OH249738   3.437   5.452  11.754  0.6060 -0.2025  0.1689
 9416TIP3    H149739   3.468   5.542  11.761  1.0503 -0.2849 -0.6853
 9416TIP3    H249740   3.358   5.450  11.807  1.0868  0.4596  0.9294
 9417TIP3   OH249741   4.759   6.803  16.376 -0.0833  0.4466 -0.2750
 9417TIP3    H149742   4.687   6.774  16.320  0.7154 -0.8282 -0.6500
 9417TIP3    H249743   4.719   6.814  16.463 -1.0398  1.1857 -0.8018
 9418TIP3   OH249744   4.041   2.799  12.579 -0.3528  0.2000  0.3584
 9418TIP3    H149745   4.027   2.874  12.521  0.5559  1.1694  1.3812
 9418TIP3    H249746   4.060   2.726  12.519 -0.4097  0.9668 -0.6061
 9419TIP3   OH249747   2.189   4.309  11.919  0.2917 -0.0834  0.3394
 9419TIP3    H149748   2.188   4.307  11.824 -0.0121 -1.4793  0.3695
 9419TIP3    H249749   2.221   4.397  11.941 -0.9111  0.7112 -1.0370
 9420TIP3   OH249750   5.178   0.614   5.067 -0.3921 -0.4712  0.5363
 9420TIP3    H149751   5.141   0.534   5.029 -1.6474  0.3510  0.0043
 9420TIP3    H249752   5.163   0.681   5.001  0.3475  0.2888  1.1312
 9421TIP3   OH249753   4.048   0.689  12.737 -0.1902  0.0487  0.1014
 9421TIP3    H149754   3.961   0.668  12.772  1.0980 -1.0253  2.8555
 9421TIP3    H249755   4.037   0.772  12.692 -2.5231  0.2391  0.9724
 9422TIP3   OH249756   3.953   3.299   0.914  0.1992 -0.4677 -0.4677
 9422TIP3    H149757   4.019   3.325   0.849 -0.4427  2.0116 -0.1679
 9422TIP3    H249758   3.973   3.353   0.991 -0.3350 -1.8885  0.6892
 9423TIP3   OH249759   2.475   0.310  15.524 -0.1989  0.7407  0.2157
 9423TIP3    H149760   2.419   0.232  15.515 -1.0750  1.2544  1.1981
 9423TIP3    H249761   2.561   0.275  15.546 -0.3789 -0.0021 -0.2446
 9424TIP3   OH249762   4.395   0.794  11.489  0.1595 -0.4809  0.0347
 9424TIP3    H149763   4.445   0.852  11.546 -0.5007  1.1469 -1.0181
 9424TIP3    H249764   4.314   0.777  11.538  0.3318 -0.4896  0.3236
 9425TIP3   OH249765   1.678   3.283   2.650  0.3552 -0.6391 -0.1150
 9425TIP3    H149766   1.710   3.195   2.670  2.4703  0.2094  0.4808
 9425TIP3    H249767   1.616   3.302   2.721  1.1990 -0.9990  0.7347
 9426TIP3   OH249768   0.412   1.975   2.282 -0.2064 -0.1666 -0.2976
 9426TIP3    H149769   0.337   2.019   2.242 -1.0290 -2.7206 -1.6956
 9426TIP3    H249770   0.486   1.999   2.227  0.1783  2.9566  1.5125
 9427TIP3   OH249771   0.244   6.128  11.753 -0.1398  0.1135 -0.0906
 9427TIP3    H149772   0.320   6.108  11.698  0.7547  1.8247  0.4709
 9427TIP3    H249773   0.176   6.156  11.691  0.1119 -0.1545 -0.4912
 9428TIP3   OH249774   0.110   0.807  11.626  0.0133 -0.0432  0.4127
 9428TIP3    H149775   0.033   0.802  11.682  0.0080  3.0869  0.7657
 9428TIP3    H249776   0.081   0.771  11.542 -1.6598  0.5221  0.7283
 9429TIP3   OH249777   2.040   2.554   1.815  0.6213 -0.1976  0.6652
 9429TIP3    H149778   2.039   2.544   1.720  1.2228  1.1287  0.5198
 9429TIP3    H249779   2.108   2.494   1.845 -0.0003 -1.0871  0.3182
 9430TIP3   OH249780   4.901   0.587   6.359 -0.0104 -0.0346  0.0399
 9430TIP3    H149781   4.927   0.678   6.345 -0.6992 -0.1441 -2.1945
 9430TIP3    H249782   4.935   0.565   6.446  0.2271  2.3188  0.5794
 9431TIP3   OH249783   4.852   3.542  11.438  0.1371 -0.1998 -0.1583
 9431TIP3    H149784   4.932   3.592  11.422  0.2383 -0.2006  0.3268
 9431TIP3    H249785   4.881   3.469  11.493 -0.8519  1.9896  3.4607
 9432TIP3   OH249786   4.190   3.913   3.265 -0.4592  0.2429  0.4663
 9432TIP3    H149787   4.200   3.906   3.360 -1.7810 -0.1248  0.5948
 9432TIP3    H249788   4.152   3.829   3.239  1.3997 -0.2802 -0.6141
 9433TIP3   OH249789   3.485   3.057   1.698  0.4589  0.3910  0.3817
 9433TIP3    H149790   3.404   3.107   1.710  0.4446  1.1530 -2.5932
 9433TIP3    H249791   3.456   2.966   1.689  0.0058  0.5481  0.2069
 9434TIP3   OH249792   5.277   0.324   4.732 -0.0188  0.5173  0.7753
 9434TIP3    H149793   5.213   0.371   4.679 -0.9015  0.5870  1.9014
 9434TIP3    H249794   5.307   0.387   4.797  0.9197  0.3734  0.4874
 9435TIP3   OH249795   1.039   4.225   6.715  0.2290 -0.0316 -0.1525
 9435TIP3    H149796   1.087   4.214   6.797  0.9151  0.0149 -0.5400
 9435TIP3    H249797   0.948   4.240   6.741  0.2050 -1.3842  0.5499
 9436TIP3   OH249798   3.547   0.473   2.655 -0.0225  0.2807 -0.3007
 9436TIP3    H149799   3.606   0.547   2.638  0.0520 -0.0120 -1.3728
 9436TIP3    H249800   3.588   0.399   2.609 -1.0369 -0.0073 -0.7622
 9437TIP3   OH249801   0.030   4.673   6.225 -0.1930  0.0676  0.5502
 9437TIP3    H149802   0.089   4.624   6.284  0.7393  0.4868 -0.0276
 9437TIP3    H249803   0.087   4.736   6.181 -0.9688  0.0581 -0.4833
 9438TIP3   OH249804   1.372   4.367  17.006  0.4765 -0.2038 -0.3143
 9438TIP3    H149805   1.428   4.290  17.019 -0.3210 -0.7330  0.0479
 9438TIP3    H249806   1.321   4.373  17.086  1.7283  1.7246  0.3748
 9439TIP3   OH249807   4.685   5.987  12.859 -0.1123  0.4694 -0.1330
 9439TIP3    H149808   4.712   5.895  12.857  0.8892  0.7647  0.0277
 9439TIP3    H249809   4.653   6.005  12.771  1.3699  0.4751 -0.6722
 9440TIP3   OH249810   0.346   1.367  13.346 -0.2057  0.4537 -0.5725
 9440TIP3    H149811   0.343   1.386  13.252  0.4734  0.5549 -0.5764
 9440TIP3    H249812   0.329   1.273  13.351 -0.3883  0.4738 -0.7885
 9441TIP3   OH249813   2.335   2.743   3.092 -0.1594 -0.2623  0.3456
 9441TIP3    H149814   2.422   2.772   3.119  0.0416 -1.6513  1.1881
 9441TIP3    H249815   2.342   2.648   3.087 -1.1667 -0.2718 -1.2122
 9442TIP3   OH249816   4.164   4.929  15.218 -0.6439  0.7981  0.3927
 9442TIP3    H149817   4.177   4.945  15.311 -0.8127 -1.9872  0.9615
 9442TIP3    H249818   4.222   4.854  15.199  0.2511  2.0494 -2.0020
 9443TIP3   OH249819   0.527   5.957  16.566 -0.0845  0.2929 -0.5863
 9443TIP3    H149820   0.538   5.932  16.475 -0.3121 -1.3661 -0.1877
 9443TIP3    H249821   0.482   5.881  16.606 -0.9787  1.4389  0.6445
 9444TIP3   OH249822   5.671   4.792   5.701  0.1976 -0.0897 -0.1607
 9444TIP3    H149823   5.582   4.807   5.669  0.1838 -0.3798 -0.2536
 9444TIP3    H249824   5.727   4.812   5.626  0.2047 -0.0302 -0.1400
 9445TIP3   OH249825   3.367   1.343  17.046  1.1615  0.2806 -0.2449
 9445TIP3    H149826   3.422   1.269  17.072  0.3262  0.2088  1.3908
 9445TIP3    H249827   3.345   1.386  17.129 -2.2978 -0.4490 -0.7117
 9446TIP3   OH249828   4.322   4.953  16.461 -0.2856  0.1057  0.4525
 9446TIP3    H149829   4.300   4.907  16.379  0.4786  3.5444 -1.7717
 9446TIP3    H249830   4.405   4.914  16.488 -1.9613 -3.1230  1.2892
 9447TIP3   OH249831   6.118   1.757  11.301 -0.1060  0.0032  0.2282
 9447TIP3    H149832   6.100   1.847  11.330  1.7667  0.3135  0.4989
 9447TIP3    H249833   6.032   1.715  11.298 -0.9493  1.6606  0.5845
 9448TIP3   OH249834   1.068   6.289   3.727  0.3328 -0.5235  0.4696
 9448TIP3    H149835   0.984   6.285   3.681  1.2982 -1.0914 -1.2974
 9448TIP3    H249836   1.129   6.242   3.670  2.4035  2.0179  0.4800
 9449TIP3   OH249837   5.097   1.079   2.501  0.5505 -0.7199  0.1157
 9449TIP3    H149838   5.140   1.093   2.585  0.2989 -2.2725  0.5025
 9449TIP3    H249839   5.169   1.070   2.438  0.8186 -2.9952  0.7124
 9450TIP3   OH249840   0.284   6.053  14.832 -0.4645 -0.0634  0.3844
 9450TIP3    H149841   0.353   6.013  14.884  0.0792 -0.8333 -0.9027
 9450TIP3    H249842   0.230   6.101  14.895  1.2030  0.4855  1.3984
 9451TIP3   OH249843   1.795   1.306  13.157 -0.1358 -0.2073  0.3100
 9451TIP3    H149844   1.810   1.400  13.148 -0.0107 -0.0155  2.2289
 9451TIP3    H249845   1.782   1.275  13.068  0.3484  1.5422 -0.3927
 9452TIP3   OH249846   0.755   4.435   1.482 -0.2087  0.3159  0.1547
 9452TIP3    H149847   0.684   4.492   1.455  0.8377  0.9736 -1.2616
 9452TIP3    H249848   0.758   4.444   1.577 -2.1186  0.1356  0.2437
 9453TIP3   OH249849   5.831   3.788   4.449  0.0791 -0.0246  0.4882
 9453TIP3    H149850   5.921   3.769   4.422 -0.4008 -0.6508 -0.6845
 9453TIP3    H249851   5.819   3.735   4.528  0.6730 -0.1039  0.5317
 9454TIP3   OH249852   6.672   4.051   6.973  0.2361  0.3782  0.0110
 9454TIP3    H149853   6.766   4.061   6.964  0.0850  2.2896  0.1796
 9454TIP3    H249854   6.638   4.057   6.883  0.2753 -0.1493 -0.0351
 9455TIP3   OH249855   1.637   0.506  11.382 -0.7223 -0.6658 -0.1478
 9455TIP3    H149856   1.638   0.601  11.385 -1.7943 -0.6001 -1.3871
 9455TIP3    H249857   1.572   0.480  11.448  2.0125 -0.7025  2.6261
 9456TIP3   OH249858   2.950   4.227  12.816  0.1397  0.0281 -0.2111
 9456TIP3    H149859   2.956   4.161  12.746  1.5245  1.7254 -1.7313
 9456TIP3    H249860   2.964   4.177  12.896  1.9468 -1.4476 -1.3771
 9457TIP3   OH249861   2.296   4.595   0.567  0.4285 -0.5078 -0.0510
 9457TIP3    H149862   2.268   4.505   0.548 -1.7644  0.3844 -1.1995
 9457TIP3    H249863   2.231   4.627   0.630  1.1330  0.3277  0.2627
 9458TIP3   OH249864   4.069   0.045   5.762 -0.9782  0.2071  0.0037
 9458TIP3    H149865   4.079  -0.050   5.760 -2.3399 -0.0379  2.5075
 9458TIP3    H249866   4.075   0.068   5.854  0.9847  2.7935 -0.7061
 9459TIP3   OH249867   4.065   5.285  15.848  0.1918  0.2894 -0.6386
 9459TIP3    H149868   4.000   5.286  15.778  1.4897  0.8333 -1.8608
 9459TIP3    H249869   4.057   5.370  15.890 -0.3671  0.0860 -0.3297
 9460TIP3   OH249870   4.920   3.197   1.077 -0.0950  0.0407  0.2383
 9460TIP3    H149871   4.896   3.189   1.170 -0.4856  1.3935  0.2746
 9460TIP3    H249872   4.865   3.268   1.045  0.4576 -0.0353 -0.8914
 9461TIP3   OH249873   1.896   2.144  11.577  0.1293 -0.6099  0.8746
 9461TIP3    H149874   1.972   2.097  11.610  2.2478  2.2516  0.2769
 9461TIP3    H249875   1.912   2.154  11.483 -2.6734 -2.9389  0.0784
 9462TIP3   OH249876   5.448   0.512  15.026  0.0971  0.3895  0.0843
 9462TIP3    H149877   5.390   0.547  14.958 -1.5782 -0.2646  1.1609
 9462TIP3    H249878   5.509   0.584  15.043 -1.5348  1.7847  0.2389
 9463TIP3   OH249879   5.881   4.654  11.324 -0.4347  0.4532  0.8641
 9463TIP3    H149880   5.869   4.585  11.258  1.5500  1.4868 -0.6185
 9463TIP3    H249881   5.793   4.692  11.335 -1.0665 -0.7027 -0.0888
 9464TIP3   OH249882   5.055   0.225  13.920  0.1669 -0.6067  0.1868
 9464TIP3    H149883   5.128   0.178  13.960  1.8857  1.6508 -0.1707
 9464TIP3    H249884   5.023   0.166  13.851  2.1822 -1.3015 -0.1827
 9465TIP3   OH249885   0.221   5.241  11.937  0.7017 -0.3466  0.0399
 9465TIP3    H149886   0.226   5.316  11.997  1.6086 -0.6721  0.3675
 9465TIP3    H249887   0.137   5.200  11.957  1.0802 -0.5549  1.1946
 9466TIP3   OH249888   0.080   1.101   2.547 -0.5444 -0.2663 -0.4894
 9466TIP3    H149889   0.076   1.104   2.451 -0.2124 -0.3177 -0.5054
 9466TIP3    H249890   0.024   1.027   2.571 -0.5903 -0.2822 -0.6467
 9467TIP3   OH249891   4.531   5.329  10.926  0.4888 -0.2557 -0.1430
 9467TIP3    H149892   4.492   5.288  10.849 -0.0307 -0.0231 -0.0070
 9467TIP3    H249893   4.622   5.345  10.902  0.0607  0.7811 -1.0910
 9468TIP3   OH249894   1.440   1.919  16.542 -0.0451 -0.2987 -0.4237
 9468TIP3    H149895   1.523   1.930  16.588 -0.4126  1.2187 -0.1010
 9468TIP3    H249896   1.461   1.937  16.450  0.0007  0.0017 -0.3526
 9469TIP3   OH249897   6.013   4.236   5.235 -0.1519  0.2416 -0.3868
 9469TIP3    H149898   6.000   4.322   5.195  0.4742 -1.0048 -3.3455
 9469TIP3    H249899   5.928   4.212   5.270 -0.3020  2.1048  0.5741
 9470TIP3   OH249900   5.718   1.970   3.267  0.0078 -0.3383  0.4883
 9470TIP3    H149901   5.642   1.940   3.318 -1.0157  1.6555  0.2191
 9470TIP3    H249902   5.774   1.894   3.260 -1.0661 -1.3574  2.3837
 9471TIP3   OH249903   1.358   0.324   1.297 -0.2286 -0.0876  0.0502
 9471TIP3    H149904   1.323   0.259   1.235 -1.0636  1.0042 -0.6501
 9471TIP3    H249905   1.372   0.402   1.243 -1.1190  0.9247  1.2730
 9472TIP3   OH249906   3.023   0.162  15.566 -0.5484  0.4261 -0.4333
 9472TIP3    H149907   2.952   0.101  15.546 -0.9970  1.0169 -0.6458
 9472TIP3    H249908   2.980   0.245  15.583  0.0390  0.6133  0.1771
 9473TIP3   OH249909   1.629   3.635   0.690 -0.1128  0.4626  0.4233
 9473TIP3    H149910   1.648   3.671   0.603 -2.7084  0.0941 -0.3264
 9473TIP3    H249911   1.613   3.712   0.745  0.6280  0.6595  0.3734
 9474TIP3   OH249912   6.293   2.752   4.939  0.0480  0.2435  0.5951
 9474TIP3    H149913   6.233   2.823   4.961  0.7192  0.7836  0.6839
 9474TIP3    H249914   6.315   2.767   4.847  0.4067  0.2990  0.6919
 9475TIP3   OH249915   2.558   6.722   3.589  0.3070 -0.3419  0.1645
 9475TIP3    H149916   2.546   6.814   3.611 -0.6546 -0.3984 -0.1187
 9475TIP3    H249917   2.580   6.723   3.495  0.0999 -0.4201  0.1162
 9476TIP3   OH249918   5.649   1.838   0.502 -0.4979  0.3035 -0.5668
 9476TIP3    H149919   5.644   1.894   0.579  0.4491 -1.7401  1.0449
 9476TIP3    H249920   5.559   1.810   0.486 -0.5031 -0.5004  0.7825
 9477TIP3   OH249921   5.725   2.648  12.645  0.5079  0.3155 -0.2428
 9477TIP3    H149922   5.778   2.715  12.688 -0.2373  1.1712 -0.6359
 9477TIP3    H249923   5.650   2.696  12.610  1.7093 -0.1234 -3.6074
 9478TIP3   OH249924   0.390   5.713  15.188 -0.6596 -0.2061 -0.3124
 9478TIP3    H149925   0.319   5.773  15.163  0.5461  0.9002 -1.1476
 9478TIP3    H249926   0.453   5.769  15.233 -0.5799 -1.2972  0.9599
 9479TIP3   OH249927   3.521   2.107   0.980  0.3155 -0.1193  0.0492
 9479TIP3    H149928   3.574   2.182   0.956 -3.1882  2.4999  0.0032
 9479TIP3    H249929   3.514   2.111   1.075  2.3126 -2.0248  0.3157
 9480TIP3   OH249930   1.863   5.510  12.835  0.2393  0.0499  1.3108
 9480TIP3    H149931   1.797   5.572  12.804 -1.3799 -1.2073  2.2047
 9480TIP3    H249932   1.854   5.509  12.930  2.8141  1.2303  1.6223
 9481TIP3   OH249933   2.361   3.247   1.036 -0.0332 -0.4671 -0.2074
 9481TIP3    H149934   2.281   3.255   0.984  0.3621  0.2658 -0.7206
 9481TIP3    H249935   2.428   3.218   0.973  0.0478 -1.3192  0.2702
 9482TIP3   OH249936   5.533   6.645   3.633 -0.2505 -0.2115 -0.9946
 9482TIP3    H149937   5.463   6.659   3.570 -0.5946  0.4487 -0.4742
 9482TIP3    H249938   5.611   6.628   3.580 -0.5183  0.4121 -1.5923
 9483TIP3   OH249939   6.626   1.194  10.584  0.5797  0.0394 -0.0589
 9483TIP3    H149940   6.604   1.283  10.557  0.7649  0.2518  0.4962
 9483TIP3    H249941   6.661   1.153  10.505 -0.4789  0.1361 -0.5825
 9484TIP3   OH249942   4.552   4.254  12.462 -0.4135 -0.3236 -0.3601
 9484TIP3    H149943   4.630   4.277  12.512 -0.9127  1.9957 -0.6305
 9484TIP3    H249944   4.479   4.277  12.520 -1.0029  2.5274 -2.1734
 9485TIP3   OH249945   0.404   3.941  12.991  0.0700 -0.0015 -0.2555
 9485TIP3    H149946   0.378   4.032  12.976 -0.4133 -0.0747  0.1181
 9485TIP3    H249947   0.494   3.936  12.958 -0.7647 -0.0392 -2.6165
 9486TIP3   OH249948   1.684   3.743   5.923  0.0408 -0.0931 -0.4538
 9486TIP3    H149949   1.726   3.817   5.881 -1.7516  1.1100 -0.1646
 9486TIP3    H249950   1.750   3.709   5.983  0.8365  1.3441 -0.5035
 9487TIP3   OH249951   0.443   6.572   6.048  0.1015 -0.2019 -0.0775
 9487TIP3    H149952   0.406   6.624   5.977 -1.1921 -0.2940  0.5201
 9487TIP3    H249953   0.379   6.577   6.118  2.7604  2.4753  2.3009
 9488TIP3   OH249954   4.411   0.525   1.896 -0.0870 -0.2580  0.1603
 9488TIP3    H149955   4.478   0.461   1.873  1.2141  1.2999 -0.4354
 9488TIP3    H249956   4.438   0.559   1.982  0.8922  1.6521 -0.8687
 9489TIP3   OH249957   0.343   3.005   4.982  0.0935 -0.2020 -0.4336
 9489TIP3    H149958   0.436   2.996   4.960 -0.3398 -1.1242 -1.9579
 9489TIP3    H249959   0.337   3.091   5.024  1.8858 -0.7996  1.1232
 9490TIP3   OH249960   5.226   6.705   1.976 -0.1984  0.2119 -1.0234
 9490TIP3    H149961   5.275   6.674   1.900 -1.1002 -0.9422 -1.1576
 9490TIP3    H249962   5.171   6.630   2.001 -0.6388  0.9095  0.1558
 9491TIP3   OH249963   0.774   2.389  12.462  0.6238  0.5373 -0.0243
 9491TIP3    H149964   0.735   2.462  12.414 -1.6120  0.1116  1.0943
 9491TIP3    H249965   0.783   2.319  12.398 -0.1593  0.7485 -0.3619
 9492TIP3   OH249966   2.293   5.993  13.473  0.0714 -0.3990 -0.1212
 9492TIP3    H149967   2.227   6.045  13.428 -1.3483 -0.6714  1.5977
 9492TIP3    H249968   2.340   6.056  13.528  0.0431 -0.5077  0.0293
 9493TIP3   OH249969   2.145   3.114  11.099 -0.7325  0.4061 -0.4083
 9493TIP3    H149970   2.234   3.080  11.106 -0.9232 -0.3928 -1.6472
 9493TIP3    H249971   2.091   3.050  11.144 -0.7351  0.6601 -0.0497
 9494TIP3   OH249972   5.802   3.964  16.694 -0.5134 -0.4203 -0.9712
 9494TIP3    H149973   5.839   4.037  16.644  1.7945 -0.7799  0.1752
 9494TIP3    H249974   5.874   3.932  16.748 -2.2541 -1.7314  0.6657
 9495TIP3   OH249975   5.492   2.138  11.997  0.1453  0.4195 -0.2906
 9495TIP3    H149976   5.531   2.107  12.079 -0.2803 -0.7211 -0.5171
 9495TIP3    H249977   5.564   2.182  11.952  0.6102  0.2657  0.2923
 9496TIP3   OH249978   4.919   6.165  12.865  1.1727 -0.0019 -0.3332
 9496TIP3    H149979   4.855   6.100  12.839  2.1003 -1.2592  0.4283
 9496TIP3    H249980   4.999   6.114  12.882  1.4315  1.0850  1.9624
 9497TIP3   OH249981   4.396   4.964  12.519 -0.5387 -0.1458 -0.5310
 9497TIP3    H149982   4.470   4.969  12.580 -0.8255  0.3750 -0.2235
 9497TIP3    H249983   4.341   5.039  12.541 -1.6955 -1.1137 -0.0796
 9498TIP3   OH249984   5.270   1.150   4.911  0.1340  0.0367  0.0327
 9498TIP3    H149985   5.260   1.111   4.825 -0.1367 -0.0029  0.0846
 9498TIP3    H249986   5.265   1.077   4.972 -4.5135  0.5833  0.4367
 9499TIP3   OH249987   2.310   5.011   1.694  0.4497  0.4557 -0.6759
 9499TIP3    H149988   2.352   5.059   1.622 -0.1055 -0.3037 -1.5255
 9499TIP3    H249989   2.229   5.059   1.710  0.5643  0.6143 -0.5725
 9500TIP3   OH249990   0.074   1.395  15.505 -0.4104 -0.1021  0.5984
 9500TIP3    H149991  -0.009   1.439  15.521  0.9624  1.7729  3.0017
 9500TIP3    H249992   0.079   1.328  15.573 -0.1614 -0.5217  0.1683
 9501TIP3   OH249993   2.877   1.461   0.074 -0.2997  0.1512  0.0491
 9501TIP3    H149994   2.810   1.442   0.140  1.7832 -2.2546  1.5825
 9501TIP3    H249995   2.836   1.437  -0.009 -1.1075 -2.0302  1.0379
 9502TIP3   OH249996   1.413   4.810   2.948 -0.0062 -0.4200  0.0659
 9502TIP3    H149997   1.469   4.816   2.871 -2.6742  0.7636 -1.8436
 9502TIP3    H249998   1.439   4.886   3.002  0.7461 -0.3288 -0.4166
 9503TIP3   OH249999   3.940   5.477   6.031  0.1223 -0.1374 -0.1901
 9503TIP3    H150000   3.975   5.560   6.064 -0.4525 -0.2903  0.8101
 9503TIP3    H250001   3.858   5.465   6.079 -0.0287 -1.0561 -0.6766
 9504TIP3   OH250002   4.905   2.524  15.518  0.3838 -0.4409  0.1986
 9504TIP3    H150003   4.889   2.596  15.457 -1.1937 -2.3457 -1.7265
 9504TIP3    H250004   4.858   2.549  15.597  1.6960  1.6478  0.3604
 9505TIP3   OH250005   4.660   5.018  13.533  0.2111  0.4036  0.0936
 9505TIP3    H150006   4.690   5.066  13.611 -1.4211  0.4054  0.7443
 9505TIP3    H250007   4.642   4.930  13.564 -2.0560  0.8390  0.1178
 9506TIP3   OH250008   2.349   4.205   0.087 -0.0290 -0.2475  0.2548
 9506TIP3    H150009   2.418   4.246   0.035  1.4145 -0.7819  1.6930
 9506TIP3    H250010   2.394   4.173   0.165 -2.6803  3.6097  3.5757
 9507TIP3   OH250011   4.917   1.656   5.694  0.1598  0.6485  0.4380
 9507TIP3    H150012   4.980   1.697   5.635  1.8117 -1.4888  0.6737
 9507TIP3    H250013   4.842   1.716   5.694  1.8177  2.7692 -0.5289
 9508TIP3   OH250014   5.320   6.605   1.747  0.7499 -0.6649 -0.0178
 9508TIP3    H150015   5.365   6.618   1.663  1.6103 -0.1076  0.5264
 9508TIP3    H250016   5.295   6.513   1.746  1.2426 -0.8001 -0.6595
 9509TIP3   OH250017   6.314   0.873   4.885 -0.5301 -0.0911 -0.3771
 9509TIP3    H150018   6.253   0.935   4.925  0.8072  0.4493  0.8455
 9509TIP3    H250019   6.304   0.887   4.790 -1.9163  0.3487 -0.1762
 9510TIP3   OH250020   2.990   2.274   3.504  0.5431  0.3090 -0.2541
 9510TIP3    H150021   3.066   2.215   3.498  0.6299  0.3150  0.6870
 9510TIP3    H250022   2.920   2.228   3.460  1.0675  0.2473 -1.0263
 9511TIP3   OH250023   2.104   1.508  14.029  1.1897  0.0705 -0.2607
 9511TIP3    H150024   2.133   1.449  13.959  0.3987 -1.6048  0.7697
 9511TIP3    H250025   2.172   1.501  14.096  1.4600  0.9059 -0.4489
 9512TIP3   OH250026   2.103   6.701   3.003 -0.1217 -0.1649  0.4000
 9512TIP3    H150027   2.105   6.784   3.050 -2.6886  0.0453  0.2304
 9512TIP3    H250028   2.035   6.650   3.048  0.3754 -1.5825 -0.4209
 9513TIP3   OH250029   1.969   3.044   3.170  0.4153  0.3598 -0.2944
 9513TIP3    H150030   1.967   3.087   3.256 -0.2625  0.3118 -0.2835
 9513TIP3    H250031   1.954   3.115   3.108 -0.6722  0.1571 -0.2794
 9514TIP3   OH250032   5.170   4.480  12.928  0.1578 -0.0730 -0.4847
 9514TIP3    H150033   5.143   4.572  12.923  0.1795 -0.0454 -0.0933
 9514TIP3    H250034   5.239   4.472  12.863  1.1347  0.5212  0.4671
 9515TIP3   OH250035   5.800   5.670  12.990  0.8496  0.1043  0.3643
 9515TIP3    H150036   5.727   5.677  12.929  0.3320 -0.3058  0.9225
 9515TIP3    H250037   5.759   5.657  13.075  1.5762 -0.7917  0.6004
 9516TIP3   OH250038   1.609   2.857   2.414  0.0334 -0.0341  0.1841
 9516TIP3    H150039   1.530   2.833   2.463 -0.4911  0.8193 -0.2486
 9516TIP3    H250040   1.579   2.869   2.324  0.8346 -0.6722 -0.1703
 9517TIP3   OH250041   5.467   5.773  15.519  0.0559 -0.0403 -0.5209
 9517TIP3    H150042   5.560   5.753  15.533  0.1273  0.9625  0.5261
 9517TIP3    H250043   5.425   5.742  15.599 -0.3755  0.4266 -0.5721
 9518TIP3   OH250044   3.846   2.920   0.600 -0.2263  0.1068  0.3757
 9518TIP3    H150045   3.856   2.995   0.659 -2.1111 -0.6468  1.7142
 9518TIP3    H250046   3.782   2.864   0.644  1.2650 -2.3829 -0.5035
 9519TIP3   OH250047   2.919   5.497  12.549  0.2222 -0.2930  0.4008
 9519TIP3    H150048   2.831   5.500  12.587 -0.7409 -1.8510 -1.5948
 9519TIP3    H250049   2.938   5.404  12.541  0.1003 -0.0670 -3.4800
 9520TIP3   OH250050   2.026   6.178  12.193  0.7576 -0.4587 -0.1310
 9520TIP3    H150051   2.014   6.189  12.099 -0.7219  0.4119  0.1467
 9520TIP3    H250052   1.962   6.237  12.233  1.0740 -1.1310  1.4198
 9521TIP3   OH250053   2.280   1.149   1.405 -0.6388 -0.1604 -0.3571
 9521TIP3    H150054   2.224   1.182   1.475 -1.1021  1.3833 -1.4233
 9521TIP3    H250055   2.321   1.227   1.368  0.5529 -1.0757 -1.0019
 9522TIP3   OH250056   4.947   0.142   2.878  0.2087 -0.2703  0.1008
 9522TIP3    H150057   5.026   0.142   2.931  0.9214  0.6742 -0.9607
 9522TIP3    H250058   4.962   0.208   2.810 -1.6618  0.2727  0.1610
 9523TIP3   OH250059   0.099   5.703  11.142  0.3600 -0.3517  0.2529
 9523TIP3    H150060   0.024   5.661  11.185  0.9063 -0.6035  0.9711
 9523TIP3    H250061   0.169   5.639  11.148  1.0194  0.4089  0.7881
 9524TIP3   OH250062   4.179   4.117  15.224  0.1720 -0.6808 -0.1319
 9524TIP3    H150063   4.086   4.138  15.226 -0.0599 -1.6758 -0.0300
 9524TIP3    H250064   4.211   4.155  15.142  0.1436  1.4945  0.8314
 9525TIP3   OH250065   5.426   4.972   3.355  0.3891  0.6298 -0.6490
 9525TIP3    H150066   5.436   4.878   3.370  1.2385  1.1183  2.1073
 9525TIP3    H250067   5.514   5.007   3.361 -0.0359  1.7173 -0.7236
 9526TIP3   OH250068   1.096   5.626   3.606  0.2302  0.0881  0.1850
 9526TIP3    H150069   1.165   5.590   3.661  1.2229  3.2095  1.0843
 9526TIP3    H250070   1.028   5.654   3.667  0.5453  1.9202 -0.2516
 9527TIP3   OH250071   6.158   4.241   4.534 -0.6000 -0.0124 -0.4151
 9527TIP3    H150072   6.125   4.161   4.574  1.3151 -0.1563  0.9527
 9527TIP3    H250073   6.092   4.307   4.554 -1.2663 -0.8213  0.0846
 9528TIP3   OH250074   4.312   6.095  14.641  0.1782  0.1329 -0.7674
 9528TIP3    H150075   4.243   6.030  14.654  1.2581 -0.4905  2.2187
 9528TIP3    H250076   4.348   6.074  14.554 -1.9809 -0.8295 -1.4725
 9529TIP3   OH250077   5.293   0.780  11.752  0.0459 -0.0533  0.1361
 9529TIP3    H150078   5.227   0.848  11.767  0.2557  0.3860 -0.9220
 9529TIP3    H250079   5.262   0.734  11.674  0.3177 -0.6786  0.3973
 9530TIP3   OH250080   6.365   5.662  14.539  0.5317 -0.0292 -0.1698
 9530TIP3    H150081   6.296   5.726  14.525  1.0606  0.7950  0.9309
 9530TIP3    H250082   6.339   5.587  14.485 -1.1808  0.2820  0.1856
 9531TIP3   OH250083   5.931   6.370   3.258  0.4351  0.1440  0.1501
 9531TIP3    H150084   5.884   6.380   3.176 -0.5845 -0.8969  0.5884
 9531TIP3    H250085   6.020   6.400   3.239 -0.3529  1.9582 -0.7352
 9532TIP3   OH250086   1.736   3.633   2.584  0.6364  0.4025 -0.8897
 9532TIP3    H150087   1.700   3.570   2.646  0.2394  0.5335 -0.9791
 9532TIP3    H250088   1.659   3.667   2.538  0.9726 -0.1317 -1.8694
 9533TIP3   OH250089   4.437   5.752  12.980 -0.4220  0.2169  0.1743
 9533TIP3    H150090   4.396   5.814  13.040 -0.0262 -0.3207  1.0051
 9533TIP3    H250091   4.529   5.777  12.977 -0.3719  0.0238  0.0573
 9534TIP3   OH250092   2.475   5.846  12.529  0.2617 -0.2888 -0.4570
 9534TIP3    H150093   2.466   5.864  12.623  0.7428  1.4189 -0.7215
 9534TIP3    H250094   2.569   5.846  12.513  0.1566  0.2984 -1.1009
 9535TIP3   OH250095   2.633   0.764   2.817 -0.8464 -0.1258 -0.4538
 9535TIP3    H150096   2.642   0.789   2.725  0.9933 -0.4545 -0.3772
 9535TIP3    H250097   2.555   0.708   2.819 -0.1567 -1.1664 -2.0281
 9536TIP3   OH250098   3.246   5.785   0.461 -0.1576  0.3502 -0.1555
 9536TIP3    H150099   3.325   5.762   0.509 -0.0675 -1.4117 -1.1172
 9536TIP3    H250100   3.209   5.701   0.435 -2.9223  1.0971  1.1719
 9537TIP3   OH250101   3.848   6.011   1.591 -0.3695  0.2106 -0.5449
 9537TIP3    H150102   3.906   5.945   1.628  0.3338  0.6706 -0.8270
 9537TIP3    H250103   3.808   5.969   1.515  0.2232  0.1749 -0.8338
 9538TIP3   OH250104   0.046   2.161   3.764  0.4981  0.5117 -0.2114
 9538TIP3    H150105  -0.031   2.195   3.717  0.3179 -0.3929 -0.5852
 9538TIP3    H250106   0.029   2.068   3.773  0.6602  0.6269  1.4435
 9539TIP3   OH250107   0.201   5.357  15.082 -0.2049  0.6714  0.5380
 9539TIP3    H150108   0.129   5.384  15.138 -0.4506  0.6187  0.2474
 9539TIP3    H250109   0.280   5.374  15.134 -0.5036 -1.0091  1.5741
 9540TIP3   OH250110   4.246   2.400   3.516  0.2337 -0.3796  0.2035
 9540TIP3    H150111   4.287   2.408   3.430 -0.8664  0.5845 -0.2472
 9540TIP3    H250112   4.204   2.314   3.514  2.7663 -1.6840  0.9327
 9541TIP3   OH250113   2.056   6.287   2.395  0.2639  0.2005  0.5014
 9541TIP3    H150114   1.981   6.319   2.446  0.4184  0.9620  0.2598
 9541TIP3    H250115   2.119   6.257   2.460  0.9146  2.1779  0.8200
 9542TIP3   OH250116   1.558   0.455  15.037  0.1346 -0.2401 -0.4007
 9542TIP3    H150117   1.653   0.462  15.049  0.1412  0.6723 -0.9129
 9542TIP3    H250118   1.546   0.372  14.990  0.5070 -1.3131  1.3747
 9543TIP3   OH250119   2.924   1.994   3.060  0.2021 -0.3265 -0.0144
 9543TIP3    H150120   2.977   1.928   3.014  0.0967 -0.0162 -0.5932
 9543TIP3    H250121   2.869   1.944   3.120 -0.8539 -0.8842 -1.4260
 9544TIP3   OH250122   0.320   0.176  11.614  0.2097  0.0896  0.1765
 9544TIP3    H150123   0.386   0.223  11.562  1.4734 -1.8035  0.0493
 9544TIP3    H250124   0.359   0.169  11.701 -0.9431  1.2452  0.8000
 9545TIP3   OH250125   5.643   4.905  12.676  0.6347 -0.2328 -0.6884
 9545TIP3    H150126   5.698   4.863  12.742 -0.9503 -0.0521  0.8058
 9545TIP3    H250127   5.565   4.850  12.671  0.3465  0.2573 -1.7467
 9546TIP3   OH250128   6.389   2.176   5.092  0.3112 -0.9044 -0.7446
 9546TIP3    H150129   6.336   2.195   5.170  0.7948 -0.7625 -0.4503
 9546TIP3    H250130   6.421   2.087   5.105  1.0609 -0.5898 -0.3928
 9547TIP3   OH250131   0.901   0.132  12.021  0.6492 -0.3208  0.4100
 9547TIP3    H150132   0.840   0.129  12.095 -0.0851 -0.0224 -0.1714
 9547TIP3    H250133   0.977   0.081  12.050  0.1052 -0.7362  1.1287
 9548TIP3   OH250134   3.421   0.758  13.668 -0.1019  0.3779 -0.0038
 9548TIP3    H150135   3.344   0.816  13.667  0.0704  0.5910 -0.8655
 9548TIP3    H250136   3.448   0.751  13.577  0.3985 -0.3858  0.1957
 9549TIP3   OH250137   2.939   1.774  13.222 -0.2081  0.2334 -0.0017
 9549TIP3    H150138   2.874   1.810  13.161 -1.7897  0.3943  1.7441
 9549TIP3    H250139   3.020   1.820  13.200 -0.2594 -1.0381 -3.2181
 9550TIP3   OH250140   5.984   1.599   4.188  0.1994  0.2435  0.2350
 9550TIP3    H150141   5.927   1.587   4.113  0.0395 -0.7414  0.5077
 9550TIP3    H250142   5.949   1.676   4.233  1.2220  1.7898 -1.5278
 9551TIP3   OH250143   1.429   1.016  15.799 -0.2582 -1.0636 -0.0660
 9551TIP3    H150144   1.478   0.963  15.860 -0.4928 -1.8624 -0.5638
 9551TIP3    H250145   1.337   1.004  15.824 -0.2314  0.2436  0.7184
 9552TIP3   OH250146   3.589   1.115  13.115  0.0757  0.6254 -0.0658
 9552TIP3    H150147   3.684   1.102  13.114  0.0395  0.3932 -0.6087
 9552TIP3    H250148   3.568   1.147  13.027 -0.6589 -1.6053 -0.7331
 9553TIP3   OH250149   6.150   4.201   2.297  0.1924 -0.5547  0.1292
 9553TIP3    H150150   6.158   4.149   2.217  0.6151 -1.4082  0.7047
 9553TIP3    H250151   6.198   4.281   2.279  0.5460 -0.8757 -0.3722
 9554TIP3   OH250152   5.465   0.086   6.007  0.7149 -0.3840 -0.5032
 9554TIP3    H150153   5.556   0.083   6.038 -0.1019 -0.3829  1.9828
 9554TIP3    H250154   5.421   0.017   6.056 -0.9579  0.6318 -0.5583
 9555TIP3   OH250155   2.481   0.063  16.379  0.2190 -0.4515  0.6260
 9555TIP3    H150156   2.496  -0.027  16.350 -2.4210 -0.1507 -1.9783
 9555TIP3    H250157   2.554   0.112  16.342  1.2204 -1.3952  1.3390
 9556TIP3   OH250158   4.171   6.606  14.310 -0.4485  0.5542 -0.2094
 9556TIP3    H150159   4.107   6.570  14.372  1.2713 -3.3626 -0.5791
 9556TIP3    H250160   4.239   6.645  14.365  0.0781 -1.1340  0.3580
 9557TIP3   OH250161   3.597   6.479   4.131 -0.0905  0.0837  0.5227
 9557TIP3    H150162   3.530   6.514   4.190  0.6690  0.0858  1.3923
 9557TIP3    H250163   3.619   6.393   4.167 -0.5421 -0.4663 -0.4949
 9558TIP3   OH250164   5.912   1.739   5.758 -0.3426  0.0949 -0.9360
 9558TIP3    H150165   5.829   1.718   5.800 -0.7878 -0.5183 -2.1138
 9558TIP3    H250166   5.888   1.779   5.675  0.5216  2.9003  0.0899
 9559TIP3   OH250167   4.843   3.612   5.435 -0.4574  0.4941 -0.0015
 9559TIP3    H150168   4.755   3.583   5.460 -0.8779  0.5158 -1.3882
 9559TIP3    H250169   4.879   3.539   5.386  0.4825  0.3132  0.9468
 9560TIP3   OH250170   1.144   2.270  14.103 -0.1191  0.1441 -0.0398
 9560TIP3    H150171   1.205   2.244  14.033 -1.6459 -2.6083 -0.4568
 9560TIP3    H250172   1.196   2.325  14.161  1.8302  0.5980 -2.1275
 9561TIP3   OH250173   1.761   3.479  16.258 -0.1257 -0.5946  0.5662
 9561TIP3    H150174   1.729   3.390  16.243  0.5521 -0.3417 -2.6607
 9561TIP3    H250175   1.835   3.468  16.317 -0.7681 -2.0282  1.1393
 9562TIP3   OH250176   0.950   0.202   5.542 -0.1780 -0.4976  0.0543
 9562TIP3    H150177   1.011   0.132   5.565 -1.7910 -1.9432  0.0098
 9562TIP3    H250178   0.993   0.248   5.470  1.5550 -0.5273  1.0300
 9563TIP3   OH250179   3.719   2.438  14.780 -0.1874  0.7174  0.4930
 9563TIP3    H150180   3.739   2.401  14.694  0.4789  1.1167  0.4769
 9563TIP3    H250181   3.804   2.467  14.814 -0.6752  1.9718  0.6358
 9564TIP3   OH250182   3.813   0.702  12.451  0.7160  0.1224 -0.5886
 9564TIP3    H150183   3.906   0.724  12.441  1.1893 -1.8691 -0.7223
 9564TIP3    H250184   3.803   0.619  12.404 -1.0429  0.1100 -0.2123
 9565TIP3   OH250185   1.730   4.838  13.844  0.4289  0.1885  0.0224
 9565TIP3    H150186   1.803   4.852  13.904 -0.5896 -0.9474  1.5550
 9565TIP3    H250187   1.734   4.912  13.784  2.8183  0.1618  0.0838
 9566TIP3   OH250188   3.722   6.727   2.614  0.2807 -0.3588  0.3237
 9566TIP3    H150189   3.691   6.693   2.698 -0.3913 -0.3573  0.0838
 9566TIP3    H250190   3.741   6.820   2.631  0.1598 -0.3618  0.4774
 9567TIP3   OH250191   3.713   2.636   2.064  0.9561  0.4925 -0.1901
 9567TIP3    H150192   3.696   2.707   2.126 -1.3696 -0.5078  0.3542
 9567TIP3    H250193   3.661   2.658   1.987  1.8789  0.4320 -0.8399
 9568TIP3   OH250194   1.037   2.804  10.839 -0.6131  0.2616  0.0468
 9568TIP3    H150195   1.022   2.878  10.897  0.2552  0.9453 -0.5768
 9568TIP3    H250196   1.115   2.828  10.789 -1.2662 -0.3639 -1.3131
 9569TIP3   OH250197   6.415   0.418   4.687  0.3986 -0.0772 -0.2534
 9569TIP3    H150198   6.454   0.340   4.726  4.1339  0.8933 -1.7443
 9569TIP3    H250199   6.410   0.481   4.759 -0.5517 -0.9639  0.4638
 9570TIP3   OH250200   0.171   3.732   6.650 -0.1385 -0.0211 -0.6644
 9570TIP3    H150201   0.259   3.769   6.641 -1.0168  2.6125  1.0731
 9570TIP3    H250202   0.112   3.806   6.640 -2.0742 -1.3120  0.6810
 9571TIP3   OH250203   0.271   6.492   0.340  0.4671  0.7271  0.2785
 9571TIP3    H150204   0.332   6.454   0.403 -1.1270 -2.6152 -0.0772
 9571TIP3    H250205   0.192   6.509   0.390  0.4346  1.6114 -0.0561
 9572TIP3   OH250206   3.224   0.635   1.372  0.1687  0.5500  0.6479
 9572TIP3    H150207   3.149   0.674   1.418  0.3994  0.4056  1.1451
 9572TIP3    H250208   3.259   0.570   1.433  1.1612  1.1448  0.7183
 9573TIP3   OH250209   5.535   2.841   6.497  0.6810 -0.1453  0.6401
 9573TIP3    H150210   5.508   2.924   6.457 -2.2058 -1.4148 -0.1540
 9573TIP3    H250211   5.630   2.847   6.502  0.9225  1.3634 -3.5973
 9574TIP3   OH250212   0.409   4.605   6.234 -0.1957  0.4330  0.1293
 9574TIP3    H150213   0.500   4.592   6.260 -0.2027  1.2640  0.5936
 9574TIP3    H250214   0.358   4.571   6.307 -0.2374  1.1542  0.4395
 9575TIP3   OH250215   4.439   5.813  12.182  0.1643 -0.0089 -0.9528
 9575TIP3    H150216   4.392   5.778  12.258 -1.0671  0.6954 -1.3786
 9575TIP3    H250217   4.512   5.863  12.219 -1.8696  2.4352 -0.1208
 9576TIP3   OH250218   5.115   4.030  16.314 -0.3558  0.7255 -0.0402
 9576TIP3    H150219   5.105   4.081  16.234  0.5876  0.8913 -0.0555
 9576TIP3    H250220   5.057   4.072  16.377 -0.6747  0.9346 -0.4710
 9577TIP3   OH250221   1.586   6.098   1.979 -0.4475 -0.0577  0.4481
 9577TIP3    H150222   1.665   6.135   1.940  0.1980 -1.6397  0.2145
 9577TIP3    H250223   1.517   6.117   1.916  0.0151  0.0950 -0.0120
 9578TIP3   OH250224   3.820   3.275   3.376 -0.5898 -0.5434 -0.1062
 9578TIP3    H150225   3.880   3.202   3.392  0.0812 -0.0811 -0.5017
 9578TIP3    H250226   3.809   3.316   3.462 -0.5801 -0.8036  0.0220
 9579TIP3   OH250227   1.858   4.300  15.544  0.2001 -0.1678  1.0160
 9579TIP3    H150228   1.843   4.265  15.456  0.5252 -2.3898  1.8229
 9579TIP3    H250229   1.771   4.321  15.577 -0.0650 -0.9444  0.8119
 9580TIP3   OH250230   2.297   5.338  11.892  1.1995 -0.3475  0.5923
 9580TIP3    H150231   2.227   5.359  11.831  2.2725 -0.0474 -0.5618
 9580TIP3    H250232   2.282   5.395  11.967  2.8442  3.0930 -1.5762
 9581TIP3   OH250233   1.461   4.799   5.592  1.0768  0.0753 -0.0430
 9581TIP3    H150234   1.442   4.883   5.548 -0.2713  0.3301  0.9665
 9581TIP3    H250235   1.528   4.758   5.538 -0.2804  0.5392 -2.1375
 9582TIP3   OH250236   2.410   1.159   3.644  0.5404  0.4807  0.4545
 9582TIP3    H150237   2.486   1.187   3.694  0.7301 -1.3641  1.2555
 9582TIP3    H250238   2.340   1.219   3.670  1.1531  0.7928  1.3952
 9583TIP3   OH250239   2.924   0.420  10.778  0.4843 -0.8174 -0.1480
 9583TIP3    H150240   2.958   0.366  10.706 -1.8056 -1.2785 -0.9156
 9583TIP3    H250241   2.897   0.356  10.844  0.5277 -0.4775  0.1950
 9584TIP3   OH250242   0.225   3.587   3.932  0.1003 -0.2653  0.4923
 9584TIP3    H150243   0.287   3.518   3.908 -0.7763 -0.5865 -0.8814
 9584TIP3    H250244   0.144   3.564   3.887  0.0884  2.2096 -0.8229
 9585TIP3   OH250245   5.785   3.182  17.247  0.1815  0.5921 -0.0176
 9585TIP3    H150246   5.862   3.125  17.247  1.5011  2.2968 -0.8015
 9585TIP3    H250247   5.741   3.163  17.164  0.5804  0.6551 -0.2450
 9586TIP3   OH250248   4.908   1.609   0.022  0.6615  1.0359  0.1097
 9586TIP3    H150249   4.898   1.544  -0.048 -1.2972  0.8691  0.5118
 9586TIP3    H250250   4.986   1.659  -0.002  0.8829 -0.0032 -1.3904
 9587TIP3   OH250251   5.536   6.425  13.949  0.2271 -0.0717  0.1603
 9587TIP3    H150252   5.566   6.485  14.018  2.4199 -0.8381 -0.0754
 9587TIP3    H250253   5.505   6.348  13.997  1.5281 -0.5081  0.3393
 9588TIP3   OH250254   1.754   3.846   3.423 -0.0708 -0.4549 -0.2189
 9588TIP3    H150255   1.700   3.914   3.382  0.4606  1.3224  1.9689
 9588TIP3    H250256   1.752   3.774   3.360 -2.1380  0.8801 -1.7630
 9589TIP3   OH250257   1.885   3.222  14.981 -0.3387 -0.0408 -0.1496
 9589TIP3    H150258   1.876   3.131  14.951  0.2014 -0.0374 -0.3176
 9589TIP3    H250259   1.839   3.274  14.915 -1.9270 -0.3198  0.7154
 9590TIP3   OH250260   5.402   3.072  10.717 -0.9471 -0.3890  0.1409
 9590TIP3    H150261   5.331   3.007  10.720 -1.1712 -0.1170  0.8211
 9590TIP3    H250262   5.422   3.080  10.624  0.5487 -2.9957  0.1987
 9591TIP3   OH250263   0.315   5.607   0.263  0.4411 -0.5066 -0.4694
 9591TIP3    H150264   0.352   5.521   0.284  1.6142  0.1346  0.1323
 9591TIP3    H250265   0.253   5.590   0.192 -1.7453 -2.3573  1.7525
 9592TIP3   OH250266   4.340   6.069  13.599  0.6801  0.5095  1.1161
 9592TIP3    H150267   4.326   6.136  13.532  1.1112  0.1377  0.6469
 9592TIP3    H250268   4.277   6.090  13.668 -1.6303 -0.6215 -0.5494
 9593TIP3   OH250269   4.550   2.495  14.961 -1.0271  0.5167  0.3394
 9593TIP3    H150270   4.546   2.403  14.986 -1.5812  0.7272  1.0428
 9593TIP3    H250271   4.632   2.527  14.998 -0.7922  0.2914  0.0216
 9594TIP3   OH250272   4.130   2.330   5.833 -0.0776  0.4767 -1.1974
 9594TIP3    H150273   4.211   2.351   5.786 -0.0822  1.1045 -0.9408
 9594TIP3    H250274   4.158   2.314   5.923 -0.5303  3.3992 -0.4886
 9595TIP3   OH250275   3.734   5.125  13.865  0.2519 -0.3342 -0.0940
 9595TIP3    H150276   3.745   5.032  13.885 -0.3277 -0.7236 -1.5336
 9595TIP3    H250277   3.640   5.140  13.869  0.3638  0.2844  0.4639
 9596TIP3   OH250278   4.107   0.439  14.585  0.1521 -0.4247 -0.2269
 9596TIP3    H150279   4.061   0.410  14.506 -1.2503  0.5606  0.2081
 9596TIP3    H250280   4.041   0.436  14.654  1.0423 -0.0889  0.6575
 9597TIP3   OH250281   5.264   1.848  14.080 -0.5899  0.5780 -0.1437
 9597TIP3    H150282   5.183   1.800  14.096 -1.1914  1.0323 -1.7657
 9597TIP3    H250283   5.287   1.827  13.990  0.7009  1.0638  0.0559
 9598TIP3   OH250284   5.277   1.200   2.130  0.4604  0.1471 -0.5222
 9598TIP3    H150285   5.186   1.228   2.141  0.5574  0.3439 -0.2403
 9598TIP3    H250286   5.291   1.137   2.201  0.5199  0.0553 -0.6156
 9599TIP3   OH250287   4.726   2.356  11.428 -0.1778  0.0780  0.0920
 9599TIP3    H150288   4.673   2.277  11.436  2.1799 -1.4444  1.0210
 9599TIP3    H250289   4.761   2.371  11.515  2.4755 -0.0672 -0.9164
 9600TIP3   OH250290   4.430   3.429  13.384 -0.2729 -0.1263 -0.4148
 9600TIP3    H150291   4.434   3.368  13.311  2.5412  1.4394 -1.6289
 9600TIP3    H250292   4.464   3.380  13.459  2.0717 -0.0495 -1.4053
 9601TIP3   OH250293   0.985   4.066  11.298  0.0943 -0.6746  0.8130
 9601TIP3    H150294   0.977   4.161  11.307  1.3241 -0.6105  1.3816
 9601TIP3    H250295   1.064   4.054  11.245  0.7397 -1.4028  1.9153
 9602TIP3   OH250296   0.961   0.900   5.415  0.0880 -0.2667  0.4314
 9602TIP3    H150297   0.866   0.910   5.427  0.1801 -0.6271  1.4620
 9602TIP3    H250298   1.000   0.944   5.491  0.7210 -0.9871  0.5238
 9603TIP3   OH250299   0.113   2.170  17.091  0.3303 -0.4933  0.0129
 9603TIP3    H150300   0.147   2.241  17.146  0.2643 -0.1981 -0.3256
 9603TIP3    H250301   0.036   2.138  17.138 -0.6708  0.8309 -0.6865
 9604TIP3   OH250302   5.266   5.222  10.615 -0.3885  0.2356 -0.0258
 9604TIP3    H150303   5.338   5.185  10.668 -1.4120  0.6667  1.6953
 9604TIP3    H250304   5.187   5.193  10.659 -1.2488  1.9069 -0.4462
 9605TIP3   OH250305   3.684   5.066   1.950 -0.3108 -0.5675  0.1820
 9605TIP3    H150306   3.619   5.134   1.967 -0.8982 -1.1725  0.3886
 9605TIP3    H250307   3.712   5.080   1.860 -0.0330  0.2738  0.3963
 9606TIP3   OH250308   5.675   3.514  13.732  0.1959 -0.1677  0.2257
 9606TIP3    H150309   5.668   3.516  13.637  1.1267 -2.6261  0.0788
 9606TIP3    H250310   5.766   3.489  13.749 -0.6911 -2.5276  1.7100
 9607TIP3   OH250311   1.095   4.061  12.475  0.6947  0.2816  0.1059
 9607TIP3    H150312   1.060   4.131  12.530 -0.8910 -0.5128  0.1153
 9607TIP3    H250313   1.036   4.057  12.400 -0.5744 -2.5259  1.1691
 9608TIP3   OH250314   5.714   5.127  12.533 -0.4493 -0.1177  0.8429
 9608TIP3    H150315   5.665   5.128  12.451 -0.5458  0.1902  0.9042
 9608TIP3    H250316   5.699   5.039  12.569 -0.6462 -0.1515  0.6779
 9609TIP3   OH250317   0.559   0.315   0.047  0.1819 -0.1711  0.8334
 9609TIP3    H150318   0.529   0.377  -0.020 -0.0594  1.9314  2.8336
 9609TIP3    H250319   0.504   0.238   0.034 -1.8226  1.2823  0.4087
 9610TIP3   OH250320   3.538   2.716  16.669  0.3169  0.2304 -0.2585
 9610TIP3    H150321   3.564   2.723  16.578  0.4279 -0.3170 -0.2683
 9610TIP3    H250322   3.597   2.650  16.706  1.7114  1.9883  0.7339
 9611TIP3   OH250323   5.029   2.010  15.928 -0.0887 -0.0815 -0.0340
 9611TIP3    H150324   5.081   2.001  15.848 -1.8779  0.9077 -1.3438
 9611TIP3    H250325   5.091   1.994  15.999  2.0011  1.0304 -1.5579
 9612TIP3   OH250326   0.395   0.704   0.500  0.4449 -0.5704  0.1032
 9612TIP3    H150327   0.436   0.790   0.507  0.9595 -0.7989 -0.0669
 9612TIP3    H250328   0.387   0.689   0.406  0.0470 -0.5697  0.1327
 9613TIP3   OH250329   3.982   3.599   3.588 -0.0622  0.3062  0.1373
 9613TIP3    H150330   4.074   3.606   3.561 -0.0799  0.4634  0.1151
 9613TIP3    H250331   3.934   3.579   3.508  0.0523 -0.5940  0.2887
 9614TIP3   OH250332   1.408   6.444   2.795 -0.2397  0.0417 -0.2159
 9614TIP3    H150333   1.385   6.428   2.886 -0.6540 -1.6377 -0.6111
 9614TIP3    H250334   1.502   6.461   2.797 -0.3565  0.6194  0.5957
 9615TIP3   OH250335   0.703   1.849  12.934  0.4610  0.5581 -0.4182
 9615TIP3    H150336   0.652   1.880  12.860 -0.9247  1.1900  0.7768
 9615TIP3    H250337   0.652   1.777  12.970 -0.4155  2.1872  1.7268
 9616TIP3   OH250338   5.131   5.144  12.710  0.3520  0.2364  0.8739
 9616TIP3    H150339   5.111   5.238  12.705 -0.8502 -0.0862 -1.0805
 9616TIP3    H250340   5.216   5.136  12.666 -1.0833  0.0249 -2.0118
 9617TIP3   OH250341   1.898   3.446  11.801  0.0906 -0.0292  0.1721
 9617TIP3    H150342   1.852   3.530  11.808 -0.6382 -0.3235 -0.9854
 9617TIP3    H250343   1.957   3.457  11.727 -0.0777 -0.5740 -0.0453
 9618TIP3   OH250344   1.033   5.734   2.973  1.0328 -0.0195  0.3032
 9618TIP3    H150345   1.100   5.674   3.007  0.8308 -1.1155 -1.1963
 9618TIP3    H250346   1.080   5.788   2.910  1.0520  0.9377  1.1243
 9619TIP3   OH250347   3.621   2.976   0.437  0.5282 -0.1189 -0.6634
 9619TIP3    H150348   3.612   3.071   0.436  1.1811 -0.0200  0.9845
 9619TIP3    H250349   3.698   2.960   0.492  0.8499 -1.5725 -1.5039
 9620TIP3   OH250350   6.139   1.127   0.788 -0.0912 -0.1435 -0.1479
 9620TIP3    H150351   6.172   1.199   0.735 -0.8457  0.9394  0.8101
 9620TIP3    H250352   6.215   1.071   0.803  0.6079  0.6834 -0.5534
 9621TIP3   OH250353   2.551   5.316   2.846 -0.0451  0.8122 -0.5913
 9621TIP3    H150354   2.595   5.246   2.893 -0.3204  1.1782  0.2201
 9621TIP3    H250355   2.503   5.365   2.914 -0.7193  1.1388 -1.2870
 9622TIP3   OH250356   0.549   5.600  10.989 -0.3449 -0.0806  0.3250
 9622TIP3    H150357   0.578   5.606  11.081 -0.1159 -2.2218  0.4041
 9622TIP3    H250358   0.611   5.539  10.949  0.1618  1.6015 -1.5258
 9623TIP3   OH250359   2.831   0.911  13.848 -0.0467 -0.1498 -0.2502
 9623TIP3    H150360   2.828   0.974  13.920  2.4804 -0.2572  0.0054
 9623TIP3    H250361   2.852   0.827  13.890 -1.5991 -0.8357 -0.7937
 9624TIP3   OH250362   5.431   4.655   4.873  0.1734 -0.2695 -0.1350
 9624TIP3    H150363   5.506   4.655   4.814  0.1898 -0.6309 -0.1168
 9624TIP3    H250364   5.402   4.564   4.874  1.9184 -0.8391  2.6500
 9625TIP3   OH250365   4.657   2.083   3.970 -0.6862  0.2234  0.4619
 9625TIP3    H150366   4.564   2.101   3.986 -0.6894  2.1470 -1.5271
 9625TIP3    H250367   4.703   2.155   4.013 -0.2815  0.8015 -0.9157
 9626TIP3   OH250368   2.605   1.350  14.943  0.1490  0.2962 -0.1301
 9626TIP3    H150369   2.555   1.284  14.895  1.1437 -0.5816  0.0230
 9626TIP3    H250370   2.694   1.315  14.945  0.2519  0.6499  1.7716
 9627TIP3   OH250371   0.241   4.862   4.401 -0.0096  0.3531 -0.3524
 9627TIP3    H150372   0.236   4.775   4.362 -0.4752  0.1459  0.1677
 9627TIP3    H250373   0.238   4.922   4.326 -0.8411 -0.0411 -0.6329
 9628TIP3   OH250374   2.734   3.423   5.589  0.0131  0.3248 -0.1705
 9628TIP3    H150375   2.669   3.357   5.566  0.8303 -0.2644 -0.8095
 9628TIP3    H250376   2.818   3.376   5.589  0.7178  1.5310 -1.5121
 9629TIP3   OH250377   3.667   5.086  13.190  0.1584  0.0767  0.6861
 9629TIP3    H150378   3.573   5.093  13.174  0.1244 -0.3292  0.6958
 9629TIP3    H250379   3.676   5.096  13.285  0.1327  0.1735  0.6778
 9630TIP3   OH250380   5.216   4.729   3.194 -0.1503  0.3265 -0.3559
 9630TIP3    H150381   5.148   4.684   3.144  0.2162 -0.7204  0.0724
 9630TIP3    H250382   5.179   4.815   3.214 -2.0392 -0.8439  1.3558
 9631TIP3   OH250383   3.297   1.768   4.265  0.3253 -0.2003 -0.3090
 9631TIP3    H150384   3.244   1.839   4.300  0.3387  0.0883 -0.8596
 9631TIP3    H250385   3.234   1.699   4.244  0.0819  0.4127 -1.6189
 9632TIP3   OH250386   1.513   3.147   2.450 -0.1008  0.2539 -0.4152
 9632TIP3    H150387   1.513   3.214   2.518 -1.6160 -1.2526  1.1201
 9632TIP3    H250388   1.585   3.089   2.473 -0.3172  0.0035 -0.3657
 9633TIP3   OH250389   3.169   5.920  11.774 -0.0558  0.3053  0.7869
 9633TIP3    H150390   3.233   5.852  11.752  1.1143  0.8365  2.4721
 9633TIP3    H250391   3.222   5.994  11.803 -1.4162  1.0565  1.3836
 9634TIP3   OH250392   5.097   1.184   4.652 -0.1430 -0.3648 -0.2796
 9634TIP3    H150393   5.076   1.127   4.726 -0.0371  1.2757  1.0662
 9634TIP3    H250394   5.059   1.141   4.576 -2.9748 -0.5612  1.1895
 9635TIP3   OH250395   2.396   5.768  14.884  0.3034  0.3389 -0.0743
 9635TIP3    H150396   2.357   5.682  14.894  0.1716  0.5375  1.1331
 9635TIP3    H250397   2.464   5.756  14.817  0.6233 -0.7964  0.4516
 9636TIP3   OH250398   5.997   2.495   0.689  0.6866  0.3830 -0.0745
 9636TIP3    H150399   6.049   2.575   0.685 -0.6101  1.2314 -0.2891
 9636TIP3    H250400   6.049   2.430   0.642  1.6681  1.1489 -0.0562
 9637TIP3   OH250401   2.762   2.425   3.576  1.0270  0.1496 -0.3979
 9637TIP3    H150402   2.800   2.485   3.640  0.3201  0.4114 -0.2131
 9637TIP3    H250403   2.837   2.383   3.534  1.5144 -0.6910  1.2326
 9638TIP3   OH250404   3.370   3.777   4.568  0.0067 -0.3046  0.7824
 9638TIP3    H150405   3.451   3.810   4.529 -0.5160 -0.4470 -0.4500
 9638TIP3    H250406   3.348   3.841   4.636  1.0237 -0.1404  0.9587
 9639TIP3   OH250407   0.734   1.442  13.474  0.4941 -0.1448  0.0929
 9639TIP3    H150408   0.775   1.422  13.559  0.7725  0.0445  0.0059
 9639TIP3    H250409   0.642   1.460  13.495 -0.0418 -2.6614  0.0096
 9640TIP3   OH250410   3.088   4.836  16.971  0.0705 -0.5939  0.4874
 9640TIP3    H150411   3.123   4.899  16.908 -0.0814  0.7799  1.7547
 9640TIP3    H250412   3.007   4.804  16.932  0.6736 -0.7914 -0.6301
 9641TIP3   OH250413   1.671   0.286   3.554  0.6733 -0.4195  0.2255
 9641TIP3    H150414   1.692   0.365   3.504  2.3889  0.3571  2.0762
 9641TIP3    H250415   1.577   0.294   3.572  0.4284  0.2151 -1.2679
 9642TIP3   OH250416   1.302   5.688  12.692  0.0477 -0.0671  0.3122
 9642TIP3    H150417   1.387   5.653  12.720  0.8878  0.6138 -1.3352
 9642TIP3    H250418   1.320   5.777  12.664 -1.3994  0.4106  0.8408
 9643TIP3   OH250419   5.686   2.854   6.828  0.0842 -0.5672 -0.0843
 9643TIP3    H150420   5.651   2.930   6.874 -0.2734  0.1862 -1.5769
 9643TIP3    H250421   5.771   2.882   6.796 -0.1154 -0.7405 -0.7751
 9644TIP3   OH250422   5.125   6.752  14.229 -0.0127 -0.2787  0.1973
 9644TIP3    H150423   5.185   6.684  14.261  0.1194 -0.6545 -0.8043
 9644TIP3    H250424   5.126   6.740  14.134 -1.3320  0.0065  0.1414
 9645TIP3   OH250425   1.005   3.135   2.606 -0.4356 -0.1404  0.8578
 9645TIP3    H150426   0.930   3.141   2.548 -0.5447  3.7385  1.3060
 9645TIP3    H250427   1.071   3.191   2.566  0.5106  0.2689  2.9247
 9646TIP3   OH250428   3.636   6.008   0.440 -0.4901 -0.5136 -0.1494
 9646TIP3    H150429   3.590   5.988   0.521 -0.6360  0.2758 -0.0409
 9646TIP3    H250430   3.661   6.100   0.448  0.8102 -0.8361 -0.3517
 9647TIP3   OH250431   1.662   4.312  15.121 -0.0743 -0.1151 -0.4975
 9647TIP3    H150432   1.704   4.387  15.079 -1.3652  0.3210 -1.0545
 9647TIP3    H250433   1.649   4.248  15.051 -3.3142  1.0914 -1.1177
 9648TIP3   OH250434   1.885   5.896  13.756 -0.3733  0.2805 -0.0600
 9648TIP3    H150435   1.874   5.832  13.686 -0.9428  1.5799 -1.1757
 9648TIP3    H250436   1.972   5.934  13.740  0.8332 -1.6360  1.7998
 9649TIP3   OH250437   3.612   1.525  11.656 -0.1495 -0.0372 -0.1172
 9649TIP3    H150438   3.675   1.485  11.596 -0.3528 -0.1267 -0.2720
 9649TIP3    H250439   3.656   1.524  11.741  0.0948 -0.0132 -0.2431
 9650TIP3   OH250440   6.324   4.423  10.849  0.2334 -0.1568 -0.3068
 9650TIP3    H150441   6.370   4.341  10.868 -1.0202 -0.3625  1.9828
 9650TIP3    H250442   6.393   4.489  10.848  0.7497 -0.6217  2.0354
 9651TIP3   OH250443   5.292   4.176   2.664 -0.6143  0.0455 -0.5067
 9651TIP3    H150444   5.209   4.162   2.619 -0.8865 -1.1034  0.3220
 9651TIP3    H250445   5.355   4.120   2.618 -0.7715 -0.7055  0.1825
 9652TIP3   OH250446   4.553   5.257   4.583  0.6780 -0.2618 -0.5127
 9652TIP3    H150447   4.646   5.275   4.571  0.3840  2.3356  0.8563
 9652TIP3    H250448   4.508   5.326   4.535 -0.5799 -1.7754 -1.5629
 9653TIP3   OH250449   5.957   4.832  12.508 -0.1083 -0.1340  0.5550
 9653TIP3    H150450   6.037   4.884  12.519 -0.1511  0.4140 -1.4293
 9653TIP3    H250451   5.905   4.850  12.586  0.9227  0.9570  0.9946
 9654TIP3   OH250452   5.159   5.569   3.676  0.7200  0.2565 -0.1888
 9654TIP3    H150453   5.194   5.532   3.757  2.3056 -0.5502 -1.2213
 9654TIP3    H250454   5.088   5.626   3.705  0.6328 -0.7584  1.6993
 9655TIP3   OH250455   6.445   2.096   0.843  0.6421  0.7171  0.1009
 9655TIP3    H150456   6.367   2.089   0.898  0.4518  0.0642 -0.2448
 9655TIP3    H250457   6.502   2.026   0.874 -0.3890 -1.1230 -1.9802
 9656TIP3   OH250458   1.060   0.704   6.802 -0.7357  0.6575 -0.0826
 9656TIP3    H150459   0.992   0.713   6.735 -1.5242 -1.6531  0.3555
 9656TIP3    H250460   1.012   0.710   6.885 -0.3627 -0.5832  0.2282
 9657TIP3   OH250461   3.805   6.615   2.216 -0.6384 -0.4444  0.3997
 9657TIP3    H150462   3.884   6.623   2.162 -1.5355  4.3262 -0.4086
 9657TIP3    H250463   3.739   6.580   2.157 -1.0403  2.7481 -1.1720
 9658TIP3   OH250464   1.720   4.894  13.104 -0.2622 -0.5608  0.0940
 9658TIP3    H150465   1.689   4.815  13.148 -0.4919  0.3414  1.5781
 9658TIP3    H250466   1.809   4.873  13.076 -1.1223 -2.1334 -1.5491
 9659TIP3   OH250467   4.484   1.058   5.080  0.0681 -0.4185  0.2771
 9659TIP3    H150468   4.512   0.978   5.036 -0.7288 -1.3445  1.4084
 9659TIP3    H250469   4.514   1.048   5.171  0.9572  1.0776  0.1601
 9660TIP3   OH250470   1.662   0.729  11.014  0.2922 -0.2045  0.3364
 9660TIP3    H150471   1.579   0.685  11.034  0.4128 -1.1894 -1.2320
 9660TIP3    H250472   1.728   0.661  11.026  0.3682 -0.8846 -3.2319
 9661TIP3   OH250473   5.973   1.057  14.253  0.2992  0.6330  0.2296
 9661TIP3    H150474   6.012   0.970  14.246  0.7670  0.8079  0.6463
 9661TIP3    H250475   5.958   1.069  14.347  0.6338  1.1745  0.2114
 9662TIP3   OH250476   0.014   2.107   2.471 -0.2243 -0.0053  0.4445
 9662TIP3    H150477   0.008   2.202   2.474  0.8364  0.1089 -0.6519
 9662TIP3    H250478   0.092   2.086   2.522 -0.1263 -0.2334  0.2074
 9663TIP3   OH250479   3.628   5.782  15.909 -0.0257  0.0630 -0.3609
 9663TIP3    H150480   3.714   5.820  15.925 -0.7999  2.0709 -0.8525
 9663TIP3    H250481   3.617   5.787  15.814  0.1709 -2.1180 -0.5215
 9664TIP3   OH250482   4.194   6.141   3.284  0.2011 -0.2350  0.2642
 9664TIP3    H150483   4.155   6.111   3.202 -0.1742  1.8567 -0.3492
 9664TIP3    H250484   4.272   6.190   3.257  0.8210 -0.6533  1.2446
 9665TIP3   OH250485   0.942   3.968  16.860  0.0265 -0.5697 -0.4096
 9665TIP3    H150486   0.918   3.875  16.852 -0.4583 -0.3470 -1.5221
 9665TIP3    H250487   0.865   4.016  16.829 -0.0689  0.2312  1.0301
 9666TIP3   OH250488   5.215   3.938   2.141 -0.0185 -0.4728  0.1206
 9666TIP3    H150489   5.189   3.883   2.214 -0.8826 -1.3344 -0.8205
 9666TIP3    H250490   5.234   3.877   2.070 -0.4346  0.4061 -0.7677
 9667TIP3   OH250491   4.811   4.985   2.230  0.1759  0.5322 -0.4411
 9667TIP3    H150492   4.723   4.949   2.220  0.5716 -0.3382 -0.8491
 9667TIP3    H250493   4.800   5.057   2.292 -1.0015  1.1173 -1.3029
 9668TIP3   OH250494   3.553   5.065  14.189  0.0801  0.3395 -0.1075
 9668TIP3    H150495   3.549   4.978  14.231  0.5718  0.7417  0.7838
 9668TIP3    H250496   3.482   5.063  14.124  0.2865 -0.8424 -0.3061
 9669TIP3   OH250497   5.593   4.850   5.968  0.0360 -0.3454  0.1421
 9669TIP3    H150498   5.660   4.850   6.037 -0.8256  2.5097  1.0733
 9669TIP3    H250499   5.640   4.823   5.889  2.0731  0.5932  0.9907
 9670TIP3   OH250500   1.509   0.301  12.796  0.3014  0.2575 -0.1316
 9670TIP3    H150501   1.503   0.384  12.844 -0.9532 -0.4052  0.9112
 9670TIP3    H250502   1.433   0.251  12.826  0.1467 -0.6425 -1.9584
 9671TIP3   OH250503   1.905   0.331   2.213 -0.6305  0.1793  0.4765
 9671TIP3    H150504   1.935   0.409   2.259  0.5251  0.1303 -0.1752
 9671TIP3    H250505   1.982   0.275   2.207 -1.1771 -0.5313 -0.0414
 9672TIP3   OH250506   2.244   5.458  10.499  0.1935  0.4569 -0.3589
 9672TIP3    H150507   2.205   5.485  10.582 -0.8994  1.0106 -1.0257
 9672TIP3    H250508   2.284   5.538  10.465  2.0954 -0.1503  0.4013
 9673TIP3   OH250509   1.918   5.672   2.731  1.0127  0.3123  0.2903
 9673TIP3    H150510   1.834   5.632   2.754  1.0456  0.8719  1.4241
 9673TIP3    H250511   1.901   5.722   2.651 -0.2437  2.1078  1.6465
 9674TIP3   OH250512   6.452   4.129   5.830  0.3960 -0.4682  0.6226
 9674TIP3    H150513   6.525   4.176   5.871  0.6146 -1.4477  1.3735
 9674TIP3    H250514   6.494   4.066   5.773  0.1030  0.1198 -0.2469
 9675TIP3   OH250515   3.696   6.030  13.109  0.1701  0.5961  0.0314
 9675TIP3    H150516   3.669   6.022  13.201  1.8210 -0.0020  0.4702
 9675TIP3    H250517   3.755   5.956  13.094 -0.1608  0.6287 -1.5468
 9676TIP3   OH250518   0.950   6.480   2.015  0.2724  0.1380  0.4558
 9676TIP3    H150519   0.947   6.570   2.047 -0.3451  0.6911 -1.0823
 9676TIP3    H250520   0.978   6.488   1.924 -2.3416 -0.9765 -0.5199
 9677TIP3   OH250521   3.483   0.341  16.072 -0.4464  0.0463  0.1854
 9677TIP3    H150522   3.559   0.284  16.076 -0.4600  0.0246  0.1415
 9677TIP3    H250523   3.437   0.314  15.992  0.3447  1.1051 -0.6569
 9678TIP3   OH250524   2.222   2.349  13.670  0.3609  0.3549 -0.6673
 9678TIP3    H150525   2.162   2.423  13.670  0.3358  0.3354 -0.8661
 9678TIP3    H250526   2.217   2.313  13.759  0.3758  0.5910 -0.5710
 9679TIP3   OH250527   0.909   5.261   6.342  0.3667  0.1369  0.0295
 9679TIP3    H150528   0.838   5.200   6.321 -0.0009  0.5374  0.0895
 9679TIP3    H250529   0.869   5.325   6.402  1.5028 -1.2439  2.3229
 9680TIP3   OH250530   0.548   2.384   4.054  0.1447 -0.3163 -0.0260
 9680TIP3    H150531   0.580   2.303   4.014  0.6224 -0.2121  0.1382
 9680TIP3    H250532   0.487   2.420   3.990  0.3255 -0.5394 -0.3249
 9681TIP3   OH250533   6.214   0.112   3.150  0.3547 -0.1609  0.2923
 9681TIP3    H150534   6.235   0.189   3.204  0.8433 -2.2332  3.1342
 9681TIP3    H250535   6.293   0.058   3.153  0.6407 -0.0476 -3.0978
 9682TIP3   OH250536   6.393   5.486   5.275  0.3898  0.1102  0.5119
 9682TIP3    H150537   6.311   5.506   5.229  1.6843 -0.2264 -2.0830
 9682TIP3    H250538   6.458   5.540   5.230  2.1148 -2.0548  0.3592
 9683TIP3   OH250539   4.458   6.614   4.271 -0.0811 -0.1119  0.3316
 9683TIP3    H150540   4.525   6.644   4.333 -1.2494  2.5915  0.3441
 9683TIP3    H250541   4.376   6.620   4.320 -0.8444  0.5985 -1.0121
 9684TIP3   OH250542   1.430   3.592  16.837 -0.2579  0.5350 -0.1322
 9684TIP3    H150543   1.359   3.587  16.902 -0.8262  2.6971 -0.5352
 9684TIP3    H250544   1.502   3.635  16.884  0.0758  0.1933 -0.3232
 9685TIP3   OH250545   0.454   0.865   5.851 -0.3648  0.0914 -0.5400
 9685TIP3    H150546   0.374   0.917   5.856 -0.2949  0.1307  0.1756
 9685TIP3    H250547   0.462   0.824   5.937  0.8702  0.8127 -0.2988
 9686TIP3   OH250548   6.520   0.704   1.804 -0.2684 -0.1486  0.4051
 9686TIP3    H150549   6.565   0.754   1.872 -1.1712  0.3219  0.6533
 9686TIP3    H250550   6.514   0.615   1.839  1.6682 -0.5412 -0.1944
 9687TIP3   OH250551   3.881   4.315  15.634 -0.1980 -0.1742  0.5802
 9687TIP3    H150552   3.812   4.378  15.650 -0.0456 -0.0885  0.9090
 9687TIP3    H250553   3.931   4.312  15.716  0.6955  0.3920  0.0660
 9688TIP3   OH250554   0.029   1.255   4.983 -0.4549 -0.2770  0.1264
 9688TIP3    H150555   0.095   1.193   5.012 -1.4614 -0.8248  1.2567
 9688TIP3    H250556  -0.050   1.203   4.970 -0.9242  0.5267 -0.3347
 9689TIP3   OH250557   2.947   4.855  12.863 -0.7477  0.2400 -0.1378
 9689TIP3    H150558   3.011   4.792  12.829 -0.1754  0.3157  0.7723
 9689TIP3    H250559   2.863   4.809  12.856 -0.8260  0.7361 -2.8105
 9690TIP3   OH250560   4.300   0.271   3.806 -0.0641 -0.0700  0.0206
 9690TIP3    H150561   4.377   0.214   3.806  0.8161  1.0931  1.2730
 9690TIP3    H250562   4.307   0.320   3.724  0.6186  0.1411  0.2010
 9691TIP3   OH250563   1.240   0.418  14.206  0.0649  0.3687  0.0653
 9691TIP3    H150564   1.230   0.500  14.158  0.5281 -0.0805 -0.8135
 9691TIP3    H250565   1.150   0.393  14.230 -0.2297  0.3128 -1.0612
 9692TIP3   OH250566   3.263   5.723   4.941  0.0002 -0.0740  0.6364
 9692TIP3    H150567   3.282   5.670   4.864  0.7178 -1.1465  1.5399
 9692TIP3    H250568   3.232   5.806   4.905 -1.2741 -1.1339 -0.7920
 9693TIP3   OH250569   2.684   0.042   5.531 -0.1169  0.2333  0.2551
 9693TIP3    H150570   2.640   0.036   5.616  0.4108  0.3028  0.5337
 9693TIP3    H250571   2.774   0.068   5.552 -0.0766  0.5875 -0.3508
 9694TIP3   OH250572   6.112   5.423  16.181  0.5624  0.6598 -0.3487
 9694TIP3    H150573   6.052   5.403  16.253 -1.0334  0.5645 -1.6706
 9694TIP3    H250574   6.199   5.402  16.215 -0.4807 -2.8758  0.2969
 9695TIP3   OH250575   4.564   3.918   3.885 -0.0668  0.6709  0.0917
 9695TIP3    H150576   4.635   3.855   3.898 -0.8377 -0.6407 -1.8979
 9695TIP3    H250577   4.494   3.888   3.943  0.4583  1.1681  1.0076
 9696TIP3   OH250578   2.929   6.659   1.389  0.5910 -0.4744 -0.3391
 9696TIP3    H150579   2.970   6.574   1.374 -0.7792 -0.8938 -1.7812
 9696TIP3    H250580   2.843   6.638   1.425  1.1456  0.3746  1.5459
 9697TIP3   OH250581   3.431   0.861   2.695 -0.7193 -0.2794 -0.8783
 9697TIP3    H150582   3.436   0.833   2.604  1.2866  0.9240 -1.1597
 9697TIP3    H250583   3.410   0.954   2.691 -1.1171 -0.3289 -0.0896
 9698TIP3   OH250584   5.960   6.749  11.025 -0.2148  0.2515 -0.1815
 9698TIP3    H150585   6.049   6.784  11.014 -0.5336  0.8169 -1.0099
 9698TIP3    H250586   5.903   6.824  11.007 -0.8273  0.6557  3.2067
 9699TIP3   OH250587   1.338   5.311  13.873  0.4234 -0.6667 -0.1030
 9699TIP3    H150588   1.385   5.298  13.790 -0.1132  2.3408 -0.9389
 9699TIP3    H250589   1.400   5.359  13.928 -1.2045  2.4373 -0.8624
 9700TIP3   OH250590   6.349   1.679  16.503 -0.3374 -0.1851  0.0154
 9700TIP3    H150591   6.346   1.712  16.593 -2.0042 -0.2573  0.0059
 9700TIP3    H250592   6.408   1.603  16.508 -1.8651 -1.3221  1.4581
 9701TIP3   OH250593   0.014   6.682  11.771  0.1158  0.4639 -0.6507
 9701TIP3    H150594   0.005   6.696  11.865 -1.8040  0.0737 -0.7530
 9701TIP3    H250595   0.088   6.621  11.762  0.7895  1.1022  0.5432
 9702TIP3   OH250596   4.672   6.508  16.863 -0.0838 -0.4709  0.2975
 9702TIP3    H150597   4.642   6.475  16.779  1.2835 -2.1947  0.4583
 9702TIP3    H250598   4.713   6.592  16.842 -0.0395 -0.7357 -0.7101
 9703TIP3   OH250599   1.862   0.589  15.508  0.0174 -0.2200 -0.1623
 9703TIP3    H150600   1.774   0.551  15.508  0.0371 -0.2671  0.4358
 9703TIP3    H250601   1.897   0.569  15.420 -0.5088 -0.3297 -0.3485
 9704TIP3   OH250602   6.409   6.157  14.424 -0.3279  0.5622  0.6260
 9704TIP3    H150603   6.466   6.227  14.454  0.8147  0.9707 -2.3609
 9704TIP3    H250604   6.322   6.182  14.456  0.4341  2.1524  1.5091
 9705TIP3   OH250605   5.220   6.399  12.547  0.2614  0.1439  0.0633
 9705TIP3    H150606   5.226   6.494  12.541 -0.2502  0.1417 -0.4856
 9705TIP3    H250607   5.126   6.381  12.546  0.3958 -0.4899 -1.6568
 9706TIP3   OH250608   2.007   6.410   3.045  0.1716 -0.2942  0.2144
 9706TIP3    H150609   1.972   6.321   3.047 -0.6519  0.0460  0.8803
 9706TIP3    H250610   2.084   6.407   3.102 -1.0690 -0.0661  1.9268
 9707TIP3   OH250611   0.887   1.603   3.502  0.0323 -0.1563  0.6247
 9707TIP3    H150612   0.877   1.670   3.570  0.0080 -0.9213  1.3953
 9707TIP3    H250613   0.851   1.523   3.542 -0.5116 -0.4837 -0.5077
 9708TIP3   OH250614   5.070   3.378   3.818  0.4626 -0.0384  0.3368
 9708TIP3    H150615   5.060   3.461   3.770 -0.2367 -0.0785  0.4112
 9708TIP3    H250616   5.043   3.399   3.907 -0.1766 -0.4666  0.2437
 9709TIP3   OH250617   3.015   5.367   2.818 -0.0691 -0.4512  0.5843
 9709TIP3    H150618   3.089   5.322   2.776 -0.2596 -0.9058  0.7380
 9709TIP3    H250619   3.020   5.457   2.785  2.3100  0.3162  2.8312
 9710TIP3   OH250620   6.139   3.433  13.149  0.0673  1.1121 -0.5093
 9710TIP3    H150621   6.172   3.521  13.133 -0.4123  1.1365 -1.4046
 9710TIP3    H250622   6.069   3.421  13.084 -0.4915  0.4189  0.2028
 9711TIP3   OH250623   6.493   6.104  17.201  0.3585 -0.0282 -0.1746
 9711TIP3    H150624   6.444   6.183  17.224  0.1605 -0.4505  0.8912
 9711TIP3    H250625   6.494   6.052  17.281  0.7325 -0.9859 -0.7874
 9712TIP3   OH250626   4.440   4.244  13.809 -0.1438  0.4198  0.4022
 9712TIP3    H150627   4.344   4.239  13.811 -0.2190  0.7641 -1.8537
 9712TIP3    H250628   4.462   4.305  13.880 -1.4821 -0.7365  1.8733
 9713TIP3   OH250629   5.707   6.452   2.138  0.8236  0.1961 -0.0337
 9713TIP3    H150630   5.784   6.480   2.187  0.5195  2.6611 -0.8813
 9713TIP3    H250631   5.635   6.506   2.172 -0.0135 -0.2945 -0.9862
 9714TIP3   OH250632   5.541   6.036   0.710 -0.2572  0.0077 -0.3222
 9714TIP3    H150633   5.476   6.105   0.698  1.8343  1.8585 -1.4295
 9714TIP3    H250634   5.589   6.033   0.627  1.7675 -0.5630  0.8150
 9715TIP3   OH250635   4.016   1.191   4.045 -0.1525 -0.4456  0.3532
 9715TIP3    H150636   3.923   1.182   4.067 -0.7930 -1.7356 -2.5251
 9715TIP3    H250637   4.055   1.108   4.072 -0.2463 -0.6685 -0.1844
 9716TIP3   OH250638   3.173   6.540  14.711  0.5268  0.1465  0.3582
 9716TIP3    H150639   3.124   6.618  14.737  0.8108  0.0666  1.1415
 9716TIP3    H250640   3.130   6.510  14.631  0.2808  0.9836  0.1762
 9717TIP3   OH250641   4.280   1.451  12.250 -0.1004  0.4700 -0.4079
 9717TIP3    H150642   4.240   1.449  12.337 -1.5702 -0.5411 -1.0849
 9717TIP3    H250643   4.246   1.532  12.210  0.7817  1.0695  0.0454
 9718TIP3   OH250644   0.434   2.227  11.700  0.5301  0.0049  0.5957
 9718TIP3    H150645   0.359   2.283  11.719  0.4524  0.4586 -0.9930
 9718TIP3    H250646   0.500   2.286  11.664  0.7695 -0.7682 -0.2598
 9719TIP3   OH250647   6.197   3.264  13.649  0.1555  0.7932  0.0830
 9719TIP3    H150648   6.134   3.217  13.704  0.1281  0.8330  0.0863
 9719TIP3    H250649   6.142   3.318  13.592  0.1319 -0.1254 -0.7875
 9720TIP3   OH250650   5.536   1.855  11.340  0.1952  0.4222 -0.1474
 9720TIP3    H150651   5.519   1.762  11.352 -2.2543  0.7345 -1.0580
 9720TIP3    H250652   5.571   1.862  11.251  1.2804  0.2702  0.2626
 9721TIP3   OH250653   1.320   5.788  13.252 -0.7531 -0.2177  0.4987
 9721TIP3    H150654   1.253   5.754  13.192  0.5045  1.2615 -1.7964
 9721TIP3    H250655   1.374   5.711  13.272 -0.1589 -0.4072 -1.6719
 9722TIP3   OH250656   4.145   2.331   1.075 -0.8747 -0.6706 -0.0919
 9722TIP3    H150657   4.072   2.276   1.047  0.5694 -1.9417 -1.4213
 9722TIP3    H250658   4.143   2.327   1.171 -2.8145 -0.2979 -0.0930
 9723TIP3   OH250659   1.692   3.748  16.939 -0.6453  0.5988  0.1705
 9723TIP3    H150660   1.715   3.826  16.988 -0.6324  0.3246  0.6040
 9723TIP3    H250661   1.718   3.675  16.995 -2.7249  0.2758  0.7677
 9724TIP3   OH250662   5.618   0.397   0.223  0.3985 -0.4482 -0.4489
 9724TIP3    H150663   5.674   0.470   0.247 -2.6989  2.5493 -1.9509
 9724TIP3    H250664   5.561   0.384   0.298 -0.3374 -0.0109 -0.9240
 9725TIP3   OH250665   0.958   6.515   1.048 -0.5664  0.1095  0.0137
 9725TIP3    H150666   0.944   6.520   0.953  1.5483 -1.8225 -0.4361
 9725TIP3    H250667   1.049   6.539   1.060  0.4675 -3.9452  1.0423
 9726TIP3   OH250668   4.954   4.152  14.685  0.3658 -0.1034  0.7092
 9726TIP3    H150669   4.959   4.057  14.680  0.2331 -0.1591  1.6427
 9726TIP3    H250670   4.889   4.176  14.618 -0.6528 -0.7762  1.4462
 9727TIP3   OH250671   6.740   3.453  12.353  0.1975 -0.2146  0.2357
 9727TIP3    H150672   6.768   3.365  12.328  1.4491  0.1656  0.2396
 9727TIP3    H250673   6.790   3.472  12.433 -0.2489  0.4021  0.3769
 9728TIP3   OH250674   5.233   6.130  13.691 -0.1966  0.4989 -0.6827
 9728TIP3    H150675   5.265   6.124  13.780  0.2362  0.2857 -0.8523
 9728TIP3    H250676   5.171   6.057  13.683 -0.2493  0.5294 -0.5530
 9729TIP3   OH250677   2.095   0.864  15.520  0.0021  0.1239 -0.0111
 9729TIP3    H150678   2.138   0.948  15.503  2.0694 -1.3923 -2.7857
 9729TIP3    H250679   2.039   0.851  15.443 -0.1689 -1.0990  0.3146
 9730TIP3   OH250680   3.898   2.454  12.397 -0.0047  0.1453  0.2671
 9730TIP3    H150681   3.831   2.494  12.343  0.4598  1.4473  0.6420
 9730TIP3    H250682   3.981   2.477  12.355  0.2443 -0.8722  0.1852
 9731TIP3   OH250683   6.583   2.916   0.987  0.4496 -0.2218 -0.0823
 9731TIP3    H150684   6.524   2.991   0.999  0.9767  0.1758  0.0568
 9731TIP3    H250685   6.534   2.856   0.932 -1.1212 -1.0705  2.1808
 9732TIP3   OH250686   5.746   3.991   4.780 -0.0612 -0.0710  0.1962
 9732TIP3    H150687   5.707   4.028   4.860  0.2120  0.8744 -0.1050
 9732TIP3    H250688   5.741   4.062   4.716  1.2642 -0.2614 -0.1300
 9733TIP3   OH250689   0.996   4.864  11.836  0.4739  0.0387  0.1092
 9733TIP3    H150690   0.910   4.905  11.849  0.4591 -0.0486  0.2868
 9733TIP3    H250691   1.046   4.889  11.913  0.6301  0.1478 -0.0284
 9734TIP3   OH250692   4.848   4.064  17.095 -0.1271 -0.4066 -0.4480
 9734TIP3    H150693   4.886   3.992  17.045 -0.8230 -0.9682 -0.1718
 9734TIP3    H250694   4.868   4.142  17.044 -0.5096 -0.9381 -1.4157
 9735TIP3   OH250695   5.816   3.780   1.392  0.1278  0.4127 -0.0733
 9735TIP3    H150696   5.857   3.846   1.447 -1.1599  0.4625  0.8579
 9735TIP3    H250697   5.852   3.697   1.424  0.2951  0.5283  0.0382
 9736TIP3   OH250698   4.425   6.441  16.421  0.5362 -0.9553 -0.3789
 9736TIP3    H150699   4.360   6.379  16.387  0.8693 -0.9196 -1.0975
 9736TIP3    H250700   4.468   6.394  16.492 -1.8180 -0.1589  1.6317
 9737TIP3   OH250701   4.654   1.401   0.286  0.3922  0.1263  0.1722
 9737TIP3    H150702   4.591   1.373   0.219 -0.9192  0.2993  1.3179
 9737TIP3    H250703   4.696   1.319   0.315  1.3368  0.1035 -1.1982
 9738TIP3   OH250704   2.972   3.370   0.677 -0.2117  0.0939  0.7367
 9738TIP3    H150705   2.877   3.385   0.683  0.0180  2.2214 -0.3209
 9738TIP3    H250706   3.011   3.443   0.724  0.9255 -0.3395  0.4823
 9739TIP3   OH250707   4.743   4.165  14.507  0.1523  0.5602  0.0300
 9739TIP3    H150708   4.665   4.220  14.511  0.0682  0.5641 -1.4010
 9739TIP3    H250709   4.754   4.146  14.413  0.8169 -0.9332  0.3951
 9740TIP3   OH250710   6.020   4.159  15.404 -0.0711 -0.4076 -0.0397
 9740TIP3    H150711   5.943   4.105  15.386 -0.4496  0.3485 -0.7823
 9740TIP3    H250712   5.988   4.249  15.394  0.5855 -0.0519  0.9956
 9741TIP3   OH250713   1.472   5.564  11.413  0.1193  0.1690 -0.2970
 9741TIP3    H150714   1.483   5.490  11.473 -0.6397  0.6038  0.3807
 9741TIP3    H250715   1.546   5.621  11.431 -1.0327  1.1390  1.4505
 9742TIP3   OH250716   1.091   3.968   6.085 -0.1613  0.5217 -0.9230
 9742TIP3    H150717   1.146   3.916   6.027  2.4091  1.5348  0.5353
 9742TIP3    H250718   1.076   3.911   6.161  0.2257  0.8308 -0.6127
 9743TIP3   OH250719   3.795   1.615   2.611  0.3657  0.0698  0.1432
 9743TIP3    H150720   3.831   1.666   2.684  0.3708 -0.1774  0.3133
 9743TIP3    H250721   3.716   1.574   2.647 -0.1143  0.6428 -0.2414
 9744TIP3   OH250722   3.972   0.926  16.640 -0.0964  0.2001  0.3936
 9744TIP3    H150723   3.914   0.970  16.702  1.8680  1.6047  1.3198
 9744TIP3    H250724   3.991   0.842  16.681  0.5151  0.7835  1.3471
 9745TIP3   OH250725   0.092   6.351  13.465 -0.5039  0.5084  0.3633
 9745TIP3    H150726   0.129   6.322  13.549  1.2236 -0.6495 -0.7596
 9745TIP3    H250727   0.134   6.436  13.450 -0.3566  0.4433  0.3975
 9746TIP3   OH250728   4.507   3.563  11.641  0.8404 -0.2346 -0.2456
 9746TIP3    H150729   4.533   3.621  11.712 -0.5550 -0.5914  0.5671
 9746TIP3    H250730   4.436   3.609  11.597 -0.0780 -1.1790  0.2254
 9747TIP3   OH250731   3.361   2.241  13.838  0.1075 -0.1230 -0.6952
 9747TIP3    H150732   3.357   2.324  13.886  2.5930 -0.9696  1.0696
 9747TIP3    H250733   3.294   2.186  13.878  1.0598 -0.2582  0.7269
 9748TIP3   OH250734   1.452   4.399  14.206 -0.2514  0.1757  0.5882
 9748TIP3    H150735   1.390   4.330  14.230 -0.6379 -0.1002 -1.1789
 9748TIP3    H250736   1.536   4.369  14.240 -1.0040  0.4315  2.7727
 9749TIP3   OH250737   4.099   2.027  14.554 -0.2390  0.3485 -0.2121
 9749TIP3    H150738   4.119   1.953  14.496 -0.4799  1.8901 -2.3169
 9749TIP3    H250739   4.004   2.039  14.545 -0.0031  1.7722 -0.9720
 9750TIP3   OH250740   5.156   2.986   0.610  0.1796 -0.0801 -0.1396
 9750TIP3    H150741   5.203   2.909   0.577  0.7643  0.7687 -1.3128
 9750TIP3    H250742   5.131   3.034   0.531 -0.0589  1.0113  0.6005
 9751TIP3   OH250743   5.234   1.016  10.834  0.2167  0.3184 -0.3646
 9751TIP3    H150744   5.242   1.061  10.917 -3.1303 -0.2786  0.3674
 9751TIP3    H250745   5.171   1.069  10.784 -1.0471 -1.5644 -0.8339
 9752TIP3   OH250746   4.325   5.006   4.349 -0.6465  0.3612  0.6854
 9752TIP3    H150747   4.421   5.002   4.351 -0.6497  0.7446  1.7848
 9752TIP3    H250748   4.299   4.918   4.322  0.0220  0.3963 -0.1153
 9753TIP3   OH250749   0.287   3.606  14.515  0.1017  0.2397 -0.6697
 9753TIP3    H150750   0.343   3.561  14.452  0.9121  1.7669 -1.0626
 9753TIP3    H250751   0.221   3.649  14.462  0.2251  0.7478 -0.4169
 9754TIP3   OH250752   4.220   2.828   3.690 -0.4830 -0.0146 -0.0523
 9754TIP3    H150753   4.217   2.800   3.599 -1.4925  0.5098 -0.1737
 9754TIP3    H250754   4.264   2.755   3.735  2.1259  0.6975 -1.3048
 9755TIP3   OH250755   1.218   1.419  14.688 -0.6292  0.2690 -0.4981
 9755TIP3    H150756   1.287   1.420  14.621 -1.2223 -1.5992 -1.1861
 9755TIP3    H250757   1.192   1.327  14.692 -0.6737  0.3799  2.2454
 9756TIP3   OH250758   3.857   1.519  15.058  0.0774 -0.4932  0.5845
 9756TIP3    H150759   3.847   1.433  15.100 -2.2015 -0.3909  0.3035
 9756TIP3    H250760   3.943   1.515  15.015  0.0365 -2.5963  0.6511
 9757TIP3   OH250761   3.648   5.170  10.259  0.4327 -0.4666 -0.1433
 9757TIP3    H150762   3.682   5.116  10.187 -0.7267 -2.8926  1.0753
 9757TIP3    H250763   3.555   5.183  10.237  0.0772 -1.2113  0.8904
 9758TIP3   OH250764   4.534   4.156   2.950  0.4864  0.1091  0.6986
 9758TIP3    H150765   4.496   4.236   2.985 -0.3529  0.3540 -0.7163
 9758TIP3    H250766   4.478   4.086   2.982 -0.8951  0.4222 -0.9264
 9759TIP3   OH250767   2.437   6.726  12.560  0.0939  0.3001 -0.5735
 9759TIP3    H150768   2.505   6.717  12.627  0.4822  2.4545 -0.6230
 9759TIP3    H250769   2.482   6.708  12.478 -0.2594 -1.8099 -0.3439
 9760TIP3   OH250770   5.657   0.670   5.919 -0.1290 -0.5346  0.0335
 9760TIP3    H150771   5.638   0.676   6.012  0.2394  1.7620 -0.0055
 9760TIP3    H250772   5.572   0.678   5.876 -0.0576  0.6762  0.1127
 9761TIP3   OH250773   1.153   1.788   2.583 -0.1693  0.5555 -0.1015
 9761TIP3    H150774   1.192   1.714   2.630 -0.6691  0.8109  0.7367
 9761TIP3    H250775   1.212   1.804   2.510 -0.0578 -0.6762 -0.2924
 9762TIP3   OH250776   6.055   0.433  10.352  0.1682 -0.4079  0.2115
 9762TIP3    H150777   6.023   0.393  10.433  0.5447  0.7017  0.9207
 9762TIP3    H250778   6.138   0.474  10.377 -0.1272  0.6788 -0.5273
 9763TIP3   OH250779   0.929   2.178   3.109 -0.0656 -0.1920  0.3373
 9763TIP3    H150780   0.917   2.262   3.063  1.9227 -0.3964 -0.6031
 9763TIP3    H250781   1.015   2.185   3.149 -0.0226 -1.6738  0.5055
 9764TIP3   OH250782   2.443   1.027   5.669  0.8177  0.0041 -0.3790
 9764TIP3    H150783   2.400   1.089   5.610  2.6648  1.2441 -0.4605
 9764TIP3    H250784   2.487   0.965   5.611  0.0131 -0.6590 -0.2927
 9765TIP3   OH250785   6.504   6.330   0.912  0.1793 -1.0751 -0.1907
 9765TIP3    H150786   6.433   6.266   0.914  0.3039 -1.2471 -1.0024
 9765TIP3    H250787   6.525   6.346   1.004 -1.3406 -0.5325  0.0582
 9766TIP3   OH250788   5.890   2.409   0.946 -0.2767 -0.0234 -0.0922
 9766TIP3    H150789   5.844   2.482   0.988  0.2364  0.8896 -1.1142
 9766TIP3    H250790   5.949   2.450   0.883 -0.1915 -1.3361 -0.8877
 9767TIP3   OH250791   4.786   0.938  14.235 -0.5248  0.3389 -0.1509
 9767TIP3    H150792   4.845   0.900  14.170  0.7547 -1.0318  1.7433
 9767TIP3    H250793   4.765   0.866  14.294 -0.2983  1.8849  1.9057
 9768TIP3   OH250794   3.780   1.515  11.037 -0.1093  0.5041 -0.2196
 9768TIP3    H150795   3.808   1.515  11.128 -1.0374 -1.0327  0.0759
 9768TIP3    H250796   3.846   1.569  10.992  1.2067  0.0217  1.0892
 9769TIP3   OH250797   3.897   3.107   4.498  0.2199 -0.5466 -0.1231
 9769TIP3    H150798   3.845   3.171   4.548 -1.0208 -0.8328 -1.0502
 9769TIP3    H250799   3.900   3.030   4.555  1.2509  0.1180  0.7559
 9770TIP3   OH250800   5.436   2.100  16.535  0.2639 -0.0512  0.6442
 9770TIP3    H150801   5.341   2.112  16.534  0.2401 -0.2762 -0.3135
 9770TIP3    H250802   5.453   2.038  16.464  1.2314  0.8392  0.0881
 9771TIP3   OH250803   3.896   0.933  14.809 -0.2361 -0.0505 -0.5865
 9771TIP3    H150804   3.964   0.880  14.768 -0.6205 -0.6396 -0.4724
 9771TIP3    H250805   3.943   0.997  14.862  0.2023 -1.6950  1.0555
 9772TIP3   OH250806   5.237   3.379  15.461 -0.3907 -0.4252  0.4909
 9772TIP3    H150807   5.277   3.341  15.539 -0.2895 -0.1518  0.5739
 9772TIP3    H250808   5.208   3.466  15.489 -0.9070 -0.5597  0.3878
 9773TIP3   OH250809   5.135   1.088  14.577 -1.0308  0.1446 -0.7836
 9773TIP3    H150810   5.200   1.158  14.584  0.6603 -1.3987 -0.5539
 9773TIP3    H250811   5.051   1.132  14.590  0.0167  2.0466 -0.1531
 9774TIP3   OH250812   1.667   1.580   2.141 -0.0151 -0.4900  0.4433
 9774TIP3    H150813   1.735   1.550   2.081  1.1952  0.5678  1.2524
 9774TIP3    H250814   1.666   1.514   2.211  0.0149 -0.6328  0.3095
 9775TIP3   OH250815   1.641   4.665   5.429  0.1432 -0.3537 -0.3792
 9775TIP3    H150816   1.711   4.649   5.492  0.4420 -1.1840 -0.9195
 9775TIP3    H250817   1.581   4.591   5.441  0.8682 -1.2246 -1.9829
 9776TIP3   OH250818   2.739   0.457  12.093  0.0764 -0.4631  0.2033
 9776TIP3    H150819   2.812   0.395  12.083  0.0940 -0.6806  1.6518
 9776TIP3    H250820   2.727   0.493  12.005  3.3055  1.1158  0.3599
 9777TIP3   OH250821   5.854   0.489   3.919 -0.1340  0.5381  0.1205
 9777TIP3    H150822   5.799   0.450   3.852  1.4038 -1.9317  0.2473
 9777TIP3    H250823   5.810   0.471   4.001 -0.0348  0.1389  0.0844
 9778TIP3   OH250824   2.740   0.375   5.597  0.4210 -0.1775 -0.0037
 9778TIP3    H150825   2.729   0.352   5.689  1.8175 -1.7961 -0.2267
 9778TIP3    H250826   2.806   0.445   5.598  1.5293 -1.2027  0.1371
 9779TIP3   OH250827   5.446   1.848   1.660  0.5387 -0.2712  0.1081
 9779TIP3    H150828   5.482   1.839   1.572 -0.2238 -2.1447 -0.0405
 9779TIP3    H250829   5.361   1.804   1.656  0.2068  0.1930  1.6129
 9780TIP3   OH250830   0.164   4.940  12.981 -0.1880  0.0450 -0.3030
 9780TIP3    H150831   0.242   4.894  12.950  1.0052  1.6472  0.2364
 9780TIP3    H250832   0.131   4.985  12.903  0.6466  1.0393 -0.0981
 9781TIP3   OH250833   4.875   0.292  12.980 -0.3991  0.7361 -0.2749
 9781TIP3    H150834   4.884   0.211  13.030  0.9635  1.9134  1.4341
 9781TIP3    H250835   4.781   0.300  12.964 -1.0668  1.1403  3.5168
 9782TIP3   OH250836   0.895   3.624   1.035 -0.1392 -0.1603  0.3243
 9782TIP3    H150837   0.823   3.571   1.001 -0.8589 -1.2592  3.3831
 9782TIP3    H250838   0.970   3.601   0.981 -0.9154 -2.8577  0.3212
 9783TIP3   OH250839   6.694   3.113   0.783  0.0194 -1.3305  0.4746
 9783TIP3    H150840   6.714   3.023   0.810 -0.3157 -1.3677  0.6004
 9783TIP3    H250841   6.665   3.156   0.863 -1.8229 -1.6875  0.0184
 9784TIP3   OH250842   6.323   1.006  13.277 -0.5882  0.1415  0.6064
 9784TIP3    H150843   6.333   1.024  13.371 -1.4416  1.3619  0.4757
 9784TIP3    H250844   6.405   1.037  13.238 -0.1472 -0.5586  0.9769
 9785TIP3   OH250845   3.155   1.655  17.100 -0.4221 -0.6577 -0.3533
 9785TIP3    H150846   3.118   1.738  17.130  1.3264  0.3040 -0.8269
 9785TIP3    H250847   3.220   1.632  17.166  1.0512 -0.2424 -1.6394
 9786TIP3   OH250848   0.973   6.480  16.373  0.2989  0.1031  0.0375
 9786TIP3    H150849   1.068   6.480  16.379  0.3956  1.5153 -1.1299
 9786TIP3    H250850   0.948   6.389  16.382  1.7487 -0.2642  0.5159
 9787TIP3   OH250851   4.488   1.407   1.403  0.1557  0.0136 -0.3071
 9787TIP3    H150852   4.545   1.428   1.476  0.4740  1.4192 -0.9279
 9787TIP3    H250853   4.402   1.392   1.443  0.2118  1.2714  0.3115
 9788TIP3   OH250854   2.635   1.798   3.581  0.0783  0.0279  0.1185
 9788TIP3    H150855   2.709   1.858   3.573  0.4643 -0.3597  0.7663
 9788TIP3    H250856   2.612   1.801   3.674 -1.4009  0.9573 -0.2581
 9789TIP3   OH250857   1.662   0.097  17.076  0.1479 -0.2914  0.0212
 9789TIP3    H150858   1.600   0.024  17.077 -0.0472 -0.1223  0.3018
 9789TIP3    H250859   1.746   0.057  17.098  0.0063 -0.3994  0.3606
 9790TIP3   OH250860   4.013   0.527   1.581 -0.3619  0.3786 -0.5230
 9790TIP3    H150861   3.967   0.469   1.520 -0.1568 -1.0230  0.6270
 9790TIP3    H250862   4.076   0.574   1.527  0.3747 -1.4381 -1.2602
 9791TIP3   OH250863   0.395   5.054   1.381  0.7747  0.3317 -0.2231
 9791TIP3    H150864   0.348   5.090   1.306 -2.9193 -0.8102  1.4455
 9791TIP3    H250865   0.358   5.099   1.457 -0.3166 -3.2514  1.4712
 9792TIP3   OH250866   2.616   1.693   4.970  0.2776 -0.0572 -0.2078
 9792TIP3    H150867   2.653   1.609   4.944  0.3851  0.8878 -3.3020
 9792TIP3    H250868   2.557   1.672   5.042 -0.6513 -3.0022 -1.7283
 9793TIP3   OH250869   4.719   3.325   4.057  0.1570  0.5317 -0.4667
 9793TIP3    H150870   4.800   3.282   4.029  0.8479  1.5720 -0.1270
 9793TIP3    H250871   4.676   3.352   3.976 -1.0907 -2.1842 -0.7570
 9794TIP3   OH250872   3.678   2.709   1.221  0.1809  0.7262 -0.2269
 9794TIP3    H150873   3.713   2.626   1.251  0.4877  0.5477 -1.0746
 9794TIP3    H250874   3.734   2.776   1.261 -0.3160  0.5416  0.7812
 9795TIP3   OH250875   3.140   3.043   2.747  0.4806 -0.3020 -0.0074
 9795TIP3    H150876   3.083   3.090   2.808  0.9279  0.4193 -0.1454
 9795TIP3    H250877   3.150   3.103   2.673 -1.5407 -1.8621 -1.6409
 9796TIP3   OH250878   5.558   5.537   3.600  0.2247 -0.2225 -0.1013
 9796TIP3    H150879   5.630   5.573   3.652 -0.5314  0.5571  0.4310
 9796TIP3    H250880   5.570   5.574   3.513  0.0289  0.5146  0.1849
 9797TIP3   OH250881   4.375   1.130   5.523 -0.0762 -0.7316  0.0764
 9797TIP3    H150882   4.469   1.146   5.510 -0.1920  0.6911  0.9573
 9797TIP3    H250883   4.354   1.174   5.605 -1.5117 -1.1106 -0.0714
 9798TIP3   OH250884   3.303   0.236  15.678 -0.2311 -0.3363  0.0752
 9798TIP3    H150885   3.264   0.254  15.764  0.9419 -1.0531  0.7750
 9798TIP3    H250886   3.282   0.145  15.660 -3.6559  0.7906 -2.1332
 9799TIP3   OH250887   4.670   0.512   2.388  0.2563 -0.1606  0.2340
 9799TIP3    H150888   4.728   0.574   2.343 -0.4920  0.8857  0.7060
 9799TIP3    H250889   4.586   0.521   2.344  1.0162 -3.4287 -2.0640
 9800TIP3   OH250890   3.452   2.400  16.313 -0.5322 -0.1199 -0.1967
 9800TIP3    H150891   3.492   2.313  16.317  1.0715  0.6115  0.4589
 9800TIP3    H250892   3.467   2.437  16.400  2.6978  2.4402 -1.7093
 9801TIP3   OH250893   4.290   5.642  12.679 -0.2368  0.0927  0.3755
 9801TIP3    H150894   4.373   5.686  12.661 -0.5544  0.9135  0.9057
 9801TIP3    H250895   4.223   5.705  12.652 -0.7069 -1.2503 -1.7269
 9802TIP3   OH250896   0.646   0.982   3.984 -0.1402  0.4228  0.2975
 9802TIP3    H150897   0.644   0.897   3.940 -0.9431 -0.7155  2.4484
 9802TIP3    H250898   0.673   1.044   3.916  2.3099 -1.8251 -0.8602
 9803TIP3   OH250899   5.339   4.059  10.570  0.0753 -0.1243 -0.4550
 9803TIP3    H150900   5.354   3.969  10.596 -1.3361 -1.4412 -3.8533
 9803TIP3    H250901   5.427   4.098  10.565  0.8139 -1.7518 -0.3928
 9804TIP3   OH250902   2.303   5.974  15.751  0.7083  0.1831 -0.3691
 9804TIP3    H150903   2.393   5.973  15.719  0.5907  0.9947 -0.7360
 9804TIP3    H250904   2.256   5.918  15.690  0.6541  1.0429 -1.1364
 9805TIP3   OH250905   3.643   2.998   3.539 -0.2249  0.6109  0.4073
 9805TIP3    H150906   3.711   3.016   3.475 -0.5040 -0.1872 -0.1284
 9805TIP3    H250907   3.594   3.080   3.546  1.4216  1.4949  1.5779
 9806TIP3   OH250908   1.410   5.394   1.231 -0.2640 -0.4153  0.2672
 9806TIP3    H150909   1.334   5.453   1.223 -0.5485 -0.7885  0.1936
 9806TIP3    H250910   1.460   5.429   1.305  1.2527  1.7965 -1.7565
 9807TIP3   OH250911   5.543   0.398  16.362 -0.1243 -0.4060 -0.1436
 9807TIP3    H150912   5.552   0.485  16.323 -1.2164 -0.2476 -0.0586
 9807TIP3    H250913   5.633   0.369  16.379  0.2812  0.3044 -1.0573
 9808TIP3   OH250914   1.357   4.036  12.381  0.1352 -0.2187 -0.3344
 9808TIP3    H150915   1.338   3.982  12.304 -0.8680 -0.9536  0.4036
 9808TIP3    H250916   1.277   4.030  12.433  0.9662 -0.0885  0.9629
 9809TIP3   OH250917   1.983   6.441   1.174  0.6613 -0.2635  0.0247
 9809TIP3    H150918   1.995   6.524   1.129 -0.7048  0.3993  0.8488
 9809TIP3    H250919   2.046   6.443   1.246  0.0602  0.4112  0.5308
 9810TIP3   OH250920   4.979   2.069   3.981 -0.2393 -0.2511  0.3075
 9810TIP3    H150921   4.924   2.013   3.928  0.2809  0.4821 -1.0279
 9810TIP3    H250922   5.068   2.036   3.968  0.0893  0.9830 -0.6311
 9811TIP3   OH250923   2.154   2.919  15.136 -0.0636  0.1727  0.0356
 9811TIP3    H150924   2.160   2.978  15.061 -2.7783 -0.2835 -0.5668
 9811TIP3    H250925   2.085   2.858  15.114 -0.2072 -0.6012  2.4927
 9812TIP3   OH250926   4.105   6.290   2.375 -0.3088  0.5082  0.2212
 9812TIP3    H150927   4.186   6.247   2.403  0.5836  0.8424 -1.8312
 9812TIP3    H250928   4.036   6.241   2.421  0.8538 -1.6499 -0.2398
 9813TIP3   OH250929   6.540   6.113  15.390 -0.1634 -0.2401 -0.6252
 9813TIP3    H150930   6.538   6.102  15.295 -1.0033  0.5841 -0.7080
 9813TIP3    H250931   6.457   6.155  15.411 -0.3334 -1.1641  0.5733
 9814TIP3   OH250932   3.816   2.230  16.539 -0.3455  0.1743  0.0526
 9814TIP3    H150933   3.806   2.261  16.629 -1.7219 -0.1930  0.0371
 9814TIP3    H250934   3.876   2.156  16.546 -0.7958 -0.1367  0.7375
 9815TIP3   OH250935   4.237   4.111   0.165 -0.3083  0.1006 -0.0618
 9815TIP3    H150936   4.168   4.166   0.203  1.0898 -0.2527  3.1634
 9815TIP3    H250937   4.318   4.157   0.186  0.6138 -0.9112 -1.3634
 9816TIP3   OH250938   5.277   4.137   0.701 -0.4952 -0.0791  0.1837
 9816TIP3    H150939   5.337   4.099   0.637 -0.4296  1.1406 -0.4901
 9816TIP3    H250940   5.226   4.200   0.651 -0.3466  0.9869  1.3633
 9817TIP3   OH250941   3.931   0.475   5.341 -0.1714 -0.6568  0.2617
 9817TIP3    H150942   3.958   0.555   5.386  0.7486 -1.3866  1.0354
 9817TIP3    H250943   3.926   0.499   5.249  0.0097  0.3041  0.4984
 9818TIP3   OH250944   3.266   4.044  16.615 -0.1866 -0.6235  0.1037
 9818TIP3    H150945   3.309   3.991  16.548 -0.2035 -0.7109  0.1626
 9818TIP3    H250946   3.258   3.986  16.690 -0.2824 -0.5638  0.1392
 9819TIP3   OH250947   4.811   3.885   1.448  0.1858  0.7802  0.1087
 9819TIP3    H150948   4.868   3.840   1.385 -0.2949 -1.8510  1.4645
 9819TIP3    H250949   4.724   3.880   1.409  0.0200 -0.1179  0.5813
 9820TIP3   OH250950   1.143   5.925   2.825 -0.0844  0.0999  0.3338
 9820TIP3    H150951   1.238   5.931   2.830  0.1441  0.4119 -3.1870
 9820TIP3    H250952   1.113   6.016   2.827 -0.4234 -0.0255  2.3779
 9821TIP3   OH250953   0.018   3.095  13.051  0.2439 -0.0154 -0.5372
 9821TIP3    H150954   0.008   3.104  13.145  0.0396  1.4988 -0.6862
 9821TIP3    H250955  -0.057   3.044  13.023  0.9353 -1.5027  0.2626
 9822TIP3   OH250956   6.688   5.029   0.886 -0.1731 -0.6515 -0.4064
 9822TIP3    H150957   6.707   4.989   0.801 -1.1035 -1.4422 -0.2526
 9822TIP3    H250958   6.629   4.967   0.929 -1.3720  0.7232 -0.0321
 9823TIP3   OH250959   5.177   3.138  17.258  0.3526 -0.4793  0.2940
 9823TIP3    H150960   5.182   3.179  17.344 -2.5486 -3.6501  2.0798
 9823TIP3    H250961   5.267   3.110  17.239  1.0889  0.6055  2.1016
 9824TIP3   OH250962   5.378   5.066  11.557 -0.2909 -0.1401  0.3608
 9824TIP3    H150963   5.315   5.031  11.494 -0.3897  1.5320 -0.5192
 9824TIP3    H250964   5.463   5.043  11.521 -0.3730 -0.6811  0.5125
 9825TIP3   OH250965   6.023   2.303   2.455  0.6597 -0.0086 -0.5477
 9825TIP3    H150966   6.023   2.323   2.548  3.0748 -0.4398 -0.4196
 9825TIP3    H250967   5.991   2.213   2.450  0.2082  0.1307 -0.1643
 9826TIP3   OH250968   0.699   3.458  10.360  0.1822 -0.1063 -0.4648
 9826TIP3    H150969   0.718   3.510  10.438 -0.4721  0.0907 -0.4379
 9826TIP3    H250970   0.632   3.508  10.314 -1.2887 -1.4905  0.1455
 9827TIP3   OH250971   2.998   3.888  15.925  0.0267  0.4834 -0.1333
 9827TIP3    H150972   2.923   3.926  15.969 -0.8617 -1.1313 -0.2021
 9827TIP3    H250973   3.019   3.810  15.977  1.8282  1.0403  0.0453
 9828TIP3   OH250974   5.309   5.007  13.046  0.0383  0.0440  0.5003
 9828TIP3    H150975   5.358   5.076  13.001 -1.2260 -0.1787 -1.2564
 9828TIP3    H250976   5.369   4.932  13.045 -0.0491 -0.0257 -1.0317
 9829TIP3   OH250977   3.046   6.346   2.943 -0.2606  0.0085 -0.8481
 9829TIP3    H150978   2.990   6.423   2.933 -3.0339 -1.8183  0.0709
 9829TIP3    H250979   3.055   6.335   3.037 -0.3052 -1.0545 -0.9572
 9830TIP3   OH250980   3.345   6.677  13.136 -0.2550 -0.5696  0.6105
 9830TIP3    H150981   3.282   6.745  13.112  1.4179  1.3271  1.4108
 9830TIP3    H250982   3.302   6.628  13.206 -1.3005 -0.0262  0.3645
 9831TIP3   OH250983   5.570   1.354  14.729 -0.0146 -0.2314  0.0439
 9831TIP3    H150984   5.495   1.305  14.762 -0.7225  1.3480  0.8479
 9831TIP3    H250985   5.532   1.437  14.698  1.4902  0.9648  1.3070
 9832TIP3   OH250986   3.177   1.101  15.180  0.9371 -0.5765  0.1707
 9832TIP3    H150987   3.225   1.037  15.233  1.6481 -0.2798 -0.0955
 9832TIP3    H250988   3.235   1.116  15.105  0.3181 -0.3722 -0.2651
 9833TIP3   OH250989   3.411   0.527   0.282  0.3788  0.1174  0.4727
 9833TIP3    H150990   3.327   0.570   0.266  0.5022  0.3629  0.4796
 9833TIP3    H250991   3.456   0.585   0.344  1.5516  1.2489 -1.4011
 9834TIP3   OH250992   3.131   5.304  15.186  0.0544 -0.3150  0.7867
 9834TIP3    H150993   3.106   5.347  15.267  1.2417 -1.6402  1.8799
 9834TIP3    H250994   3.071   5.229  15.178 -0.0837 -0.1693  0.4161
 9835TIP3   OH250995   3.005   1.060   4.253  0.0564  0.1688  0.0359
 9835TIP3    H150996   3.053   1.070   4.336 -0.9081 -1.6042  0.8343
 9835TIP3    H250997   3.062   1.102   4.188  0.9151  1.4341  1.5531
 9836TIP3   OH250998   5.848   5.558   2.201  0.0516  0.0321 -0.5288
 9836TIP3    H150999   5.859   5.629   2.265 -0.5332  1.1182 -1.6101
 9836TIP3    H251000   5.876   5.596   2.118 -1.2326 -0.6774 -1.3068
 9837TIP3   OH251001   6.615   3.737  13.523  0.0573 -0.8844  0.3131
 9837TIP3    H151002   6.559   3.783  13.461 -0.3369  0.5121  1.6963
 9837TIP3    H251003   6.682   3.697  13.468 -1.1852 -0.9832 -1.1701
 9838TIP3   OH251004   3.357   0.572  12.455 -0.4855 -0.3726  0.2300
 9838TIP3    H151005   3.386   0.631  12.385 -0.7935 -2.3822 -1.6590
 9838TIP3    H251006   3.331   0.492  12.409 -0.2877 -1.9033  2.6954
 9839TIP3   OH251007   6.715   2.527  15.976  0.3580 -0.3083 -0.1692
 9839TIP3    H151008   6.787   2.552  15.919 -0.4440  1.6297 -0.3571
 9839TIP3    H251009   6.733   2.436  15.999  2.8001  0.1228 -0.2905
 9840TIP3   OH251010   3.972   1.778  14.699  0.1256  0.5969  0.3119
 9840TIP3    H151011   3.913   1.708  14.671  1.8643 -0.0878 -1.8421
 9840TIP3    H251012   3.942   1.856  14.653  0.0133  0.5881  0.3690
 9841TIP3   OH251013   3.460   6.073  15.342 -0.2637  0.7171  0.0104
 9841TIP3    H151014   3.413   6.109  15.417 -1.4793  0.8526 -0.7955
 9841TIP3    H251015   3.411   6.106  15.266 -0.5487 -1.4874 -0.7804
 9842TIP3   OH251016   1.127   2.785   5.933 -0.1746 -0.3226  0.2594
 9842TIP3    H151017   1.168   2.754   6.013  1.7911  2.5765  0.4329
 9842TIP3    H251018   1.054   2.839   5.962 -0.3147 -0.4021  0.0616
 9843TIP3   OH251019   1.822   0.175  14.120  0.0545 -1.0398  0.3088
 9843TIP3    H151020   1.742   0.221  14.097  1.1961  0.7024 -0.2345
 9843TIP3    H251021   1.794   0.086  14.140 -2.6006  0.5600  4.1661
 9844TIP3   OH251022   4.595   0.500   6.919  0.7104 -0.1109  0.2948
 9844TIP3    H151023   4.523   0.448   6.953  2.0515 -1.2760  1.4409
 9844TIP3    H251024   4.560   0.589   6.912 -1.2167 -0.9075 -0.4501
 9845TIP3   OH251025   5.353   5.803  16.636  0.1314 -0.0349  0.0483
 9845TIP3    H151026   5.369   5.726  16.582  0.4541  0.2968 -0.3393
 9845TIP3    H251027   5.258   5.812  16.639  0.0431 -1.1885  1.1517
 9846TIP3   OH251028   3.240   6.437   3.640 -0.0235  0.4262 -0.0025
 9846TIP3    H151029   3.309   6.492   3.602 -1.2015  1.8438 -0.0955
 9846TIP3    H251030   3.281   6.351   3.648  0.4352  0.1859 -3.9896
 9847TIP3   OH251031   4.065   3.113  12.826  0.2559  0.4383  0.1608
 9847TIP3    H151032   4.076   3.021  12.849  2.5023  0.2037 -1.6658
 9847TIP3    H251033   3.996   3.113  12.760  0.5960  0.0112 -0.1987
 9848TIP3   OH251034   3.463   4.515   5.316  0.2779  0.0183  0.0562
 9848TIP3    H151035   3.432   4.460   5.244  0.8374  1.2304 -1.1314
 9848TIP3    H251036   3.414   4.485   5.392  0.5706 -2.1015 -0.5799
 9849TIP3   OH251037   0.263   6.123   0.411 -0.5104 -0.0418 -0.0346
 9849TIP3    H151038   0.334   6.092   0.467 -0.1989  0.5229 -0.1230
 9849TIP3    H251039   0.271   6.071   0.331  1.8055  2.2899 -1.3556
 9850TIP3   OH251040   5.140   0.060  12.891  0.1453  0.3853  0.1606
 9850TIP3    H151041   5.125   0.002  12.817  1.9450  1.0633 -0.7497
 9850TIP3    H251042   5.075   0.032  12.957 -0.6600 -0.9940 -1.1899
 9851TIP3   OH251043   3.471   0.787  16.854 -0.9124  0.1939 -0.1384
 9851TIP3    H151044   3.540   0.746  16.803 -0.8894 -2.8470  2.2015
 9851TIP3    H251045   3.516   0.846  16.913 -0.6200  0.7108 -0.8671
 9852TIP3   OH251046   1.285   2.341   2.768 -0.4554  0.2878 -0.6132
 9852TIP3    H151047   1.349   2.355   2.698 -0.0266  1.7090  0.0343
 9852TIP3    H251048   1.264   2.430   2.799 -1.7810 -0.2466  0.0287
 9853TIP3   OH251049   5.519   4.914   4.964 -0.1716 -0.2330  0.2132
 9853TIP3    H151050   5.463   4.836   4.958  0.7565 -0.9408  0.6658
 9853TIP3    H251051   5.493   4.957   5.045 -0.3274 -0.3407  0.2210
 9854TIP3   OH251052   4.591   0.869  15.590  0.6216 -0.4455  0.5400
 9854TIP3    H151053   4.603   0.962  15.574 -1.0366 -0.5127 -1.2782
 9854TIP3    H251054   4.535   0.865  15.668  1.3810  0.0596  1.1121
 9855TIP3   OH251055   5.380   0.243  15.093 -0.0261  0.3006  0.1422
 9855TIP3    H151056   5.309   0.208  15.039 -0.5535  1.2886  0.1844
 9855TIP3    H251057   5.380   0.337  15.074  0.7058  0.4348  0.7946
 9856TIP3   OH251058   4.309   2.976  16.808 -0.3330  0.0071  0.0398
 9856TIP3    H151059   4.359   3.048  16.844 -1.7938  0.8340  0.4847
 9856TIP3    H251060   4.257   3.014  16.737  0.3892 -1.0263 -1.0600
 9857TIP3   OH251061   3.259   4.475   4.174 -0.3433  0.5124  0.5284
 9857TIP3    H151062   3.332   4.536   4.164 -0.0945  0.0916 -0.2789
 9857TIP3    H251063   3.184   4.530   4.196  0.0056  1.0506  0.3708
 9858TIP3   OH251064   0.101   1.974  14.299  0.3333  0.5732 -0.6368
 9858TIP3    H151065   0.010   1.983  14.269  0.6621  1.3033 -1.4337
 9858TIP3    H251066   0.153   2.005  14.225  1.1640  2.8635  0.8663
 9859TIP3   OH251067   5.808   4.624   1.867  0.1023  0.8170 -0.3837
 9859TIP3    H151068   5.779   4.593   1.953 -3.1232  1.1181 -1.3163
 9859TIP3    H251069   5.765   4.565   1.805  2.7500  0.3233 -1.8241
 9860TIP3   OH251070   1.594   5.695  11.775 -0.2178 -0.8637  0.2495
 9860TIP3    H151071   1.524   5.736  11.825 -0.1867  2.2742 -2.1321
 9860TIP3    H251072   1.618   5.618  11.826 -3.7581 -0.7048  2.3187
 9861TIP3   OH251073   3.619   0.403  13.154  0.3361 -0.6457 -0.1766
 9861TIP3    H151074   3.554   0.352  13.203 -0.0679 -0.6102 -0.6786
 9861TIP3    H251075   3.665   0.338  13.101  0.3266 -0.5867 -0.2567
 9862TIP3   OH251076   0.416   0.179   5.797 -0.3795 -0.5276 -0.0482
 9862TIP3    H151077   0.341   0.225   5.759  0.1694 -1.3723 -2.2306
 9862TIP3    H251078   0.477   0.249   5.821 -0.8811  0.0509 -0.4258
 9863TIP3   OH251079   1.072   1.583  13.649 -0.2610 -0.1645  0.2669
 9863TIP3    H151080   1.018   1.557  13.724 -1.0872 -0.5376 -0.4563
 9863TIP3    H251081   1.010   1.617  13.585  0.7419  3.2658  0.9922
 9864TIP3   OH251082   6.285   0.325   1.779 -0.0640  0.2272  0.0071
 9864TIP3    H151083   6.239   0.369   1.707  0.8865  0.9361 -0.1811
 9864TIP3    H251084   6.236   0.244   1.793  1.1315 -1.1212 -3.0744
 9865TIP3   OH251085   5.588   1.515   5.162  0.1010  0.6734 -0.2629
 9865TIP3    H151086   5.559   1.528   5.072  2.1015  2.3186 -0.6986
 9865TIP3    H251087   5.593   1.420   5.172 -0.4162  0.4725 -1.8009
 9866TIP3   OH251088   0.622   5.656  11.714  0.7183 -0.3516  0.4163
 9866TIP3    H151089   0.639   5.572  11.756 -1.0502 -0.2118  1.4617
 9866TIP3    H251090   0.695   5.712  11.742  0.5602 -0.8108  1.7966
 9867TIP3   OH251091   5.619   5.834   5.453 -0.1905  0.2413  0.8060
 9867TIP3    H151092   5.616   5.846   5.548  1.8539 -1.0021  1.0661
 9867TIP3    H251093   5.695   5.884   5.425  0.0802 -0.6039  0.0194
 9868TIP3   OH251094   0.779   4.058  14.091 -0.2777 -0.0071  0.0751
 9868TIP3    H151095   0.688   4.074  14.064 -0.1217  0.1456 -0.3595
 9868TIP3    H251096   0.778   3.968  14.125 -0.1161 -0.8078 -2.0036
 9869TIP3   OH251097   6.188   4.750   1.593 -0.4370  1.0531 -0.0625
 9869TIP3    H151098   6.182   4.835   1.636  1.1394 -0.3450  3.0833
 9869TIP3    H251099   6.122   4.696   1.636 -1.0296  0.4864 -1.6326
 9870TIP3   OH251100   6.495   2.789   0.774  0.3187 -0.8344  0.1400
 9870TIP3    H151101   6.469   2.706   0.735  0.2352 -0.6843 -0.1218
 9870TIP3    H251102   6.501   2.850   0.701  1.6262 -0.9172  0.1664
 9871TIP3   OH251103   1.269   1.158   1.253 -0.0981  0.4024  0.2090
 9871TIP3    H151104   1.195   1.185   1.198  0.3306 -0.1812 -0.6725
 9871TIP3    H251105   1.291   1.070   1.222  0.5149  0.2957  0.9387
 9872TIP3   OH251106   0.965   3.579   1.989  0.1593  0.0716 -0.7302
 9872TIP3    H151107   1.059   3.573   1.972  0.2242  1.6215 -0.9933
 9872TIP3    H251108   0.924   3.529   1.918  0.8125 -1.4705 -0.0343
 9873TIP3   OH251109   0.170   4.537   4.715 -0.1795  0.4393  0.6955
 9873TIP3    H151110   0.208   4.529   4.802  0.0886  0.2941  0.5679
 9873TIP3    H251111   0.178   4.449   4.678  3.0428  1.2978 -0.8451
 9874TIP3   OH251112   3.983   0.668   5.517 -0.0579 -0.8395  0.0647
 9874TIP3    H151113   3.919   0.603   5.547 -0.8485 -0.2746 -0.3650
 9874TIP3    H251114   4.044   0.677   5.590 -0.5319 -1.3183  0.5261
 9875TIP3   OH251115   5.159   1.968  16.201 -0.2063 -0.5679 -0.0562
 9875TIP3    H151116   5.220   2.041  16.190  0.0436 -0.4053  2.0688
 9875TIP3    H251117   5.210   1.890  16.180  0.7028 -0.4188  1.5568
 9876TIP3   OH251118   4.372   5.402   3.154  0.6650  0.1709  0.4565
 9876TIP3    H151119   4.399   5.324   3.203 -1.3812 -1.4754 -0.9455
 9876TIP3    H251120   4.278   5.408   3.170  0.8542  2.5522  0.7759
 9877TIP3   OH251121   2.523   2.702   5.110 -0.4423 -0.0841  0.5130
 9877TIP3    H151122   2.546   2.612   5.132 -2.3363 -0.5162  0.7536
 9877TIP3    H251123   2.428   2.706   5.118 -0.5502  1.4939 -1.1091
 9878TIP3   OH251124   3.326   5.355   2.854 -0.0278  0.3838  0.1960
 9878TIP3    H151125   3.416   5.369   2.885 -0.1515  0.1262  0.6735
 9878TIP3    H251126   3.336   5.342   2.759  0.3916  0.7793  0.1803
 9879TIP3   OH251127   6.435   1.954  15.349 -0.1117  0.2477 -0.5455
 9879TIP3    H151128   6.452   1.901  15.271 -1.1673 -0.0925 -0.5625
 9879TIP3    H251129   6.358   1.913  15.388  0.7603  0.0584  1.0043
 9880TIP3   OH251130   2.921   2.582   3.738  0.7391  0.1672 -0.3633
 9880TIP3    H151131   2.907   2.673   3.713 -0.5335 -0.1012 -0.6850
 9880TIP3    H251132   3.009   2.580   3.775 -0.1425  2.0563  2.0166
 9881TIP3   OH251133   3.412   1.586   3.187  0.1609  1.2068  0.2049
 9881TIP3    H151134   3.477   1.650   3.215  0.7160  0.4814  0.5954
 9881TIP3    H251135   3.432   1.508   3.238 -0.4422  0.6865 -0.3472
 9882TIP3   OH251136   5.999   4.136   0.619 -0.0490 -0.1079  0.5406
 9882TIP3    H151137   5.904   4.124   0.624 -0.0431 -0.1774  0.4774
 9882TIP3    H251138   6.032   4.055   0.581  0.1470 -0.5202  1.5746
 9883TIP3   OH251139   4.616   4.944  11.356 -0.3934 -0.1702  0.1079
 9883TIP3    H151140   4.632   5.012  11.422 -1.3378  0.6227 -0.4616
 9883TIP3    H251141   4.523   4.925  11.363 -0.2681 -0.9192 -0.2103
 9884TIP3   OH251142   5.420   4.707   2.853  0.2902  0.0391  0.0782
 9884TIP3    H151143   5.500   4.680   2.808  1.0972  0.9620  0.9320
 9884TIP3    H251144   5.375   4.763   2.790  0.2722 -0.5501 -0.4374
 9885TIP3   OH251145   6.391   1.579  17.034  0.8015 -0.0134  0.7374
 9885TIP3    H151146   6.456   1.638  16.997  1.1435 -1.1009 -0.4091
 9885TIP3    H251147   6.364   1.524  16.961 -0.9494  0.0028  1.3468
 9886TIP3   OH251148   2.902   3.277  13.748 -0.0730  0.0861 -0.3835
 9886TIP3    H151149   2.888   3.189  13.783 -0.9913  0.1413 -0.5989
 9886TIP3    H251150   2.933   3.264  13.659 -0.6709 -0.0152 -0.5777
 9887TIP3   OH251151   5.352   0.889   1.656 -0.3897 -0.4510 -0.3085
 9887TIP3    H151152   5.356   0.809   1.709  2.4764  0.6396  1.2718
 9887TIP3    H251153   5.377   0.860   1.568  0.6267 -1.3083  0.2464
 9888TIP3   OH251154   3.616   3.005   1.434 -0.0788  0.9868  0.0656
 9888TIP3    H151155   3.574   3.049   1.509  0.2652  1.8257 -0.2405
 9888TIP3    H251156   3.551   2.940   1.406 -0.8919  1.8011  0.0437
 9889TIP3   OH251157   1.510   5.377  12.562  0.1596  0.1566  0.0074
 9889TIP3    H151158   1.509   5.282  12.548 -0.3265  0.1839 -0.1571
 9889TIP3    H251159   1.595   5.395  12.601  1.3908 -0.0025 -2.5062
 9890TIP3   OH251160   6.782   2.829   4.351 -0.1324 -0.1666 -0.0256
 9890TIP3    H151161   6.691   2.805   4.335 -0.5317  0.5087  1.0977
 9890TIP3    H251162   6.832   2.789   4.280 -1.1816 -1.4100 -0.0729
 9891TIP3   OH251163   0.332   5.885   0.267 -0.4837  0.8209 -0.3502
 9891TIP3    H151164   0.279   5.885   0.188 -0.8793 -1.4898 -0.1228
 9891TIP3    H251165   0.312   5.802   0.310  1.7053  0.8394  0.8166
 9892TIP3   OH251166   5.198   5.365   5.036  0.3306  0.2879 -0.4346
 9892TIP3    H151167   5.216   5.310   5.112  0.0797  0.8576  0.0370
 9892TIP3    H251168   5.120   5.415   5.059  0.0139  0.1745 -1.2220
 9893TIP3   OH251169   2.895   3.126  16.640  0.3294  0.0211 -0.1018
 9893TIP3    H151170   2.848   3.202  16.674 -0.0935 -0.3199  0.0825
 9893TIP3    H251171   2.879   3.056  16.704 -1.0211 -0.8120 -1.3258
 9894TIP3   OH251172   4.501   5.098   4.096  0.0003  0.0571  0.1101
 9894TIP3    H151173   4.519   5.179   4.144 -0.0822 -0.7862  1.5775
 9894TIP3    H251174   4.408   5.104   4.073  0.2617  0.8817 -0.7606
 9895TIP3   OH251175   6.726   6.522  12.460  0.2465  0.3420 -0.1671
 9895TIP3    H151176   6.758   6.455  12.400 -0.8566  1.0037 -1.5078
 9895TIP3    H251177   6.796   6.587  12.464 -0.4569  1.2483 -2.2350
 9896TIP3   OH251178   2.191   3.961  12.729 -0.0639  0.4028  0.4862
 9896TIP3    H151179   2.216   3.949  12.637 -0.2760  0.1957  0.4532
 9896TIP3    H251180   2.191   3.873  12.766 -2.1077  0.2271  0.1177
 9897TIP3   OH251181   2.206   6.372  15.535 -0.5888  0.2573  0.4123
 9897TIP3    H151182   2.269   6.441  15.556 -0.4805  0.1504  0.4378
 9897TIP3    H251183   2.258   6.304  15.493 -0.9885  0.9409 -1.2145
 9898TIP3   OH251184   6.154   6.225   2.421  0.1230 -0.3886  0.3757
 9898TIP3    H151185   6.109   6.250   2.501 -2.5311 -0.5619 -1.0193
 9898TIP3    H251186   6.192   6.306   2.388 -2.6666  0.6153 -0.5389
 9899TIP3   OH251187   2.861   2.885   2.648 -0.0542  0.3593 -0.0403
 9899TIP3    H151188   2.800   2.873   2.575  0.2729 -0.0184 -0.2485
 9899TIP3    H251189   2.948   2.877   2.609  0.1317 -3.7212  1.0379
 9900TIP3   OH251190   6.650   0.579  14.338  0.5558 -0.1650  0.2847
 9900TIP3    H151191   6.647   0.519  14.413 -1.1888 -0.5563 -0.0807
 9900TIP3    H251192   6.675   0.524  14.264  0.4740 -0.1477  0.2443
 9901TIP3   OH251193   3.645   4.218  12.732  0.5869 -0.2767 -0.1129
 9901TIP3    H151194   3.581   4.286  12.752 -1.2142 -1.5039 -1.5846
 9901TIP3    H251195   3.717   4.264  12.690 -1.1759  0.5757 -2.2814
 9902TIP3   OH251196   3.527   2.495   2.679 -0.0716  0.2636  0.1708
 9902TIP3    H151197   3.468   2.436   2.632 -0.2504  0.0560  0.6441
 9902TIP3    H251198   3.488   2.581   2.668  0.4979  0.3852 -1.0035
 9903TIP3   OH251199   6.464   0.535  11.433 -0.1987  0.1617  0.4034
 9903TIP3    H151200   6.526   0.600  11.467  1.5586 -0.8554 -0.7448
 9903TIP3    H251201   6.466   0.548  11.338 -0.2929 -1.1411  0.2170
 9904TIP3   OH251202   0.738   0.862   5.177 -0.1354  1.0283 -0.0633
 9904TIP3    H151203   0.757   0.793   5.240  0.4842  0.4287 -0.9032
 9904TIP3    H251204   0.768   0.943   5.220  1.0236  0.5302  0.0863
 9905TIP3   OH251205   1.995   6.251  11.164  0.0472 -0.3952 -0.0964
 9905TIP3    H151206   1.996   6.347  11.159  0.3347 -0.4305 -0.7061
 9905TIP3    H251207   1.978   6.233  11.257 -0.4073  0.2437 -0.0474
 9906TIP3   OH251208   6.052   5.758  17.171 -0.4044 -0.1560  0.7004
 9906TIP3    H151209   6.061   5.832  17.110  2.5775 -0.4705  0.6671
 9906TIP3    H251210   6.035   5.683  17.114  0.5172 -0.1334  0.3768
 9907TIP3   OH251211   0.988   3.537   2.921  0.4023  0.2708 -0.3127
 9907TIP3    H151212   0.998   3.443   2.935  1.3931  0.2749 -0.9549
 9907TIP3    H251213   0.903   3.546   2.877  0.5233 -0.3681 -0.6852
 9908TIP3   OH251214   0.712   3.901   3.571 -0.2808  0.3537 -0.0328
 9908TIP3    H151215   0.722   3.996   3.563  1.2016  0.2762  0.6745
 9908TIP3    H251216   0.692   3.886   3.663  1.8763 -0.1732  0.3860
 9909TIP3   OH251217   2.007   4.917   4.224  0.1715  0.2290  0.0085
 9909TIP3    H151218   1.990   4.823   4.229  0.1512  0.1621 -1.1653
 9909TIP3    H251219   1.942   4.950   4.162  1.0701  0.7920 -0.6491
 9910TIP3   OH251220   1.715   6.172  11.049 -0.2025  0.7819  0.7451
 9910TIP3    H151221   1.676   6.240  10.994 -1.1239  0.7768  1.3614
 9910TIP3    H251222   1.734   6.217  11.132 -2.0219  0.0263  1.6195
 9911TIP3   OH251223   0.287   3.988   4.811 -0.0248 -0.1096  0.4667
 9911TIP3    H151224   0.239   4.046   4.870 -0.8723  0.2031 -0.5254
 9911TIP3    H251225   0.232   3.982   4.733 -0.5735 -3.2906  1.0527
 9912TIP3   OH251226   5.665   5.622  13.253 -0.2474 -0.1922  1.2141
 9912TIP3    H151227   5.689   5.536  13.287  0.0685  0.1674  1.9287
 9912TIP3    H251228   5.661   5.678  13.331  0.9480  0.7531  0.6260
 9913TIP3   OH251229   0.732   0.543   1.700  0.3888  0.2789  0.4959
 9913TIP3    H151230   0.716   0.630   1.664  2.0366 -0.1386 -1.2704
 9913TIP3    H251231   0.719   0.554   1.795  0.6211  2.4359  0.2991
 9914TIP3   OH251232   5.007   1.524  11.698 -0.2845  0.0870 -0.6453
 9914TIP3    H151233   4.995   1.618  11.714 -1.9783 -0.1653 -0.3269
 9914TIP3    H251234   4.959   1.481  11.768 -1.6852 -1.0075 -2.2176
 9915TIP3   OH251235   6.246   2.951   6.431  0.3351  0.4451  0.0939
 9915TIP3    H151236   6.240   2.923   6.523 -2.5455 -1.1642 -0.5381
 9915TIP3    H251237   6.276   2.873   6.385  0.0235  0.7365 -0.5982
 9916TIP3   OH251238   4.775   3.169  14.748 -0.4483 -0.9532  0.4150
 9916TIP3    H151239   4.767   3.209  14.662  0.8124 -0.4382  0.5176
 9916TIP3    H251240   4.867   3.142  14.753  0.2014  1.4770  2.6223
 9917TIP3   OH251241   6.554   0.617  14.646  0.0418 -0.3952 -0.0770
 9917TIP3    H151242   6.610   0.544  14.620 -0.6020 -0.2818 -1.9334
 9917TIP3    H251243   6.608   0.695  14.635  0.1769 -0.4545  0.1761
 9918TIP3   OH251244   1.910   3.545   6.419  0.0805 -0.0713 -0.4727
 9918TIP3    H151245   1.865   3.473   6.464  0.5501 -0.9426 -1.3985
 9918TIP3    H251246   2.001   3.537   6.447 -0.0149  0.6697  0.0679
 9919TIP3   OH251247   4.412   5.141  15.343 -0.1712  0.5803 -0.4614
 9919TIP3    H151248   4.446   5.110  15.259 -0.7511  1.0107 -0.8631
 9919TIP3    H251249   4.383   5.062  15.389  0.9990  0.2562 -0.2826
 9920TIP3   OH251250   2.682   4.284  12.764 -0.2904  0.2463 -0.5309
 9920TIP3    H151251   2.714   4.321  12.682 -1.5545  0.5113 -0.9106
 9920TIP3    H251252   2.755   4.230  12.796  0.6748  1.1317 -1.1872
 9921TIP3   OH251253   2.311   1.909   0.528  0.0796  0.4002 -0.1181
 9921TIP3    H151254   2.332   1.976   0.464 -0.8017 -0.4806 -1.3525
 9921TIP3    H251255   2.362   1.933   0.606 -0.4371  2.6229 -0.4388
 9922TIP3   OH251256   5.537   6.726  15.981 -0.2793  0.1281 -0.0948
 9922TIP3    H151257   5.477   6.801  15.976  0.0844  0.3651 -1.2581
 9922TIP3    H251258   5.501   6.663  15.919  0.2656 -0.0254 -0.2580
 9923TIP3   OH251259   3.568   6.736   2.375  0.0176  0.1459  0.8353
 9923TIP3    H151260   3.615   6.726   2.458 -0.6763 -0.0339  1.2101
 9923TIP3    H251261   3.536   6.649   2.354  1.9243 -0.2395 -0.6887
 9924TIP3   OH251262   4.716   2.026   6.173 -0.0682  0.1987 -0.1665
 9924TIP3    H151263   4.667   2.093   6.220 -0.9426 -0.4947 -0.0752
 9924TIP3    H251264   4.770   1.983   6.239  1.2916  1.5005 -0.4051
 9925TIP3   OH251265   3.273   4.029  11.705  0.5847  0.0803  0.4260
 9925TIP3    H151266   3.236   4.066  11.625  0.8928  1.7582  1.0324
 9925TIP3    H251267   3.197   4.015  11.762  0.3558 -1.1970 -0.1753
 9926TIP3   OH251268   0.495   3.263   5.675 -0.1778 -0.1929 -0.4751
 9926TIP3    H151269   0.565   3.201   5.691 -0.1253  0.0888  0.4033
 9926TIP3    H251270   0.509   3.332   5.740 -1.3221 -0.1841 -0.2355
 9927TIP3   OH251271   1.744   5.174   0.955 -0.6044 -0.4613  0.2874
 9927TIP3    H151272   1.649   5.176   0.965 -0.4254 -0.1052  2.1002
 9927TIP3    H251273   1.769   5.264   0.937 -0.4311 -0.2162  1.7190
 9928TIP3   OH251274   6.248   5.165  16.612 -0.4159  0.4902 -0.3415
 9928TIP3    H151275   6.268   5.117  16.532 -1.0370 -0.9310  0.3551
 9928TIP3    H251276   6.293   5.249  16.601 -0.3512  0.2316 -2.0903
 9929TIP3   OH251277   1.344   2.955   2.367  0.9202  0.7370  0.5045
 9929TIP3    H151278   1.411   3.018   2.392  0.4611  1.2019  0.5576
 9929TIP3    H251279   1.386   2.902   2.299  0.6560  2.3129 -0.9017
 9930TIP3   OH251280   3.383   1.201   4.778 -0.1788  0.3808  0.2682
 9930TIP3    H151281   3.450   1.219   4.844 -1.5747  0.7607  1.5976
 9930TIP3    H251282   3.382   1.279   4.723 -0.7182  1.0836  1.2766
 9931TIP3   OH251283   2.412   6.644  14.455  0.0995  0.2777 -0.7560
 9931TIP3    H151284   2.433   6.719  14.399  4.9542  0.0930  0.6198
 9931TIP3    H251285   2.488   6.587  14.450 -1.2321 -1.9871  2.4558
 9932TIP3   OH251286   3.279   4.609   0.310  0.0449 -0.4468  0.0521
 9932TIP3    H151287   3.316   4.662   0.380 -0.7594 -1.2157  1.0810
 9932TIP3    H251288   3.217   4.668   0.266  1.2174  0.3123 -0.5963
 9933TIP3   OH251289   3.290   2.515  14.952 -0.0513  0.0264 -0.3878
 9933TIP3    H151290   3.280   2.424  14.981 -0.8282 -0.1371 -1.1210
 9933TIP3    H251291   3.382   2.536  14.967 -0.4842  0.0543  2.4699
 9934TIP3   OH251292   3.803   3.113   6.023 -0.3771 -0.5478 -0.2846
 9934TIP3    H151293   3.755   3.051   5.968 -1.5504 -1.0395  1.2333
 9934TIP3    H251294   3.734   3.166   6.063  0.4892  0.2265  0.1852
 9935TIP3   OH251295   3.793   2.189   4.387  0.2303 -0.2579  0.2951
 9935TIP3    H151296   3.858   2.151   4.329  0.8359  0.0810  0.7492
 9935TIP3    H251297   3.720   2.127   4.385 -0.1218  0.1789 -1.4931
 9936TIP3   OH251298   3.998   1.765   5.040  0.0196  0.3898 -0.5265
 9936TIP3    H151299   4.000   1.692   5.101  2.4997 -0.4384 -1.5671
 9936TIP3    H251300   4.083   1.807   5.049 -1.3698  3.2246  0.0819
 9937TIP3   OH251301   4.523   5.343   2.069  0.0796 -0.1435 -0.3661
 9937TIP3    H151302   4.505   5.416   2.128  0.6236 -0.6036  0.3705
 9937TIP3    H251303   4.510   5.265   2.122  0.4291 -0.5639 -0.8918
 9938TIP3   OH251304   1.598   5.097  14.216  0.2352 -0.4947 -0.2067
 9938TIP3    H151305   1.636   5.015  14.184 -2.6696 -1.0943 -2.2826
 9938TIP3    H251306   1.615   5.161  14.147 -1.6842 -0.5711 -0.7910
 9939TIP3   OH251307   5.656   6.091   3.839  0.7552 -0.1095  0.1116
 9939TIP3    H151308   5.746   6.102   3.808  0.2984 -0.2376 -1.2878
 9939TIP3    H251309   5.612   6.043   3.769 -1.0228  2.0965 -0.3299
 9940TIP3   OH251310   2.295   3.951   2.773  0.1260 -0.9032 -0.0023
 9940TIP3    H151311   2.219   3.930   2.827 -0.3798  1.3122  0.1990
 9940TIP3    H251312   2.357   3.991   2.834  0.1656  0.2083 -0.7640
 9941TIP3   OH251313   5.808   1.627  16.064  0.2979 -0.1157 -0.1586
 9941TIP3    H151314   5.788   1.571  15.989 -0.7001 -0.3094  0.2305
 9941TIP3    H251315   5.798   1.716  16.031 -0.7924 -0.2043 -0.1044
 9942TIP3   OH251316   5.981   1.111  16.871 -0.2464 -0.2524 -0.1710
 9942TIP3    H151317   5.909   1.071  16.822 -2.2071  0.0276  2.3793
 9942TIP3    H251318   5.938   1.162  16.939  2.3660  1.2171  0.4317
 9943TIP3   OH251319   6.786   3.986   5.309  0.1502 -1.1199  0.7152
 9943TIP3    H151320   6.803   4.059   5.249 -1.4179 -1.8917 -0.7156
 9943TIP3    H251321   6.844   4.002   5.383  0.5841  1.0143 -0.0458
 9944TIP3   OH251322   6.674   4.311  11.784  0.9815  0.1057 -0.2555
 9944TIP3    H151323   6.639   4.372  11.719 -1.0943 -0.6488  0.1154
 9944TIP3    H251324   6.637   4.226  11.759  1.5092 -0.4869  0.9353
 9945TIP3   OH251325   3.216   5.548   1.058 -0.2870  0.1648 -0.0362
 9945TIP3    H151326   3.189   5.575   0.970 -0.3475 -1.3734 -0.5038
 9945TIP3    H251327   3.220   5.630   1.107 -1.5499  0.9085 -1.1151
 9946TIP3   OH251328   4.002   6.674   3.446  0.0314  0.4096  0.1187
 9946TIP3    H151329   3.937   6.736   3.413  0.7938  0.9552 -0.3793
 9946TIP3    H251330   4.086   6.716   3.429  0.5001  0.0215  1.3859
 9947TIP3   OH251331   4.866   5.764   0.076 -0.7298 -0.4515  0.6457
 9947TIP3    H151332   4.938   5.732   0.021 -0.6118 -0.2320  0.6732
 9947TIP3    H251333   4.804   5.691   0.078 -0.2966 -0.8114  0.9975
 9948TIP3   OH251334   0.785   6.359   3.188  0.1175 -0.1535 -0.0341
 9948TIP3    H151335   0.704   6.371   3.239  0.6198  1.1222  0.4862
 9948TIP3    H251336   0.767   6.403   3.105  1.2735  2.7256  1.1586
 9949TIP3   OH251337   6.027   2.372  10.803 -0.2854  0.6439  0.4645
 9949TIP3    H151338   5.943   2.393  10.762 -1.1184 -1.2166  1.1368
 9949TIP3    H251339   6.020   2.405  10.892  0.2976  1.8336  0.0835
 9950TIP3   OH251340   1.517   1.259   3.293  0.1244 -0.1332 -0.4248
 9950TIP3    H151341   1.561   1.178   3.267 -1.0636 -1.0705  0.4072
 9950TIP3    H251342   1.446   1.230   3.351 -1.4708  1.3381 -1.5792
 9951TIP3   OH251343   1.095   6.605  12.291 -0.3841 -0.1421 -0.3924
 9951TIP3    H151344   1.003   6.598  12.318 -0.4730  0.7593 -0.4641
 9951TIP3    H251345   1.143   6.616  12.373 -0.3895 -0.0770 -0.3986
 9952TIP3   OH251346   5.803   4.636  16.722  0.3281  0.0787 -0.5417
 9952TIP3    H151347   5.861   4.595  16.787 -0.6304 -0.7418 -0.1902
 9952TIP3    H251348   5.857   4.646  16.644  0.1475 -3.4928 -1.2358
 9953TIP3   OH251349   3.236   2.117   2.293  0.1923 -0.4642  0.5640
 9953TIP3    H151350   3.143   2.140   2.292  0.3349  0.1247  0.7479
 9953TIP3    H251351   3.279   2.188   2.245  0.3598 -1.5666 -0.9643
 9954TIP3   OH251352   5.385   5.267   5.310  0.0569  0.1734 -0.2157
 9954TIP3    H151353   5.393   5.362   5.308 -2.3525  0.4796  1.8874
 9954TIP3    H251354   5.414   5.242   5.398  0.3944 -0.9967 -0.6547
 9955TIP3   OH251355   1.606   0.196  11.925 -0.0280 -0.1206  0.3455
 9955TIP3    H151356   1.560   0.112  11.921 -0.6708  0.1767  1.4416
 9955TIP3    H251357   1.551   0.256  11.875  0.2330 -0.2538 -0.1053
 9956TIP3   OH251358   5.573   2.394   2.658 -0.1642  0.2828  0.1374
 9956TIP3    H151359   5.592   2.485   2.637 -0.8456  0.1187 -1.2457
 9956TIP3    H251360   5.492   2.375   2.612 -0.0929 -0.9921  0.5110
 9957TIP3   OH251361   0.687   1.707   4.356 -0.4546 -0.5466  0.0383
 9957TIP3    H151362   0.612   1.752   4.396 -1.5935 -1.0349 -1.5051
 9957TIP3    H251363   0.744   1.777   4.326 -1.3392 -0.1350 -0.7134
 9958TIP3   OH251364   2.429   0.799  13.278  0.5110 -0.1182  0.2842
 9958TIP3    H151365   2.349   0.838  13.311  1.2065  0.3137  1.4874
 9958TIP3    H251366   2.492   0.807  13.350  0.6102 -3.6534  0.7088
 9959TIP3   OH251367   4.233   2.100   4.099  0.0310 -0.4587  0.3559
 9959TIP3    H151368   4.229   2.163   4.171  1.7198 -1.1065  1.0508
 9959TIP3    H251369   4.290   2.030   4.132  1.5010 -0.3594 -1.8994
 9960TIP3   OH251370   1.495   6.222   1.582 -0.3392 -0.1115  0.1291
 9960TIP3    H151371   1.457   6.142   1.619  0.7907 -1.8106 -2.2530
 9960TIP3    H251372   1.581   6.229   1.624 -1.1165  0.8583  1.6259
 9961TIP3   OH251373   6.627   6.443  14.374  0.2282 -0.1599 -0.4860
 9961TIP3    H151374   6.629   6.367  14.431 -0.1448  0.5417  0.4885
 9961TIP3    H251375   6.669   6.512  14.424 -2.4322  1.1670  0.0388
 9962TIP3   OH251376   4.687   0.100  10.880 -0.3791  0.6391 -0.0698
 9962TIP3    H151377   4.596   0.105  10.849 -0.2533  1.1128 -0.3700
 9962TIP3    H251378   4.697   0.010  10.910 -0.0514 -0.3032 -2.8395
 9963TIP3   OH251379   1.446   0.741  16.898 -0.6077  0.3640  0.3699
 9963TIP3    H151380   1.476   0.823  16.937 -1.0145  0.4517  0.4938
 9963TIP3    H251381   1.353   0.755  16.880 -0.6972 -0.0936  0.4603
 9964TIP3   OH251382   5.414   0.268  11.287 -0.0281 -0.1628 -0.6580
 9964TIP3    H151383   5.377   0.356  11.284  0.0132 -0.1694 -1.4192
 9964TIP3    H251384   5.446   0.252  11.199 -1.7388 -1.6511 -1.0445
 9965TIP3   OH251385   2.735   1.390   5.577 -0.2625  0.1173 -0.1536
 9965TIP3    H151386   2.793   1.315   5.585  0.6365  0.7613 -0.5159
 9965TIP3    H251387   2.793   1.463   5.556 -0.9382  1.2236  1.7119
 9966TIP3   OH251388   5.770   4.254   3.812 -0.2649 -0.1506  0.0699
 9966TIP3    H151389   5.739   4.257   3.903  1.1452  0.8133  0.5183
 9966TIP3    H251390   5.748   4.165   3.783 -2.3423  0.1083  0.7671
 9967TIP3   OH251391   3.199   4.636   3.170 -0.0300 -0.2774 -0.2311
 9967TIP3    H151392   3.199   4.642   3.075  1.1137 -1.3325 -0.3143
 9967TIP3    H251393   3.169   4.547   3.188  0.1375 -0.2125  0.3800
 9968TIP3   OH251394   5.416   2.167   1.941 -0.7120 -0.8831  0.2844
 9968TIP3    H151395   5.347   2.107   1.970 -0.2799 -1.4828  0.0906
 9968TIP3    H251396   5.496   2.132   1.980 -0.5670  0.0129  0.7947
 9969TIP3   OH251397   5.743   2.773  11.638  0.4221 -0.0164 -0.0153
 9969TIP3    H151398   5.650   2.752  11.627  0.7417 -1.4183 -0.1191
 9969TIP3    H251399   5.743   2.855  11.687 -0.8886  0.8003 -1.3160
 9970TIP3   OH251400   4.344   1.462  11.794 -0.0843 -0.7920  0.5907
 9970TIP3    H151401   4.299   1.543  11.771  0.6666 -0.8036 -1.0253
 9970TIP3    H251402   4.303   1.395  11.740 -0.4087 -1.4166  1.6038
 9971TIP3   OH251403   6.735   2.203  11.902 -0.4444 -0.0214  0.9342
 9971TIP3    H151404   6.678   2.276  11.876  0.0622 -0.0310 -0.2388
 9971TIP3    H251405   6.790   2.187  11.825  1.6015  0.4188  2.2861
 9972TIP3   OH251406   5.966   5.156   2.778 -0.7851  0.2295 -0.2208
 9972TIP3    H151407   5.978   5.250   2.792  0.3813 -0.1950  1.8973
 9972TIP3    H251408   6.021   5.135   2.702 -1.7099  1.3900 -1.2231
 9973TIP3   OH251409   5.588   0.701  14.573  0.3801 -0.3329 -0.5747
 9973TIP3    H151410   5.563   0.739  14.489  0.3628 -2.1231 -1.4044
 9973TIP3    H251411   5.678   0.732  14.587  0.9791 -1.3294 -2.0645
 9974TIP3   OH251412   6.384   1.724   6.265  0.2226  0.3342 -0.1793
 9974TIP3    H151413   6.458   1.663   6.264  0.3722  0.4914  0.8477
 9974TIP3    H251414   6.422   1.807   6.294 -0.1981  0.6426 -0.4951
 9975TIP3   OH251415   0.457   1.361   3.929 -0.1153 -0.3417 -0.0477
 9975TIP3    H151416   0.542   1.351   3.972 -1.1061 -1.4861  1.7093
 9975TIP3    H251417   0.435   1.454   3.939  1.9453  0.4584 -2.5299
 9976TIP3   OH251418   0.211   3.630   1.428  0.7603 -0.3104  0.1234
 9976TIP3    H151419   0.125   3.607   1.393 -0.2600  1.0978  1.6670
 9976TIP3    H251420   0.250   3.684   1.360  0.8348 -1.7359 -0.9966
 9977TIP3   OH251421   6.608   2.166   4.289  0.1702 -0.2420 -0.1742
 9977TIP3    H151422   6.629   2.114   4.211  0.7495 -1.0214  0.4847
 9977TIP3    H251423   6.642   2.253   4.269  1.3446 -0.7258 -0.3453
 9978TIP3   OH251424   3.250   5.009  13.512 -0.6274  0.7942 -0.4776
 9978TIP3    H151425   3.203   5.030  13.431 -0.2048 -1.7998 -1.4425
 9978TIP3    H251426   3.190   4.954  13.561  0.3339 -0.2541 -0.4679
 9979TIP3   OH251427   5.088   0.710  14.993 -0.2647  0.4362 -0.0000
 9979TIP3    H151428   5.116   0.713  15.085  1.4637 -0.5690 -0.4932
 9979TIP3    H251429   4.996   0.739  14.996 -0.8964 -1.6458  2.3085
 9980TIP3   OH251430   5.420   2.959  11.981 -0.0444  0.7112 -0.4473
 9980TIP3    H151431   5.340   2.912  12.002 -0.0740  0.6339 -0.7384
 9980TIP3    H251432   5.393   3.028  11.920  0.1675  0.4695 -0.8191
 9981TIP3   OH251433   6.535   1.327  11.694 -0.1195 -0.9297  0.0489
 9981TIP3    H151434   6.505   1.264  11.629 -1.8105  0.5691 -0.6761
 9981TIP3    H251435   6.535   1.411  11.647 -1.9134  0.2579  2.1175
 9982TIP3   OH251436   5.311   6.336   1.688 -0.4560 -0.1342 -0.0375
 9982TIP3    H151437   5.396   6.306   1.722 -0.6680 -1.6322 -0.7666
 9982TIP3    H251438   5.298   6.284   1.608 -2.0226  0.1472  0.0247
 9983TIP3   OH251439   3.509   6.084   2.645  0.3482  0.0402  0.0521
 9983TIP3    H151440   3.463   6.084   2.561 -0.5378 -1.0597  0.5210
 9983TIP3    H251441   3.590   6.035   2.628  0.8933  1.1422 -0.5364
 9984TIP3   OH251442   1.164   5.009  12.022  0.1697 -0.1766  0.1638
 9984TIP3    H151443   1.237   5.072  12.025  0.1314 -0.1606  1.1360
 9984TIP3    H251444   1.206   4.923  12.019  0.2286 -0.1551  0.3635
 9985TIP3   OH251445   0.934   6.731  17.177  0.3033  0.1131  0.3132
 9985TIP3    H151446   0.919   6.639  17.159 -0.5347  0.2869  0.1111
 9985TIP3    H251447   1.018   6.751  17.134  1.0121 -0.8044  1.2616
 9986TIP3   OH251448   3.640   5.433  14.274  0.2302 -0.1313  0.9669
 9986TIP3    H151449   3.561   5.445  14.325 -0.3431  0.0649  0.0435
 9986TIP3    H251450   3.628   5.349  14.230  1.3612 -1.0024  2.2864
 9987TIP3   OH251451   2.116   2.288  16.914 -0.4461 -0.0005  0.0497
 9987TIP3    H151452   2.208   2.285  16.941 -0.5072 -1.2612  0.1687
 9987TIP3    H251453   2.116   2.251  16.826 -0.6088  1.6253 -0.6352
 9988TIP3   OH251454   0.288   4.380   2.618 -0.2366  0.9057 -0.2018
 9988TIP3    H151455   0.346   4.356   2.690 -0.9286 -0.4089 -0.0610
 9988TIP3    H251456   0.200   4.361   2.650 -0.5660  0.4465 -1.3350
 9989TIP3   OH251457   1.483   3.477   6.097 -0.0269  0.0931 -0.3207
 9989TIP3    H151458   1.446   3.392   6.119 -0.2883  0.0995 -0.7253
 9989TIP3    H251459   1.523   3.465   6.011 -1.4461  0.7700 -1.1051
 9990TIP3   OH251460   1.746   4.052   4.549 -0.3870  0.3902  0.0005
 9990TIP3    H151461   1.750   4.037   4.454  0.7661 -1.6664  0.3343
 9990TIP3    H251462   1.653   4.065   4.567 -0.7741 -0.4850 -1.2553
 9991TIP3   OH251463   4.344   6.726   0.242 -0.3488  0.3616 -0.1534
 9991TIP3    H151464   4.323   6.637   0.212 -0.9049  0.4567 -0.0634
 9991TIP3    H251465   4.318   6.727   0.334 -0.6950  0.7220 -0.2498
 9992TIP3   OH251466   5.091   4.448  11.241 -0.5538  0.3792  0.3549
 9992TIP3    H151467   4.997   4.434  11.226 -0.1591 -0.8908 -1.1238
 9992TIP3    H251468   5.131   4.431  11.156  1.1392 -0.2347  1.2541
 9993TIP3   OH251469   5.199   4.404   1.130 -0.2849 -0.0623 -0.2930
 9993TIP3    H151470   5.228   4.471   1.191  0.3870 -0.4472 -0.1845
 9993TIP3    H251471   5.126   4.445   1.082 -0.8667  0.2069  0.8090
 9994TIP3   OH251472   3.894   4.144   4.521 -0.0741  0.2115  0.1806
 9994TIP3    H151473   3.950   4.129   4.597 -0.7971  1.0034  0.8811
 9994TIP3    H251474   3.937   4.097   4.449  0.6493 -0.4805  1.0612
 9995TIP3   OH251475   1.019   1.220   3.217  0.1426 -0.2744 -0.2301
 9995TIP3    H151476   1.074   1.194   3.144  0.5097  0.8681 -0.3749
 9995TIP3    H251477   1.009   1.315   3.207 -0.2858 -0.1942  0.8628
 9996TIP3   OH251478   0.134   2.543   3.716  0.0566 -0.4661  0.0870
 9996TIP3    H151479   0.091   2.478   3.660 -2.1897  0.4490  0.7230
 9996TIP3    H251480   0.064   2.601   3.744  1.9237  1.8449  0.0931
 9997TIP3   OH251481   5.326   3.661   4.787  0.0163 -0.2729 -0.2967
 9997TIP3    H151482   5.230   3.664   4.786 -0.0121 -0.8143  0.1292
 9997TIP3    H251483   5.353   3.752   4.783 -0.4923 -0.1935 -2.1960
 9998TIP3   OH251484   5.370   3.044   4.084 -0.4177  0.4662  0.1549
 9998TIP3    H151485   5.292   3.017   4.134  0.1758 -0.6205  0.5144
 9998TIP3    H251486   5.426   3.087   4.148  0.2145 -0.6657  0.3766
 9999TIP3   OH251487   2.972   0.608  15.881  0.1094 -0.4113  0.0255
 9999TIP3    H151488   2.883   0.629  15.909  0.3888 -0.5645  1.0360
 9999TIP3    H251489   3.010   0.560  15.955  1.4599  0.7872  0.1179
10000TIP3   OH251490   4.549   2.645   5.318  0.0756 -0.4552 -0.0233
10000TIP3    H151491   4.610   2.689   5.259  0.6013  0.5740  1.2625
10000TIP3    H251492   4.604   2.611   5.388 -0.4333 -2.4685 -0.5694
10001TIP3   OH251493   2.021   3.272   0.367  0.4406  0.3890 -0.7456
10001TIP3    H151494   2.068   3.193   0.342  1.0436  0.2206  0.8190
10001TIP3    H251495   1.970   3.247   0.445  1.2410  1.7033  0.2396
10002TIP3   OH251496   0.320   0.748  11.405 -0.1707 -0.0282  0.1076
10002TIP3    H151497   0.390   0.734  11.341  0.0263 -1.2910  0.5680
10002TIP3    H251498   0.240   0.727  11.358 -0.1621  0.6534 -0.2001
10003TIP3   OH251499   4.119   5.915  15.611 -0.0069 -0.0713 -0.2194
10003TIP3    H151500   4.034   5.935  15.572 -0.5095 -0.7581  0.5152
10003TIP3    H251501   4.162   6.000  15.619 -1.5192  0.5645  1.4925
10004TIP3   OH251502   0.414   1.596   0.070  0.1037 -0.2093  0.2154
10004TIP3    H151503   0.342   1.553   0.023  1.6047 -1.9107 -0.5644
10004TIP3    H251504   0.451   1.657   0.007  1.1956 -1.4497 -0.3608
10005TIP3   OH251505   6.061   0.770  14.212  0.3017 -0.5253 -0.6112
10005TIP3    H151506   6.125   0.724  14.266 -1.2284 -0.8516  0.9885
10005TIP3    H251507   6.009   0.701  14.171 -0.0147 -0.2609 -0.6643
10006TIP3   OH251508   0.547   6.204  13.758  0.1306 -0.2981 -0.0713
10006TIP3    H151509   0.598   6.256  13.820  0.1888  0.6386 -0.8916
10006TIP3    H251510   0.591   6.217  13.673 -1.0477 -0.0290 -0.6545
10007TIP3   OH251511   0.588   5.730  13.843  0.3680 -0.7079 -0.0851
10007TIP3    H151512   0.684   5.728  13.842  0.4043  0.6860  0.3077
10007TIP3    H251513   0.566   5.806  13.897 -0.9427 -0.3365 -1.1267
10008TIP3   OH251514   2.368   4.365   2.555  0.2350  0.0343 -0.0855
10008TIP3    H151515   2.434   4.423   2.518 -0.8731  0.4025 -1.5354
10008TIP3    H251516   2.336   4.314   2.480 -2.3131  1.0337  0.2714
10009TIP3   OH251517   1.164   4.386   5.010 -0.4225  0.1126  0.2263
10009TIP3    H151518   1.206   4.300   5.000  0.0555  0.1681  1.6315
10009TIP3    H251519   1.211   4.442   4.948  0.6083 -0.1834  0.7168
10010TIP3   OH251520   1.514   4.778   2.091 -0.1254 -0.4171 -0.3823
10010TIP3    H151521   1.463   4.698   2.075 -0.5920  0.0744 -1.4882
10010TIP3    H251522   1.605   4.752   2.081 -0.1447 -1.3145  1.6418
10011TIP3   OH251523   5.489   2.981   2.199 -0.3381 -0.3010 -0.1608
10011TIP3    H151524   5.508   3.003   2.108 -1.2375  0.0145 -0.2784
10011TIP3    H251525   5.405   2.936   2.195 -1.4760  1.6883  0.7531
10012TIP3   OH251526   1.986   4.024   3.473  0.2883 -0.3097 -0.5737
10012TIP3    H151527   1.901   3.981   3.473  0.2878 -0.3077 -0.4528
10012TIP3    H251528   1.993   4.063   3.386  1.3269 -2.6121 -1.5751
10013TIP3   OH251529   3.306   4.252  12.424  0.1664  0.3917  0.1066
10013TIP3    H151530   3.365   4.178  12.416 -0.3741  0.0467 -0.7767
10013TIP3    H251531   3.356   4.327  12.390 -1.0596 -0.5210 -4.1148
10014TIP3   OH251532   4.512   1.990   2.342  0.8523  0.2323  0.0520
10014TIP3    H151533   4.570   1.984   2.266  1.8432 -2.5557  0.9809
10014TIP3    H251534   4.569   1.978   2.418 -0.5761 -0.2827  1.0817
10015TIP3   OH251535   2.186   4.934  15.183 -0.0172  0.2852 -0.1796
10015TIP3    H151536   2.112   4.933  15.123  0.4912  0.6888 -0.8180
10015TIP3    H251537   2.244   4.864  15.153 -0.7525 -0.9109  1.1187
10016TIP3   OH251538   6.291   6.223  16.374  0.0074 -0.4360 -0.0725
10016TIP3    H151539   6.204   6.234  16.337 -0.9062  0.0996  2.1410
10016TIP3    H251540   6.277   6.171  16.453  1.7325 -0.6075  0.1481
10017TIP3   OH251541   3.731   0.270   6.181  0.0546  0.6632  0.2314
10017TIP3    H151542   3.808   0.239   6.227  0.7209  1.4629 -0.3311
10017TIP3    H251543   3.658   0.248   6.239  0.8867  1.7600  1.7242
10018TIP3   OH251544   2.624   6.783  11.638  0.1373  0.4272 -0.0074
10018TIP3    H151545   2.681   6.813  11.709 -1.7023 -2.4682  2.8596
10018TIP3    H251546   2.536   6.784  11.675 -1.0717  0.1414 -2.7371
10019TIP3   OH251547   1.985   3.889   2.644 -0.5055  0.4977  0.0329
10019TIP3    H151548   2.007   3.934   2.726  0.2954  1.1711 -0.5522
10019TIP3    H251549   1.992   3.956   2.577  0.3101 -0.4009 -0.7930
10020TIP3   OH251550   1.948   2.404   3.148  0.2662 -0.1165 -0.1855
10020TIP3    H151551   1.972   2.485   3.192  0.2590  0.1337 -0.6446
10020TIP3    H251552   1.928   2.343   3.220  1.3033 -0.0361  0.1805
10021TIP3   OH251553   4.970   0.198   1.577 -0.1180  0.6577 -0.2045
10021TIP3    H151554   5.062   0.202   1.601 -0.2651 -0.1485  0.4944
10021TIP3    H251555   4.970   0.168   1.486  0.3762  2.3825 -0.8042
10022TIP3   OH251556   6.704   3.288   1.248 -0.2537  0.6762 -0.0094
10022TIP3    H151557   6.678   3.246   1.166  0.3517  1.1167 -0.4351
10022TIP3    H251558   6.722   3.379   1.223 -0.6034  0.9483  0.7138
10023TIP3   OH251559   1.172   1.677   0.642  0.1348 -0.0044  0.6252
10023TIP3    H151560   1.163   1.772   0.641  1.6128  0.1451 -1.5486
10023TIP3    H251561   1.091   1.645   0.601 -0.3830  0.3067  1.4020
10024TIP3   OH251562   1.384   6.536   0.736  0.3200  0.1112 -0.2205
10024TIP3    H151563   1.316   6.499   0.792  1.6398 -0.0901  1.2755
10024TIP3    H251564   1.393   6.474   0.664 -0.1017 -0.5507  0.3020
10025TIP3   OH251565   0.092   4.724  11.837  0.2184 -0.1090 -0.2909
10025TIP3    H151566   0.071   4.745  11.746  1.9390 -1.0372 -0.9207
10025TIP3    H251567   0.141   4.801  11.868 -0.5788  0.3130 -0.0616
10026TIP3   OH251568   4.391   4.592   4.296 -0.1682 -0.3305 -0.1642
10026TIP3    H151569   4.472   4.590   4.347  0.2112  0.6341 -0.7307
10026TIP3    H251570   4.337   4.523   4.335  0.5580 -0.3569  0.8133
10027TIP3   OH251571   2.663   6.624   6.477  0.0126 -0.7565  0.0040
10027TIP3    H151572   2.601   6.596   6.544 -0.5684 -1.7137 -0.9143
10027TIP3    H251573   2.676   6.717   6.494 -1.3552 -0.6316  0.4782
10028TIP3   OH251574   3.512   0.009  13.850  0.0072 -0.5214 -0.3814
10028TIP3    H151575   3.445   0.043  13.790 -0.2195  0.4898  0.4264
10028TIP3    H251576   3.576  -0.033  13.793 -0.4837 -0.0587 -1.2905
10029TIP3   OH251577   6.308   3.179  11.177  0.5945 -0.1824  0.3519
10029TIP3    H151578   6.380   3.208  11.121  1.1388 -0.5754  0.8322
10029TIP3    H251579   6.233   3.170  11.118  0.4454  2.0191  0.1722
10030TIP3   OH251580   1.137   0.452  13.803  0.2256 -0.4364  0.2000
10030TIP3    H151581   1.130   0.391  13.730 -1.3000 -2.1780  1.7525
10030TIP3    H251582   1.215   0.423  13.851 -0.6569 -1.3751  1.0929
10031TIP3   OH251583   4.806   3.766  10.677 -0.0794  0.3317  0.1141
10031TIP3    H151584   4.875   3.780  10.612  0.1900 -0.7802  0.1424
10031TIP3    H251585   4.794   3.671  10.678 -3.6101  0.6617 -1.9708
10032TIP3   OH251586   2.634   6.389   0.115 -0.0982 -0.7071  0.5736
10032TIP3    H151587   2.569   6.390   0.185  0.6500  0.3660  1.2657
10032TIP3    H251588   2.715   6.419   0.156  0.6104 -1.1001 -0.4994
10033TIP3   OH251589   6.394   3.548   0.515 -0.3180 -0.2319  0.7094
10033TIP3    H151590   6.425   3.482   0.454 -0.0537  1.0889 -0.6226
10033TIP3    H251591   6.467   3.608   0.525 -0.5469 -0.1462  1.9105
10034TIP3   OH251592   3.376   2.331  16.930 -0.3900  0.2697  0.1844
10034TIP3    H151593   3.439   2.289  16.871  1.1992  0.3543  1.7822
10034TIP3    H251594   3.429   2.367  17.000 -2.3008 -0.4942  2.0947
10035TIP3   OH251595   5.547   1.025  15.978  0.3834  0.0521  0.4800
10035TIP3    H151596   5.478   0.969  16.014  1.2618 -1.5356 -0.2210
10035TIP3    H251597   5.547   1.006  15.884  1.1047  0.7692  0.3320
10036TIP3   OH251598   0.831   2.829   1.722  0.1287 -0.3723 -0.4488
10036TIP3    H151599   0.865   2.781   1.798  0.2076  0.2555 -0.0846
10036TIP3    H251600   0.738   2.808   1.720  0.1872 -0.6518 -0.3785
10037TIP3   OH251601   5.376   2.565   0.303 -0.1536  0.3799  0.0364
10037TIP3    H151602   5.352   2.478   0.334  2.8730 -0.9114 -1.0252
10037TIP3    H251603   5.361   2.562   0.209  1.2468  0.5261 -0.2005
10038TIP3   OH251604   1.266   1.657  12.081 -0.0874 -0.4206 -0.0388
10038TIP3    H151605   1.257   1.747  12.049  1.5297 -0.6186 -1.0997
10038TIP3    H251606   1.180   1.617  12.065 -0.7682  0.8613  0.2898
10039TIP3   OH251607   0.015   2.557  14.761  0.2207  0.2323 -0.3608
10039TIP3    H151608   0.031   2.483  14.818 -0.2426  1.4784  1.4183
10039TIP3    H251609  -0.079   2.573  14.768  0.2088  0.5839 -1.2390
10040TIP3   OH251610   1.748   5.455  13.858  0.3198  0.5408 -0.1138
10040TIP3    H151611   1.662   5.447  13.899  0.3863  2.5997  0.4867
10040TIP3    H251612   1.811   5.440  13.929  0.4491  1.0563 -0.1192
10041TIP3   OH251613   5.142   0.742  15.643  0.1568  0.0065 -0.0528
10041TIP3    H151614   5.212   0.704  15.696  0.3328 -0.3946 -0.5706
10041TIP3    H251615   5.099   0.803  15.702 -0.9102 -1.8831  1.1750
10042TIP3   OH251616   6.186   3.658   4.140 -0.6115  0.0424 -0.3432
10042TIP3    H151617   6.133   3.578   4.142 -0.5345 -0.0309 -1.0207
10042TIP3    H251618   6.258   3.637   4.080 -1.0204  0.8810 -1.1393
10043TIP3   OH251619   0.953   2.134  15.631  0.0551  0.4750 -1.1233
10043TIP3    H151620   0.990   2.049  15.655 -0.1159  0.4157 -1.0745
10043TIP3    H251621   1.023   2.197  15.653  0.2617  0.3290 -1.3542
10044TIP3   OH251622   6.397   4.988   5.003  0.0874  0.0004 -0.5793
10044TIP3    H151623   6.354   5.042   5.069  0.2994 -0.1855 -0.2850
10044TIP3    H251624   6.476   5.037   4.979 -0.7918  0.8212 -1.8538
10045TIP3   OH251625   4.343   2.917   3.931 -0.1613  0.4181  0.2020
10045TIP3    H151626   4.386   2.844   3.976 -1.0400 -0.6737 -0.7116
10045TIP3    H251627   4.308   2.878   3.850 -2.3815  1.4061  0.6653
10046TIP3   OH251628   1.369   1.831   2.145  0.5817 -0.4543  0.0134
10046TIP3    H151629   1.465   1.834   2.148  0.5259  0.0293  1.3026
10046TIP3    H251630   1.349   1.739   2.128  1.2555 -0.7366  0.7165
10047TIP3   OH251631   3.247   3.329   3.371  0.1187 -0.5143  0.6282
10047TIP3    H151632   3.215   3.366   3.289  1.5162  0.2014  0.3878
10047TIP3    H251633   3.227   3.236   3.366 -0.9319 -0.2537  0.0193
10048TIP3   OH251634   2.974   1.950  11.235  0.1542 -0.2332  0.4548
10048TIP3    H151635   2.943   2.025  11.286 -1.0048 -0.5295  0.1985
10048TIP3    H251636   2.910   1.881  11.251  0.0720 -0.5078 -0.9767
10049TIP3   OH251637   5.121   0.518   4.599  0.3830 -0.2936 -0.5689
10049TIP3    H151638   5.084   0.524   4.687  0.3508 -1.3339 -0.5009
10049TIP3    H251639   5.073   0.447   4.558  0.7475 -0.1480 -1.2541
10050TIP3   OH251640   6.133   1.105   2.754 -0.3294 -0.1893  0.4699
10050TIP3    H151641   6.199   1.041   2.730  0.5642  1.2158 -0.9120
10050TIP3    H251642   6.167   1.146   2.834  0.1376  0.0399  0.1572
10051TIP3   OH251643   1.987   2.820  11.890  0.1330 -0.0793  0.6751
10051TIP3    H151644   1.901   2.856  11.867 -0.2062 -0.1946  1.7339
10051TIP3    H251645   1.967   2.740  11.938  0.7522  1.3374  3.3833
10052TIP3   OH251646   6.623   3.244  10.741 -0.4301 -0.6717  0.1223
10052TIP3    H151647   6.530   3.240  10.764 -1.2583  0.4260 -2.7879
10052TIP3    H251648   6.629   3.198  10.658  1.5266 -0.1839 -0.0197
10053TIP3   OH251649   3.094   3.432  11.203 -0.2654 -0.2054 -0.3743
10053TIP3    H151650   3.086   3.339  11.179 -1.0916 -0.1373 -0.3822
10053TIP3    H251651   3.067   3.436  11.295 -1.7071  0.2387 -0.7917
10054TIP3   OH251652   4.519   6.059   2.608  0.4985  0.1382 -0.2891
10054TIP3    H151653   4.453   6.084   2.543 -0.8072  0.0889  1.0018
10054TIP3    H251654   4.524   5.964   2.600 -0.7874 -0.0303  0.7264
10055TIP3   OH251655   0.610   3.040   0.285 -0.2633 -0.3811 -0.0256
10055TIP3    H151656   0.670   3.114   0.273  0.3779 -1.2744 -2.5494
10055TIP3    H251657   0.535   3.062   0.230 -0.2531 -1.3905 -0.4471
10056TIP3   OH251658   2.370   0.920   3.096 -0.0741 -0.0108  0.1080
10056TIP3    H151659   2.453   0.945   3.055 -0.5307  2.4986  0.6188
10056TIP3    H251660   2.394   0.894   3.185  0.0874  1.6848  0.5838
10057TIP3   OH251661   4.475   1.369  12.069 -0.5527 -0.2806 -0.4409
10057TIP3    H151662   4.418   1.384  12.144 -1.1857  0.6487 -1.0915
10057TIP3    H251663   4.418   1.381  11.993  0.7105  1.5680 -1.1189
10058TIP3   OH251664   0.975   2.942   0.768 -0.1534  0.1718 -0.7743
10058TIP3    H151665   1.025   2.926   0.848  0.8050 -1.3867 -1.6325
10058TIP3    H251666   0.940   2.856   0.745 -0.0739  0.5168 -2.2376
10059TIP3   OH251667   1.317   0.813  15.262 -0.3906  0.3332 -0.4131
10059TIP3    H151668   1.288   0.865  15.187 -0.0067  0.3265 -0.5639
10059TIP3    H251669   1.327   0.725  15.227 -1.5651  0.0357 -0.0367
10060TIP3   OH251670   5.931   6.633   0.562 -0.3877 -0.3129  0.0843
10060TIP3    H151671   6.013   6.602   0.600 -0.8870 -0.9612  0.6590
10060TIP3    H251672   5.941   6.727   0.556  0.5055 -0.4179 -0.0923
10061TIP3   OH251673   3.621   1.212   5.583 -0.2995 -0.2179 -0.0524
10061TIP3    H151674   3.571   1.292   5.595  1.7869  1.3052 -1.3440
10061TIP3    H251675   3.561   1.153   5.537 -1.2524  1.2075 -0.6771
10062TIP3   OH251676   2.959   2.912   5.135  0.2879  0.0129 -0.3435
10062TIP3    H151677   2.867   2.899   5.155  0.6234 -1.7654  0.0806
10062TIP3    H251678   2.962   2.925   5.040 -0.6213  2.2893 -0.0896
10063TIP3   OH251679   4.830   6.744   3.928 -0.5451  0.1532 -0.2863
10063TIP3    H151680   4.811   6.711   3.840 -1.5397  0.6909 -0.2762
10063TIP3    H251681   4.797   6.676   3.987 -1.3053  0.5079 -0.2977
10064TIP3   OH251682   4.283   1.634  15.123  0.7642 -0.4492  0.3811
10064TIP3    H151683   4.250   1.680  15.201  2.2236  1.3210 -0.0154
10064TIP3    H251684   4.365   1.595  15.152  0.5300 -1.1245  0.1435
10065TIP3   OH251685   1.866   2.819   0.389  0.0958  0.0975 -0.9283
10065TIP3    H151686   1.822   2.767   0.457  1.0531 -2.8484 -2.4453
10065TIP3    H251687   1.923   2.878   0.437 -0.5846 -0.6650  0.8836
10066TIP3   OH251688   5.516   0.922  13.748 -0.2558 -0.0165 -0.6445
10066TIP3    H151689   5.505   0.886  13.660  0.7148  0.7987 -1.1082
10066TIP3    H251690   5.453   0.994  13.752 -0.6330 -0.3499 -0.4965
10067TIP3   OH251691   0.893   5.596  13.116  0.1428  0.3975 -0.2619
10067TIP3    H151692   0.915   5.552  13.034  0.3490  0.8315 -0.4433
10067TIP3    H251693   0.808   5.559  13.141 -0.3760  0.9453 -1.1710
10068TIP3   OH251694   3.739   5.511  15.881  0.1637 -0.2168 -0.1791
10068TIP3    H151695   3.701   5.597  15.862  0.2343 -0.3313 -0.8304
10068TIP3    H251696   3.831   5.519  15.853  0.0349 -0.6772 -0.7515
10069TIP3   OH251697   2.795   2.865  12.039  0.0450  0.5340  0.1021
10069TIP3    H151698   2.877   2.857  12.089 -0.0829  0.8757  0.3720
10069TIP3    H251699   2.758   2.948  12.069 -1.3043 -0.4803  1.3331
10070TIP3   OH251700   1.226   0.789   3.650 -0.4128 -0.1001 -0.2006
10070TIP3    H151701   1.261   0.779   3.738 -0.8895 -0.9758 -0.1024
10070TIP3    H251702   1.302   0.782   3.592 -0.0963  0.5163  0.1359
10071TIP3   OH251703   4.862   2.357  14.747  0.2879 -0.1586  0.0816
10071TIP3    H151704   4.930   2.321  14.691  1.2332  0.4894  0.8032
10071TIP3    H251705   4.887   2.331  14.835  0.1611  0.9369  0.4548
10072TIP3   OH251706   0.013   3.981  13.999  0.4619  0.2832 -0.3717
10072TIP3    H151707   0.078   4.030  13.949  0.6895  0.0060 -0.3461
10072TIP3    H251708  -0.048   3.948  13.933 -0.5593  1.8990 -0.2469
10073TIP3   OH251709   1.175   0.009   4.661  0.4024 -0.2445 -0.4920
10073TIP3    H151710   1.210  -0.022   4.578  0.1925 -0.4259 -0.5111
10073TIP3    H251711   1.232   0.083   4.685 -1.2004  1.6028 -2.1689
10074TIP3   OH251712   0.353   2.843   1.724 -0.6655 -0.0534  0.4578
10074TIP3    H151713   0.301   2.849   1.644 -1.5294 -0.5905  0.9734
10074TIP3    H251714   0.288   2.836   1.795  0.1078 -1.4486  1.0431
10075TIP3   OH251715   2.374   4.503  14.773  0.0111 -0.4348  0.4203
10075TIP3    H151716   2.432   4.565  14.818  1.2973 -0.9855 -0.4756
10075TIP3    H251717   2.286   4.531  14.798  0.6655  0.2249  2.0283
10076TIP3   OH251718   0.849   4.475  12.438  0.6355 -0.3556  0.5018
10076TIP3    H151719   0.944   4.463  12.439  0.8369  1.1638  0.6622
10076TIP3    H251720   0.831   4.529  12.515 -0.3253 -0.4417  0.3409
10077TIP3   OH251721   2.228   2.889  11.764  0.2577 -0.0415 -0.3960
10077TIP3    H151722   2.230   2.794  11.777  0.7921  0.2951  2.2885
10077TIP3    H251723   2.139   2.914  11.789  0.0749  0.1758 -1.2327
10078TIP3   OH251724   2.821   6.384  11.971  0.2941  0.6221  0.7351
10078TIP3    H151725   2.861   6.303  11.938 -0.3228  0.5279  0.1904
10078TIP3    H251726   2.852   6.391  12.061 -1.1990 -1.2865  1.4430
10079TIP3   OH251727   0.240   3.579   0.999  0.2405  0.1134  0.6962
10079TIP3    H151728   0.292   3.541   1.070 -0.1062  0.4451  1.1233
10079TIP3    H251729   0.305   3.616   0.939  0.4863  0.7255  1.3439
10080TIP3   OH251730   6.310   3.691  16.965 -0.2789 -0.2919 -0.5477
10080TIP3    H151731   6.223   3.685  17.003 -0.3234 -1.1248 -0.7736
10080TIP3    H251732   6.303   3.760  16.899 -0.3867  0.6654  0.4340
10081TIP3   OH251733   0.578   5.085  14.107  0.3045 -0.7087 -0.2559
10081TIP3    H151734   0.665   5.126  14.103  0.7128 -1.6585 -1.5146
10081TIP3    H251735   0.579   5.020  14.037 -1.4848 -0.6320 -0.3779
10082TIP3   OH251736   5.414   6.531   0.696 -0.4702 -0.2296  0.4702
10082TIP3    H151737   5.351   6.597   0.723 -0.2060  0.6758 -1.0511
10082TIP3    H251738   5.496   6.580   0.683  0.3792 -1.2699  1.7586
10083TIP3   OH251739   6.040   4.860  16.793  0.6687 -0.3753  0.5803
10083TIP3    H151740   5.976   4.931  16.797  1.2329  0.1382  0.6493
10083TIP3    H251741   6.009   4.795  16.857 -0.5237 -0.7633 -0.3772
10084TIP3   OH251742   1.816   4.882  11.801 -0.2071 -0.5879 -0.0932
10084TIP3    H151743   1.840   4.975  11.800  0.3787 -0.7497 -1.3450
10084TIP3    H251744   1.721   4.882  11.805 -0.2391  0.0707 -0.7424
10085TIP3   OH251745   2.882   0.630  11.604  0.0318  0.0496  0.1645
10085TIP3    H151746   2.949   0.698  11.611  0.8078 -0.8078  1.2954
10085TIP3    H251747   2.925   0.558  11.558 -0.9044  0.4470 -1.3758
10086TIP3   OH251748   6.300   3.489  10.902 -0.6306 -0.1530 -0.4012
10086TIP3    H151749   6.331   3.401  10.880  0.7428 -0.0163  0.8685
10086TIP3    H251750   6.205   3.481  10.907 -0.5185 -1.5468 -0.3622
10087TIP3   OH251751   5.130   5.990  13.259 -0.0105 -0.2411  0.5278
10087TIP3    H151752   5.140   6.028  13.173 -2.2274  0.0582  0.3679
10087TIP3    H251753   5.036   5.970  13.266  0.1558 -0.4114  2.7851
10088TIP3   OH251754   3.859   2.024   5.318  0.0966 -0.0610 -0.0130
10088TIP3    H151755   3.947   1.989   5.305 -0.3783 -2.7108  3.2761
10088TIP3    H251756   3.866   2.078   5.396 -1.1138  0.0458  0.0251
10089TIP3   OH251757   2.703   0.331  15.224  0.1695  0.4999  0.1596
10089TIP3    H151758   2.766   0.332  15.151  0.6185  0.6107  0.5481
10089TIP3    H251759   2.630   0.278  15.192  0.6502  0.0153 -0.1316
10090TIP3   OH251760   0.604   1.303  11.161 -0.0157  0.1851  0.4297
10090TIP3    H151761   0.607   1.302  11.257  1.7844 -2.8199  0.4025
10090TIP3    H251762   0.528   1.248  11.140  0.8245 -0.8776  0.1366
10091TIP3   OH251763   3.363   4.625  14.104  0.5832 -0.2279  0.0859
10091TIP3    H151764   3.420   4.678  14.049 -1.0144  0.5777 -0.8394
10091TIP3    H251765   3.274   4.649  14.077 -0.1869 -2.5778  0.4095
10092TIP3   OH251766   6.458   6.720  13.723  0.3711  0.3937  0.1827
10092TIP3    H151767   6.548   6.697  13.699  0.2979  2.2446 -1.9683
10092TIP3    H251768   6.434   6.790  13.663 -2.9483 -0.8829 -0.0818
10093TIP3   OH251769   2.628   0.777  16.764  0.5629 -0.1700  0.0683
10093TIP3    H151770   2.572   0.851  16.788  1.7310  0.7698 -0.0656
10093TIP3    H251771   2.661   0.799  16.677  0.4901 -1.1153 -0.2072
10094TIP3   OH251772   2.701   1.517   3.834  0.0952 -0.2385  0.3809
10094TIP3    H151773   2.766   1.497   3.766 -0.8880  0.2999 -0.7583
10094TIP3    H251774   2.752   1.552   3.907  1.0595  0.5466 -0.6479
10095TIP3   OH251775   6.073   4.582   1.796 -0.1955  0.5404 -0.3811
10095TIP3    H151776   6.084   4.488   1.813 -0.6598  0.5919  0.2276
10095TIP3    H251777   5.988   4.603   1.836  0.5863  1.5334  0.8020
10096TIP3   OH251778   0.102   2.026  11.136 -1.0656  0.4900 -0.6047
10096TIP3    H151779   0.171   2.067  11.187 -1.9055  2.3061 -0.8945
10096TIP3    H251780   0.119   2.052  11.046 -0.4738 -1.4429 -1.0751
10097TIP3   OH251781   6.271   4.331  16.360  0.1196 -0.4259  0.1075
10097TIP3    H151782   6.249   4.242  16.333 -1.4711 -0.0828  0.2136
10097TIP3    H251783   6.243   4.386  16.286 -3.5072  0.4417  1.9992
10098TIP3   OH251784   2.495   0.535   4.834 -0.4202  0.2445  0.0725
10098TIP3    H151785   2.566   0.517   4.896 -1.1347 -0.0829  0.8008
10098TIP3    H251786   2.532   0.516   4.748  0.2426 -0.3247  0.4840
10099TIP3   OH251787   4.025   1.607  15.595  0.5695 -0.0235  0.7748
10099TIP3    H151788   4.006   1.584  15.686 -0.4602 -2.1557  0.0626
10099TIP3    H251789   3.941   1.598  15.550  0.9494  1.5969 -0.2826
10100TIP3   OH251790   2.732   0.880   5.635 -0.8532 -0.3100  0.6733
10100TIP3    H151791   2.819   0.857   5.605 -2.1086 -3.1175 -0.9568
10100TIP3    H251792   2.684   0.904   5.556 -1.5815  1.2108  1.5524
10101TIP3   OH251793   4.062   6.554   0.992 -0.4796  0.0940 -0.1493
10101TIP3    H151794   4.090   6.533   1.081 -1.1698 -3.1096 -0.6216
10101TIP3    H251795   3.973   6.588   1.002 -0.3077  0.3747  0.4358
10102TIP3   OH251796   3.551   3.516  16.569  0.1499 -0.4610 -0.3870
10102TIP3    H151797   3.614   3.444  16.571  0.8089  0.1067 -0.4862
10102TIP3    H251798   3.602   3.592  16.541 -0.6340 -0.0444 -0.6969
10103TIP3   OH251799   6.569   3.478   4.608 -0.0225 -0.3263 -0.0440
10103TIP3    H151800   6.598   3.568   4.591 -0.6770 -0.1950 -0.4966
10103TIP3    H251801   6.648   3.432   4.637 -0.4051  1.2586  3.7127
10104TIP3   OH251802   1.879   5.439  13.640 -0.0591 -0.6542 -0.4481
10104TIP3    H151803   1.933   5.360  13.648  0.0033 -0.5855 -0.2065
10104TIP3    H251804   1.816   5.432  13.711 -0.0366 -0.4722 -0.4122
10105TIP3   OH251805   4.922   1.076  15.419  0.0986 -0.3731 -0.7539
10105TIP3    H151806   4.865   1.025  15.476  1.0427  0.9592  1.4306
10105TIP3    H251807   5.001   1.023  15.410  0.3298 -0.1551 -0.0288
10106TIP3   OH251808   3.231   2.130   3.460 -0.1060 -0.0879 -0.5455
10106TIP3    H151809   3.321   2.159   3.441  0.0942  0.0260  0.5373
10106TIP3    H251810   3.187   2.131   3.374  0.7889  0.3221 -1.0130
10107TIP3   OH251811   3.418   0.644  10.685 -0.0957  0.0604  0.0849
10107TIP3    H151812   3.348   0.624  10.622  0.6483 -0.4946 -0.5854
10107TIP3    H251813   3.402   0.584  10.758  1.3344 -2.0962 -1.3275
10108TIP3   OH251814   6.535   2.213   2.185  0.2043 -0.0464 -0.3935
10108TIP3    H151815   6.486   2.283   2.228  1.6307  0.2930  0.7148
10108TIP3    H251816   6.513   2.134   2.235  0.8371  0.1201  0.1551
10109TIP3   OH251817   4.331   1.540   5.451 -0.1725  0.3118  0.2125
10109TIP3    H151818   4.271   1.567   5.522 -1.2360  0.0766 -0.5876
10109TIP3    H251819   4.394   1.612   5.445  0.7421 -0.2625  2.2897
10110TIP3   OH251820   2.828   5.299  13.837 -0.3829  0.3132 -0.7240
10110TIP3    H151821   2.842   5.318  13.744 -0.9102  3.2081 -0.2615
10110TIP3    H251822   2.862   5.376  13.883 -2.3503  0.0147  1.3402
10111TIP3   OH251823   0.462   4.187  16.706 -0.3886 -0.5745  0.4760
10111TIP3    H151824   0.483   4.275  16.675 -0.1933 -1.0558 -0.8107
10111TIP3    H251825   0.412   4.148  16.634 -0.7466 -1.4040  1.1660
10112TIP3   OH251826   3.956   1.196   4.599  0.3306 -0.4643 -0.0157
10112TIP3    H151827   3.909   1.249   4.535 -2.1213 -0.3691  1.8172
10112TIP3    H251828   3.971   1.255   4.673 -2.0012 -2.1294  1.8476
10113TIP3   OH251829   1.567   1.515  14.042  0.6173 -0.3560  0.2471
10113TIP3    H151830   1.587   1.606  14.063 -0.3780 -0.3661  1.3369
10113TIP3    H251831   1.511   1.485  14.114  1.0334 -1.8706 -0.0290
10114TIP3   OH251832   3.794   4.090   2.538 -0.1732 -0.3506  0.0624
10114TIP3    H151833   3.778   3.996   2.549  2.8115 -0.9364 -0.2014
10114TIP3    H251834   3.797   4.124   2.628 -0.3597 -0.6629  0.1900
10115TIP3   OH251835   6.332   4.639  12.907  0.8424  0.4348 -0.1179
10115TIP3    H151836   6.426   4.657  12.900  1.1735 -1.1030  0.2041
10115TIP3    H251837   6.326   4.544  12.913 -0.7587  0.5061 -0.3390
10116TIP3   OH251838   5.860   0.860  15.207  0.4813 -0.0405  0.4335
10116TIP3    H151839   5.933   0.917  15.232  0.2745  0.4163  0.0046
10116TIP3    H251840   5.839   0.886  15.117 -2.5005  2.2298  1.7187
10117TIP3   OH251841   2.312   2.154   3.319  0.7725 -0.1645  0.2765
10117TIP3    H151842   2.312   2.116   3.407  0.9829  0.1697  0.4243
10117TIP3    H251843   2.306   2.079   3.260 -0.0665 -0.3580  0.5892
10118TIP3   OH251844   0.658   3.602  14.498  0.1320  0.1167 -0.4805
10118TIP3    H151845   0.564   3.595  14.485  0.2389  0.8647 -1.7730
10118TIP3    H251846   0.686   3.514  14.524 -0.9091 -0.1037 -0.0660
10119TIP3   OH251847   1.625   1.164  15.501 -0.0654  0.0891 -0.0022
10119TIP3    H151848   1.550   1.120  15.462  1.2728  0.2984 -2.9939
10119TIP3    H251849   1.689   1.170  15.429  3.4309 -1.4754  2.8473
10120TIP3   OH251850   1.691   0.725  14.241 -0.1077 -0.5156 -0.3760
10120TIP3    H151851   1.729   0.638  14.255  1.4699  0.3719  0.9663
10120TIP3    H251852   1.614   0.727  14.298  0.0643 -0.8972 -0.1238
10121TIP3   OH251853   3.160   1.216  16.270  0.0979  0.2237  0.6843
10121TIP3    H151854   3.179   1.251  16.183 -0.5386 -1.8293 -0.3073
10121TIP3    H251855   3.163   1.292  16.328  0.5380  1.6095 -1.1295
10122TIP3   OH251856   4.082   1.088   4.984 -0.2721  0.3908 -0.2299
10122TIP3    H151857   4.109   1.178   4.964 -0.8485  0.5545 -0.2901
10122TIP3    H251858   4.045   1.056   4.902 -1.4519  0.6192  0.2013
10123TIP3   OH251859   4.148   6.077  16.931  0.0007 -0.8277  0.2512
10123TIP3    H151860   4.120   6.164  16.901  1.0588 -0.3177  0.6865
10123TIP3    H251861   4.120   6.017  16.863 -1.5927 -0.2633  0.4062
10124TIP3   OH251862   3.273   0.818  12.562 -0.7194 -0.4141 -0.3626
10124TIP3    H151863   3.206   0.857  12.505  0.6728 -0.2729 -1.9420
10124TIP3    H251864   3.286   0.731  12.526  0.1744 -0.3220 -0.2623
10125TIP3   OH251865   5.281   2.765   3.592 -0.2352 -0.1611  0.1004
10125TIP3    H151866   5.229   2.685   3.581  1.8570 -1.3955 -1.2965
10125TIP3    H251867   5.292   2.774   3.686  0.0125 -1.8942  0.2536
10126TIP3   OH251868   2.279   5.467   2.138 -0.1381  0.1597 -0.3521
10126TIP3    H151869   2.333   5.469   2.217  1.0784  1.3758 -1.2036
10126TIP3    H251870   2.261   5.374   2.124 -0.4824 -0.0722  1.4131
10127TIP3   OH251871   2.180   6.103   3.264 -0.1635 -0.3254  0.0536
10127TIP3    H151872   2.262   6.091   3.216  0.7613 -0.8561  1.7253
10127TIP3    H251873   2.180   6.196   3.287 -0.5233 -0.1082 -0.8014
10128TIP3   OH251874   6.583   5.330   3.063  0.5190  0.5186  0.4749
10128TIP3    H151875   6.594   5.353   3.155 -1.9002  1.0720  0.6501
10128TIP3    H251876   6.489   5.335   3.048  0.6650 -1.9041 -1.4386
10129TIP3   OH251877   0.225   1.864  14.797  0.0843  0.4416  0.7612
10129TIP3    H151878   0.202   1.798  14.863 -1.6158  0.6104  0.3498
10129TIP3    H251879   0.234   1.815  14.716  2.1872  0.2341  1.0912
10130TIP3   OH251880   4.500   4.055  16.173 -0.8321 -0.1741 -0.4433
10130TIP3    H151881   4.457   4.024  16.252  3.3775 -1.9318  1.3110
10130TIP3    H251882   4.534   3.976  16.131  0.8265  1.1230 -1.6140
10131TIP3   OH251883   3.358   3.324  13.290  0.5778  0.3643 -0.0287
10131TIP3    H151884   3.357   3.229  13.298 -1.3995  0.2116 -1.5292
10131TIP3    H251885   3.434   3.353  13.341 -0.2098 -1.8070  2.4319
10132TIP3   OH251886   5.156   5.708  12.547 -0.2544  0.2357 -0.1605
10132TIP3    H151887   5.061   5.708  12.560 -0.4332  2.9026 -1.1889
10132TIP3    H251888   5.178   5.800  12.532  2.1841 -0.6471 -2.2503
10133TIP3   OH251889   2.617   0.604   1.290 -0.1849  0.3644  0.2778
10133TIP3    H151890   2.644   0.691   1.261  0.0844 -0.0190 -0.6226
10133TIP3    H251891   2.523   0.613   1.307  0.0529  1.1135  1.2699
10134TIP3   OH251892   1.381   2.383  15.034 -0.1689 -0.1658  0.0799
10134TIP3    H151893   1.407   2.308  14.981 -2.6563 -1.1663  0.1973
10134TIP3    H251894   1.405   2.360  15.124  0.4813 -0.1643 -0.0978
10135TIP3   OH251895   5.558   5.698   2.447 -0.3998  0.2701 -0.5588
10135TIP3    H151896   5.577   5.791   2.438 -0.2030  0.2946  0.0593
10135TIP3    H251897   5.465   5.690   2.427 -0.3155  0.5349 -1.0501
10136TIP3   OH251898   6.770   4.856   4.790 -0.2896 -0.2947  0.4292
10136TIP3    H151899   6.771   4.775   4.739  1.2801 -1.6789  2.5141
10136TIP3    H251900   6.856   4.896   4.773 -1.7510  1.9069 -2.0075
10137TIP3   OH251901   2.850   2.945   4.896  0.0575  0.2749  0.3423
10137TIP3    H151902   2.793   2.868   4.891  0.1058  0.3092 -0.8493
10137TIP3    H251903   2.797   3.016   4.860  0.4194  0.5658  0.3877
10138TIP3   OH251904   0.356   1.731   6.272  0.0523 -0.2846 -0.3392
10138TIP3    H151905   0.269   1.771   6.280  0.0264 -0.0428 -1.6806
10138TIP3    H251906   0.410   1.778   6.335 -1.1515 -1.4803  1.6305
10139TIP3   OH251907   5.208   4.880  14.550 -0.0721  0.6445 -0.3152
10139TIP3    H151908   5.302   4.878  14.532 -0.3594  1.5979 -1.9387
10139TIP3    H251909   5.201   4.927  14.633  0.9166  0.0057  0.1533
10140TIP3   OH251910   5.479   5.697  14.953 -0.1489 -0.2753 -0.0462
10140TIP3    H151911   5.398   5.741  14.931  0.0874 -0.1778 -0.7321
10140TIP3    H251912   5.507   5.737  15.035 -1.3276 -1.0312  0.7270
10141TIP3   OH251913   0.039   2.657   0.043 -0.6191  0.1910  0.3440
10141TIP3    H151914   0.008   2.735   0.089 -0.3448  0.3191  0.3129
10141TIP3    H251915   0.056   2.688  -0.046 -0.3691  0.1289  0.3720
10142TIP3   OH251916   2.545   0.922  14.213 -0.6342 -0.3519  0.1502
10142TIP3    H151917   2.516   0.847  14.161  0.4574 -0.8108  0.2000
10142TIP3    H251918   2.636   0.935  14.188 -1.0031  1.4152 -0.3916
10143TIP3   OH251919   5.063   3.252   3.565 -0.1033 -0.7465 -0.1507
10143TIP3    H151920   5.077   3.296   3.649  0.9084 -0.2970 -0.5453
10143TIP3    H251921   5.032   3.165   3.589  0.3258 -0.6749  0.7025
10144TIP3   OH251922   4.593   0.242  12.745  0.3972  0.2616 -0.0703
10144TIP3    H151923   4.516   0.300  12.738 -1.4932 -1.9699  1.3920
10144TIP3    H251924   4.571   0.167  12.689  1.0208 -0.9103  1.2396
10145TIP3   OH251925   4.230   1.707  14.733 -0.5663 -0.6760  0.1425
10145TIP3    H151926   4.285   1.756  14.794 -0.5654 -1.2756  0.6273
10145TIP3    H251927   4.146   1.754  14.734 -0.3386 -0.2584  0.0450
10146TIP3   OH251928   1.441   1.637  13.378  0.4913 -0.1934  0.2730
10146TIP3    H151929   1.505   1.696  13.417  0.6257 -0.7793  0.9344
10146TIP3    H251930   1.491   1.561  13.349  0.6137  0.8005 -2.2993
10147TIP3   OH251931   2.528   6.425   1.818 -0.0407  0.7328  0.0023
10147TIP3    H151932   2.571   6.344   1.846  0.7022  0.6623 -1.2625
10147TIP3    H251933   2.600   6.481   1.788 -0.6728  1.3243 -0.4273
10148TIP3   OH251934   6.388   6.227  16.862 -0.2085 -0.3345  0.2103
10148TIP3    H151935   6.459   6.263  16.915  1.5916 -0.3828 -2.0807
10148TIP3    H251936   6.432   6.174  16.795 -2.5042 -1.7482 -0.2442
10149TIP3   OH251937   1.877   5.948   3.971  0.1583  0.4148 -0.0276
10149TIP3    H151938   1.846   5.864   3.938 -1.9173  0.2386  2.2677
10149TIP3    H251939   1.951   5.926   4.027 -0.6701  0.0672  0.9356
10150TIP3   OH251940   5.898   0.457  16.931  0.1281  0.3159  0.6839
10150TIP3    H151941   5.946   0.379  16.904 -1.2700 -0.5915  0.7915
10150TIP3    H251942   5.960   0.506  16.984  1.4464 -0.0729 -0.4738
10151TIP3   OH251943   4.647   5.367   3.083 -0.1931  0.1193  0.1669
10151TIP3    H151944   4.660   5.283   3.128 -0.7558  0.4982  1.0482
10151TIP3    H251945   4.553   5.370   3.065  0.1278 -0.3720 -1.7418
10152TIP3   OH251946   1.807   2.496  13.353 -0.0920  0.4270  0.0406
10152TIP3    H151947   1.864   2.573  13.356  0.5849 -0.0227 -0.9639
10152TIP3    H251948   1.867   2.421  13.347 -0.7669 -0.0858 -0.4504
10153TIP3   OH251949   2.528   3.203   6.083  0.0341  0.6790  0.0196
10153TIP3    H151950   2.488   3.243   6.160 -0.3504  0.7265 -0.2053
10153TIP3    H251951   2.613   3.171   6.114 -1.5482 -2.4283  1.3266
10154TIP3   OH251952   1.959   4.504   2.042  0.2526 -0.6369  0.3026
10154TIP3    H151953   2.036   4.500   2.099  0.8323  0.1348 -0.4044
10154TIP3    H251954   1.995   4.509   1.953 -0.5910  0.1859 -0.0079
10155TIP3   OH251955   4.809   4.642  15.841  0.1699 -0.0144 -0.0822
10155TIP3    H151956   4.887   4.596  15.873  0.0224 -0.9589 -1.0664
10155TIP3    H251957   4.736   4.588  15.871 -0.0360 -0.0188 -0.5891
10156TIP3   OH251958   2.066   6.657  15.670 -0.0001 -0.2193  0.2718
10156TIP3    H151959   2.019   6.574  15.670 -0.4293  0.0215  0.3036
10156TIP3    H251960   2.000   6.722  15.694  0.2753  0.1620  0.0016
10157TIP3   OH251961   3.956   5.141   2.025  0.4916 -0.3239  0.5084
10157TIP3    H151962   3.866   5.128   1.995  1.2037 -1.6208 -1.1743
10157TIP3    H251963   3.958   5.102   2.113 -0.1376 -1.9966 -0.1977
10158TIP3   OH251964   0.785   6.551  16.600 -0.0346 -0.0131 -0.5022
10158TIP3    H151965   0.851   6.540  16.531  0.0366  0.0415 -0.4426
10158TIP3    H251966   0.835   6.577  16.677 -0.0647 -0.5204 -0.3127
10159TIP3   OH251967   1.151   1.946  12.278  0.8355  0.5232  0.5924
10159TIP3    H151968   1.153   1.951  12.182  1.0110 -0.8972  0.5154
10159TIP3    H251969   1.062   1.918  12.299  1.2742 -0.7601  0.7594
10160TIP3   OH251970   6.653   5.600   3.001  0.0776 -0.1629  0.2136
10160TIP3    H151971   6.644   5.510   3.032  0.4335 -0.5561 -0.7957
10160TIP3    H251972   6.742   5.625   3.027 -1.3268  1.2721  3.9346
10161TIP3   OH251973   5.149   0.854  12.348  0.3093 -0.1738 -0.3972
10161TIP3    H151974   5.119   0.769  12.380 -1.1992 -0.1158 -1.6162
10161TIP3    H251975   5.164   0.842  12.255 -1.1988  1.2287 -0.8393
10162TIP3   OH251976   3.251   3.280  12.521  0.1740  0.1578 -0.3603
10162TIP3    H151977   3.163   3.304  12.550 -0.0424 -0.0157 -0.8630
10162TIP3    H251978   3.291   3.238  12.598  0.0676  0.8698  0.0840
10163TIP3   OH251979   5.069   2.835   4.992  0.2899 -0.3584  0.7007
10163TIP3    H151980   5.122   2.913   5.008 -2.2008  1.8460 -1.3350
10163TIP3    H251981   5.025   2.818   5.076  2.8103 -1.1872  1.8935
10164TIP3   OH251982   1.174   5.918   6.127 -0.3410 -0.2580  0.1179
10164TIP3    H151983   1.199   5.832   6.093  0.6479  0.0359  0.0968
10164TIP3    H251984   1.203   5.917   6.218  0.4569  0.3679 -0.1216
10165TIP3   OH251985   1.014   5.279  11.379  0.1507  0.2051 -0.1487
10165TIP3    H151986   1.039   5.293  11.288 -1.2080  2.2117 -0.2497
10165TIP3    H251987   1.065   5.343  11.428  0.7374 -0.7405  0.4977
10166TIP3   OH251988   3.414   4.015  12.434  0.4791  0.4382 -0.7367
10166TIP3    H151989   3.442   3.975  12.517 -1.6470  0.3501 -0.0461
10166TIP3    H251990   3.419   3.944  12.370  0.9678  0.2020 -0.4432
10167TIP3   OH251991   0.031   1.497  13.230 -0.5822 -0.1175  0.5621
10167TIP3    H151992   0.047   1.563  13.297  1.6355 -0.9236  0.8766
10167TIP3    H251993   0.088   1.522  13.158 -1.4362 -0.4193 -0.2331
10168TIP3   OH251994   6.689   3.361   5.886  0.3694 -0.3210 -0.0921
10168TIP3    H151995   6.621   3.314   5.837 -0.1549  1.0831 -0.7513
10168TIP3    H251996   6.701   3.311   5.966  0.0099 -1.7154 -0.8955
10169TIP3   OH251997   0.102   6.395  14.822  0.3383  0.3671 -0.0922
10169TIP3    H151998   0.129   6.327  14.884 -1.4224 -0.8821 -0.6505
10169TIP3    H251999   0.008   6.403  14.835 -0.3321 -0.9963 -3.6281
10170TIP3   OH252000   6.404   2.837   4.592  0.0636  0.1544 -0.1559
10170TIP3    H152001   6.317   2.873   4.609  0.5539  0.5383  1.6630
10170TIP3    H252002   6.465   2.903   4.627  1.0283 -1.2537  0.8988
10171TIP3   OH252003   5.441   3.664  15.306 -0.2160 -0.0877  0.1400
10171TIP3    H152004   5.487   3.593  15.262  0.0856  0.6218 -0.7044
10171TIP3    H252005   5.371   3.688  15.246 -0.4328  0.1978  0.5067
10172TIP3   OH252006   6.644   4.878   2.057 -0.7187  0.1180 -0.5289
10172TIP3    H152007   6.701   4.953   2.039 -0.6826  1.1686  3.4324
10172TIP3    H252008   6.555   4.911   2.041 -0.5105 -0.1513 -2.3334
10173TIP3   OH252009   4.288   1.645   3.716 -0.5091 -0.7556  0.1134
10173TIP3    H152010   4.322   1.566   3.757  1.2629 -0.9223 -1.5815
10173TIP3    H252011   4.268   1.704   3.789  1.0443 -1.6234  1.2640
10174TIP3   OH252012   4.398   1.022  13.668  0.0768 -0.2717 -0.0400
10174TIP3    H152013   4.321   1.077  13.684  0.3734  0.3076 -0.5703
10174TIP3    H252014   4.388   0.949  13.729 -1.3000 -0.6178 -0.6650
10175TIP3   OH252015   1.737   0.072   3.191  0.1435  0.0963  0.0050
10175TIP3    H152016   1.811   0.013   3.175  0.6630  0.6893  0.1795
10175TIP3    H252017   1.673   0.018   3.237  0.1779 -0.6116 -0.7706
10176TIP3   OH252018   2.050   0.793   0.771 -0.0885  0.0132 -0.1027
10176TIP3    H152019   2.093   0.809   0.855 -1.1157 -1.7477  0.7746
10176TIP3    H252020   2.065   0.701   0.753 -2.2673 -0.2969 -0.4721
10177TIP3   OH252021   6.050   0.703   3.403  0.3032  0.2636 -0.2143
10177TIP3    H152022   6.066   0.609   3.417  0.1321  0.2269 -0.2567
10177TIP3    H252023   6.122   0.747   3.448  0.5902  0.1003 -0.5064
10178TIP3   OH252024   6.565   5.185  14.342  0.1773 -0.9675  0.5624
10178TIP3    H152025   6.557   5.228  14.257  0.3980 -0.5446  0.7556
10178TIP3    H252026   6.476   5.159  14.364  0.0824 -0.8452  0.3232
10179TIP3   OH252027   6.228   0.113  16.323 -0.8130 -0.2773  0.3346
10179TIP3    H152028   6.167   0.076  16.259  1.3107 -1.2826 -1.1692
10179TIP3    H252029   6.313   0.111  16.279  0.5281 -0.0575  2.8273
10180TIP3   OH252030   2.456   5.014  16.057  0.2024  0.3250 -0.2158
10180TIP3    H152031   2.492   4.997  15.970  1.1843  0.9965  0.0526
10180TIP3    H252032   2.361   5.014  16.044  0.3692  2.0527 -1.6039
10181TIP3   OH252033   0.889   3.388  14.372 -0.6635  0.0547  0.0313
10181TIP3    H152034   0.820   3.363  14.433 -0.8493 -0.8189 -0.5262
10181TIP3    H252035   0.904   3.310  14.319  0.1261  0.5205 -0.4491
10182TIP3   OH252036   0.572   2.313   1.367  0.3517  0.0336 -0.4765
10182TIP3    H152037   0.516   2.236   1.371 -0.1879  0.5078  1.7251
10182TIP3    H252038   0.595   2.331   1.458  0.2048  2.6714 -0.9078
10183TIP3   OH252039   2.311   3.074   5.985 -0.1517  0.3069 -0.2109
10183TIP3    H152040   2.300   2.987   6.023 -3.6452  1.6792  2.2808
10183TIP3    H252041   2.396   3.104   6.017  0.7958 -1.9198 -0.5801
10184TIP3   OH252042   5.870   3.483   4.194  0.5374  1.0159  0.1210
10184TIP3    H152043   5.846   3.391   4.206 -2.9855  1.9578  0.6788
10184TIP3    H252044   5.878   3.493   4.099  2.3683 -0.1653  0.1206
10185TIP3   OH252045   5.560   5.149   6.215  0.8613  0.4359 -0.5665
10185TIP3    H152046   5.603   5.115   6.293 -0.0781 -0.4142 -0.4146
10185TIP3    H252047   5.476   5.183   6.245 -1.2314 -3.4554 -1.7502
10186TIP3   OH252048   5.397   0.716  13.948  0.1649 -0.5614 -0.0750
10186TIP3    H152049   5.369   0.783  13.885 -1.1032 -0.9708  0.0390
10186TIP3    H252050   5.471   0.756  13.993  0.5172  0.0894 -1.2094
10187TIP3   OH252051   1.696   3.664  14.666 -0.1610  0.2595  0.2600
10187TIP3    H152052   1.770   3.708  14.625 -0.9945  0.8442 -0.6466
10187TIP3    H252053   1.623   3.725  14.654 -0.5322  0.2135  2.1663
10188TIP3   OH252054   1.406   0.372  13.869  0.4021  0.4969  0.2376
10188TIP3    H152055   1.491   0.416  13.865  0.4812  0.4309  1.0972
10188TIP3    H252056   1.405   0.331  13.955  0.8749 -2.2896 -1.0288
10189TIP3   OH252057   4.731   1.994  10.958  0.5848 -0.4611  0.4279
10189TIP3    H152058   4.693   1.985  10.871  1.4020 -0.7706  0.0953
10189TIP3    H252059   4.824   1.976  10.946  1.0769  1.5129  0.9830
10190TIP3   OH252060   2.486   4.099  13.244 -0.2911  0.5268  0.4330
10190TIP3    H152061   2.432   4.168  13.282 -0.4454  0.8780 -0.4162
10190TIP3    H252062   2.572   4.138  13.234 -0.9299  1.3265 -2.1220
10191TIP3   OH252063   5.288   2.875  13.666  0.0702  0.0574 -0.3961
10191TIP3    H152064   5.285   2.885  13.761  1.2273 -0.1008 -0.3291
10191TIP3    H252065   5.250   2.789  13.650 -0.8145  0.4020 -0.1377
10192TIP3   OH252066   0.803   6.239   0.221  0.1341 -0.3780 -0.2003
10192TIP3    H152067   0.754   6.298   0.164  1.3048 -0.9998 -1.9103
10192TIP3    H252068   0.886   6.284   0.236 -0.1939 -0.1849  1.1173
10193TIP3   OH252069   2.867   0.998  15.357  0.2265 -0.8446  0.1702
10193TIP3    H152070   2.857   1.092  15.347 -0.5146 -0.9437 -0.0554
10193TIP3    H252071   2.962   0.984  15.367  0.3309 -0.0800  0.2355
10194TIP3   OH252072   5.703   0.082  10.927  0.2134  0.1359  0.0378
10194TIP3    H152073   5.751   0.134  10.863  1.0622 -0.3480  0.2748
10194TIP3    H252074   5.681   0.001  10.880 -0.9539  0.6278 -0.2781
10195TIP3   OH252075   0.389   4.642   3.324 -0.2511  0.0872  0.0681
10195TIP3    H152076   0.483   4.629   3.313 -0.7439 -1.2433 -3.0962
10195TIP3    H252077   0.370   4.724   3.279 -0.8233 -0.3673 -0.5282
10196TIP3   OH252078   3.292   1.776   3.859  0.0858  0.3976  0.5949
10196TIP3    H152079   3.340   1.732   3.929 -1.5207 -1.0244  0.8689
10196TIP3    H252080   3.351   1.844   3.827  2.6459 -1.8792  0.2528
10197TIP3   OH252081   0.783   2.143   3.674  0.2620 -0.1883  0.0574
10197TIP3    H152082   0.764   2.173   3.585  3.3201  1.0272 -0.2254
10197TIP3    H252083   0.831   2.061   3.661  0.5331 -0.1135  0.5830
10198TIP3   OH252084   1.909   4.487  15.285  0.4986 -0.3860 -0.1591
10198TIP3    H152085   1.878   4.444  15.205  0.4270 -0.8931  0.1469
10198TIP3    H252086   1.830   4.526  15.323  0.6487  0.4800 -0.7175
10199TIP3   OH252087   2.819   6.612  11.573 -0.1112 -0.3095  0.3706
10199TIP3    H152088   2.756   6.683  11.587 -2.2332 -2.3849  1.7301
10199TIP3    H252089   2.903   6.648  11.602 -0.9188  1.9998 -0.0506
10200TIP3   OH252090   0.121   2.205  16.474  0.1887  0.3905  0.4706
10200TIP3    H152091   0.152   2.295  16.463  0.4277  0.5421  2.2147
10200TIP3    H252092   0.058   2.209  16.546 -0.9931 -0.5904 -0.4664
10201TIP3   OH252093   2.307   4.152   3.778  0.2629  0.0289  0.4145
10201TIP3    H152094   2.286   4.064   3.749  1.8596 -0.3254  0.2550
10201TIP3    H252095   2.403   4.154   3.780  0.2359  1.5864  0.9327
10202TIP3   OH252096   1.070   0.349   6.025 -0.8922 -0.4959 -0.6387
10202TIP3    H152097   1.063   0.419   6.090 -1.5599 -0.5687 -0.6288
10202TIP3    H252098   1.004   0.372   5.959 -0.2497 -0.4409 -1.2709
10203TIP3   OH252099   1.670   6.502   1.562  0.2893 -0.0807  0.0079
10203TIP3    H152100   1.579   6.534   1.556  0.5796  0.7342 -0.1992
10203TIP3    H252101   1.704   6.514   1.473  0.2891 -1.3587 -0.1733
10204TIP3   OH252102   6.359   2.817  15.147  0.2036  0.1283  0.6776
10204TIP3    H152103   6.282   2.798  15.201 -1.1027  2.7965 -0.1516
10204TIP3    H252104   6.323   2.850  15.065  2.2261 -0.1724 -0.3598
10205TIP3   OH252105   0.302   4.420  15.416 -0.0346 -0.1794 -0.4978
10205TIP3    H152106   0.209   4.397  15.418 -0.0895 -0.0982 -1.8965
10205TIP3    H252107   0.304   4.511  15.386  0.4626  0.0631  0.2554
10206TIP3   OH252108   5.955   0.793  14.523  0.3924 -0.7024 -0.3255
10206TIP3    H152109   5.966   0.713  14.472  1.8368 -0.8094  0.1286
10206TIP3    H252110   5.898   0.848  14.469 -0.4742 -1.9511 -0.7185
10207TIP3   OH252111   0.571   0.298   1.453  0.0362 -0.0398 -0.5613
10207TIP3    H152112   0.515   0.370   1.481 -0.5833  0.1925 -2.3712
10207TIP3    H252113   0.610   0.328   1.371  2.8189 -0.1998  0.6327
10208TIP3   OH252114   5.834   6.808  16.720  0.3949 -0.1529 -0.3605
10208TIP3    H152115   5.833   6.837  16.629  0.6996  2.3581  0.4003
10208TIP3    H252116   5.896   6.736  16.722 -2.3827 -2.7630 -2.8339
10209TIP3   OH252117   4.860   2.702   4.509  0.0154 -0.3642  0.0188
10209TIP3    H152118   4.923   2.708   4.582  2.3925  0.1792 -1.9959
10209TIP3    H252119   4.780   2.742   4.543  1.6104  1.4226  1.8087
10210TIP3   OH252120   0.567   0.012  15.137 -0.1737  0.1018 -1.0511
10210TIP3    H152121   0.483   0.002  15.094 -0.1044 -1.4025 -0.8561
10210TIP3    H252122   0.629  -0.033  15.081  0.4704  0.9852 -1.0662
10211TIP3   OH252123   0.185   2.963   3.745 -0.0604  0.0443  0.7206
10211TIP3    H152124   0.266   3.004   3.714  0.3159 -0.4710  1.0042
10211TIP3    H252125   0.139   3.033   3.791 -0.6945  0.8617 -1.0986
10212TIP3   OH252126   1.460   3.881   6.000  0.1027  0.6032 -0.2823
10212TIP3    H152127   1.390   3.867   5.936 -0.2055  2.3633 -0.3546
10212TIP3    H252128   1.527   3.816   5.976 -1.0568 -0.3982 -0.8506
10213TIP3   OH252129   4.247   3.179  17.155  0.7883  0.0707 -0.1782
10213TIP3    H152130   4.325   3.227  17.131  0.2714  1.8127  1.4953
10213TIP3    H252131   4.225   3.211  17.243 -2.5330  0.5907 -1.1381
10214TIP3   OH252132   5.436   0.462  14.620 -0.5898 -0.0682 -0.3055
10214TIP3    H152133   5.369   0.477  14.687  0.3191 -0.0929  0.6152
10214TIP3    H252134   5.495   0.537  14.628 -0.9276  0.3547 -1.6409
10215TIP3   OH252135   5.303   3.125  14.330 -1.4361 -0.0304 -0.1715
10215TIP3    H152136   5.331   3.062  14.264 -0.3039 -0.1039  0.3666
10215TIP3    H252137   5.377   3.130  14.391 -1.3672  2.0903 -0.3887
10216TIP3   OH252138   1.049   4.360   4.747 -0.1083  0.2080 -0.1531
10216TIP3    H152139   1.120   4.414   4.713 -0.6115  0.1445 -1.3077
10216TIP3    H252140   1.003   4.328   4.670 -0.5524 -0.8944  0.5449
10217TIP3   OH252141   3.544   5.752  14.570 -0.5815 -0.2265  0.3938
10217TIP3    H152142   3.613   5.710  14.520 -1.8434  0.5525 -2.0602
10217TIP3    H252143   3.571   5.843  14.577 -2.0179  0.3861 -1.7967
10218TIP3   OH252144   4.059   5.520   3.139  0.0021  0.4170 -0.1826
10218TIP3    H152145   4.112   5.547   3.064 -0.0203  0.9832  0.0054
10218TIP3    H252146   4.062   5.594   3.199  1.6079 -0.7662  1.2441
10219TIP3   OH252147   5.094   5.974   5.161 -0.3959 -0.7038 -0.5795
10219TIP3    H152148   5.145   6.047   5.125 -1.1959  0.2556  0.2178
10219TIP3    H252149   5.059   5.930   5.083 -1.8421  1.1656 -1.0238
10220TIP3   OH252150   5.051   4.589   2.618  0.3371 -0.4712  1.0967
10220TIP3    H152151   5.117   4.557   2.679 -0.2132  1.3497  2.6691
10220TIP3    H252152   5.005   4.658   2.665  1.1556  2.3267 -2.0540
10221TIP3   OH252153   5.697   6.726  16.480  0.0956  0.5340  0.6403
10221TIP3    H152154   5.611   6.748  16.444 -0.5951 -0.7800  1.4602
10221TIP3    H252155   5.755   6.794  16.446 -1.2732  1.4660  0.1208
10222TIP3   OH252156   0.920   2.441  13.111  0.4886 -0.0931 -0.3150
10222TIP3    H152157   0.850   2.405  13.057  0.8635 -0.8434 -0.3074
10222TIP3    H252158   0.908   2.536  13.106 -1.6468 -0.2458  1.1585
10223TIP3   OH252159   0.062   0.048   1.976 -0.4079 -0.2132  0.5616
10223TIP3    H152160   0.119   0.073   1.904 -0.0551 -1.0328  0.5450
10223TIP3    H252161   0.120   0.006   2.040 -0.5575  1.3799  1.7792
10224TIP3   OH252162   5.590   3.962   4.453  0.0766  0.1108  0.2564
10224TIP3    H152163   5.618   4.047   4.485  1.6879  0.1878 -1.2726
10224TIP3    H252164   5.669   3.907   4.457  0.6677  0.3924 -4.2941
10225TIP3   OH252165   3.635   5.262  15.850 -0.5133  0.4941 -0.3530
10225TIP3    H152166   3.586   5.304  15.921  1.0580 -0.9965  1.6940
10225TIP3    H252167   3.708   5.322  15.833 -0.4034  0.4319 -0.1011
10226TIP3   OH252168   4.787   2.579   3.563 -0.5342 -0.1803  0.1956
10226TIP3    H152169   4.796   2.578   3.658 -3.2703 -0.0440  0.5062
10226TIP3    H252170   4.692   2.575   3.548 -0.0602 -2.4871 -2.5710
10227TIP3   OH252171   2.845   3.141  15.832 -0.6903 -0.2166 -0.0858
10227TIP3    H152172   2.759   3.173  15.859 -1.4785  0.5092 -3.2533
10227TIP3    H252173   2.898   3.220  15.824 -0.8502 -0.2635 -1.8187
10228TIP3   OH252174   1.291   1.489  15.691 -0.1376  0.2528  0.0582
10228TIP3    H152175   1.316   1.407  15.650 -1.2649  0.7979 -1.7336
10228TIP3    H252176   1.200   1.477  15.717 -0.7589  1.4455 -1.5341
10229TIP3   OH252177   5.380   5.292   1.473  0.0455  0.3933  0.4299
10229TIP3    H152178   5.440   5.218   1.465 -0.5650 -0.0598  0.0855
10229TIP3    H252179   5.293   5.256   1.454 -0.6957  0.5070  3.3999
10230TIP3   OH252180   0.475   6.229  11.255  0.4419  0.0666 -0.2567
10230TIP3    H152181   0.536   6.279  11.309  0.9666  0.3334 -1.1008
10230TIP3    H252182   0.389   6.247  11.293  0.5332  2.2020 -0.9980
10231TIP3   OH252183   4.924   0.617   4.160 -0.2704 -0.5797 -0.9024
10231TIP3    H152184   4.850   0.668   4.127  0.6212  0.4488 -1.3140
10231TIP3    H252185   4.891   0.576   4.240 -1.1949  0.1175 -0.9185
10232TIP3   OH252186   3.468   0.981  16.599 -0.1292 -0.4796  0.6047
10232TIP3    H152187   3.528   1.029  16.656  0.6348 -0.5567 -0.1235
10232TIP3    H252188   3.505   0.893  16.593 -1.1793 -0.9890  1.4229
10233TIP3   OH252189   1.870   2.881   5.192 -0.0478  0.3298 -0.2347
10233TIP3    H152190   1.901   2.930   5.268  0.1208  1.9992 -1.3429
10233TIP3    H252191   1.792   2.835   5.223  1.6264 -1.2759  1.6878
10234TIP3   OH252192   2.327   3.821  11.992 -0.8333  0.1826 -0.1723
10234TIP3    H152193   2.252   3.880  11.986 -1.9753 -1.1324  0.8421
10234TIP3    H252194   2.389   3.866  12.048 -1.0637  1.0634 -0.6191
10235TIP3   OH252195   5.387   4.847   1.271  0.4940  0.5918 -0.3197
10235TIP3    H152196   5.308   4.865   1.321 -0.5331  0.3780 -1.8445
10235TIP3    H252197   5.393   4.918   1.208 -0.5357 -1.3502 -2.6766
10236TIP3   OH252198   0.378   6.725   5.826 -0.0206 -0.1995  0.0986
10236TIP3    H152199   0.393   6.818   5.808  0.9301 -0.3316  0.1731
10236TIP3    H252200   0.321   6.695   5.756 -0.4332  0.4713  0.1439
10237TIP3   OH252201   6.043   2.618  13.860 -0.0306  0.2195 -0.3197
10237TIP3    H152202   6.003   2.539  13.898 -1.1143  0.2194 -1.4403
10237TIP3    H252203   6.030   2.685  13.927  1.1885 -0.6264  0.7833
10238TIP3   OH252204   2.511   4.353  14.996 -0.4095  0.8868  0.0173
10238TIP3    H152205   2.508   4.424  14.931 -1.5046  1.3001  0.5115
10238TIP3    H252206   2.461   4.386  15.071 -2.6677 -1.1496 -0.5031
10239TIP3   OH252207   3.162   2.226   4.564  0.4529  0.0656 -0.0679
10239TIP3    H152208   3.116   2.234   4.648 -0.9251 -0.0770 -0.7776
10239TIP3    H252209   3.243   2.275   4.576 -1.1643  2.7669  0.3172
10240TIP3   OH252210   1.108   3.858  13.924  0.0750  0.2925  0.0521
10240TIP3    H152211   1.073   3.846  14.012  0.7259  0.3114  0.3194
10240TIP3    H252212   1.109   3.770  13.886 -0.1233  0.2711  0.0991
10241TIP3   OH252213   5.223   0.884   3.880  0.3510  0.1441  0.2631
10241TIP3    H152214   5.130   0.870   3.900 -0.1765  0.1410 -2.1079
10241TIP3    H252215   5.249   0.806   3.831  1.2061  0.8340 -0.4007
10242TIP3   OH252216   1.475   1.590   5.135  0.3865 -0.0563 -0.0531
10242TIP3    H152217   1.462   1.521   5.200 -1.1029 -0.2559 -0.5410
10242TIP3    H252218   1.437   1.669   5.175  0.7284  0.1433 -0.1161
10243TIP3   OH252219   4.811   5.491  12.981  0.4271 -0.9572  0.2797
10243TIP3    H152220   4.745   5.469  12.915  0.7473 -0.1583 -0.3136
10243TIP3    H252221   4.888   5.440  12.956  0.4150 -0.9751  0.2791
10244TIP3   OH252222   4.888   2.555   3.863 -0.3219  0.2448  0.5538
10244TIP3    H152223   4.831   2.597   3.927 -0.5176  1.6851 -0.5333
10244TIP3    H252224   4.968   2.535   3.911 -0.3498  1.5777  1.1901
10245TIP3   OH252225   4.132   4.646  14.426 -0.8400  0.4901 -0.4431
10245TIP3    H152226   4.164   4.612  14.343 -1.3570  0.7853 -0.7708
10245TIP3    H252227   4.201   4.626  14.489 -0.0258  1.1177 -1.1325
10246TIP3   OH252228   4.950   6.537  12.918  0.0981 -0.0837  0.1438
10246TIP3    H152229   5.005   6.467  12.952 -0.5015 -0.3621  0.5398
10246TIP3    H252230   4.865   6.496  12.902  0.5066 -0.0880 -2.1844
10247TIP3   OH252231   0.734   3.260   3.423 -0.7469 -0.3911 -0.1764
10247TIP3    H152232   0.725   3.190   3.488 -0.9140 -2.3771 -2.3006
10247TIP3    H252233   0.647   3.267   3.383 -0.9333  1.5550  0.4803
10248TIP3   OH252234   0.393   3.911   1.626 -0.2010 -0.0717 -0.4017
10248TIP3    H152235   0.357   3.832   1.584  1.5533  0.0297 -2.2131
10248TIP3    H252236   0.486   3.890   1.639  0.2963  1.7233 -0.9899
10249TIP3   OH252237   2.531   6.229  11.723  0.0076 -0.3155 -0.0274
10249TIP3    H152238   2.579   6.308  11.697  1.0224 -0.9423 -0.0518
10249TIP3    H252239   2.591   6.157  11.706 -0.7668 -1.0689  0.3898
10250TIP3   OH252240   3.170   6.476  14.250 -0.5258  0.1395 -0.5110
10250TIP3    H152241   3.252   6.448  14.292 -1.5445 -1.6240  0.3692
10250TIP3    H252242   3.167   6.570  14.265  1.9760  0.4589 -1.6901
10251TIP3   OH252243   5.426   4.886   5.621  0.0513  0.5120  0.4717
10251TIP3    H152244   5.333   4.897   5.641 -0.2683 -0.8316 -0.2237
10251TIP3    H252245   5.459   4.975   5.614 -1.0072  1.0055  1.5149
10252TIP3   OH252246   2.720   4.233   1.365 -0.5996  0.2849 -0.5387
10252TIP3    H152247   2.797   4.230   1.309  0.4652  0.6024  0.8778
10252TIP3    H252248   2.704   4.142   1.390 -0.0492  0.3321  0.0001
10253TIP3   OH252249   5.728   1.099   1.217  0.0059 -0.1336 -0.1136
10253TIP3    H152250   5.814   1.135   1.196 -0.1466  0.1457 -0.2634
10253TIP3    H252251   5.745   1.008   1.242  0.3579 -0.0413 -0.0193
10254TIP3   OH252252   3.768   2.137  13.691 -0.1948 -0.3784  0.5520
10254TIP3    H152253   3.806   2.145  13.779  1.3848 -5.2917  0.4983
10254TIP3    H252254   3.822   2.193  13.636  0.5894  0.5410  2.2259
10255TIP3   OH252255   2.435   2.809  14.919 -0.0397  0.1471 -1.0194
10255TIP3    H152256   2.494   2.734  14.917 -1.2746 -0.8479 -0.8831
10255TIP3    H252257   2.393   2.804  15.005  0.4338  1.4456 -0.7019
10256TIP3   OH252258   2.975   2.870  12.232 -0.2084  0.1873 -0.0068
10256TIP3    H152259   3.047   2.807  12.228  0.6966  1.2646 -1.3198
10256TIP3    H252260   2.957   2.881  12.325  1.9814  0.6382  0.3819
10257TIP3   OH252261   6.545   0.497  15.203  0.6342 -0.5009 -0.4958
10257TIP3    H152262   6.567   0.548  15.125  0.3818  0.1408 -0.1527
10257TIP3    H252263   6.451   0.481  15.196  0.6258 -0.5123 -0.3654
10258TIP3   OH252264   4.392   0.762  13.173 -0.0843 -0.0467  0.0314
10258TIP3    H152265   4.372   0.690  13.233  0.4156 -0.2280 -0.0161
10258TIP3    H252266   4.309   0.810  13.164 -0.4123 -0.5954  0.0881
10259TIP3   OH252267   2.928   6.506   3.998  0.1815  0.1809  0.4334
10259TIP3    H152268   2.833   6.503   4.009  0.2863 -0.7047  1.2057
10259TIP3    H252269   2.960   6.544   4.079  0.4923  0.4001  0.2081
10260TIP3   OH252270   1.153   0.467   4.226  0.4512  0.4758  0.6427
10260TIP3    H152271   1.062   0.448   4.250  0.0112  1.3710 -0.3036
10260TIP3    H252272   1.147   0.513   4.142  1.6008  3.0234  1.8956
10261TIP3   OH252273   5.805   1.693  13.710  0.0295  0.1470 -0.0647
10261TIP3    H152274   5.818   1.683  13.615 -0.2775 -0.1397 -0.0775
10261TIP3    H252275   5.710   1.698  13.721  0.1195  1.8790  0.0666
10262TIP3   OH252276   5.641   6.299  14.418  0.6435 -0.3642  0.0889
10262TIP3    H152277   5.665   6.219  14.465  0.0506 -0.7754 -0.2959
10262TIP3    H252278   5.724   6.332  14.384  1.3128  0.8499  2.7976
10263TIP3   OH252279   2.245   5.232   0.566 -0.0475  0.3770  0.2531
10263TIP3    H152280   2.307   5.260   0.633  1.0182  0.7791 -0.8884
10263TIP3    H252281   2.192   5.165   0.609 -0.2044  1.4980  1.8833
10264TIP3   OH252282   3.770   3.909  15.155  0.2634  0.1982 -0.9264
10264TIP3    H152283   3.680   3.943  15.155 -0.5220 -1.8287  0.0206
10264TIP3    H252284   3.779   3.868  15.069  0.5806  1.1291 -1.3459
10265TIP3   OH252285   5.125   1.929  12.541  0.0606  0.2684  0.2563
10265TIP3    H152286   5.073   1.990  12.593  0.5527  0.0210  1.0348
10265TIP3    H252287   5.143   1.856  12.600 -0.8656 -0.8351 -0.7857
10266TIP3   OH252288   0.004   3.717   4.432  0.3733 -0.5575  0.2665
10266TIP3    H152289   0.051   3.704   4.514  1.7447 -0.0763 -0.4373
10266TIP3    H252290  -0.073   3.769   4.457  0.0433 -1.6078  1.4627
10267TIP3   OH252291   3.775   2.948  10.938  0.5901 -1.2333  0.2613
10267TIP3    H152292   3.789   2.915  10.849  1.8833  0.4128 -0.1585
10267TIP3    H252293   3.729   2.876  10.983 -1.2375 -1.5771 -2.0766
10268TIP3   OH252294   0.537   6.404  12.492  0.0096 -0.1639  0.3178
10268TIP3    H152295   0.538   6.447  12.577  0.2226 -1.5643  1.0363
10268TIP3    H252296   0.514   6.313  12.511  0.4484 -0.5826 -1.0780
10269TIP3   OH252297   3.473   3.043   2.991  0.0799  0.4863 -0.4773
10269TIP3    H152298   3.471   3.136   2.968 -0.5972  0.6312  0.1601
10269TIP3    H252299   3.511   3.001   2.914 -0.1670  1.2227 -1.0107
10270TIP3   OH252300   3.071   5.284  16.160  0.0040 -0.2147 -0.3853
10270TIP3    H152301   3.155   5.247  16.186  0.0979  0.8941  0.9372
10270TIP3    H252302   3.006   5.226  16.200  0.1488  0.1670  0.4166
10271TIP3   OH252303   2.904   3.775   0.623  0.7288  0.5659  0.2839
10271TIP3    H152304   2.930   3.692   0.663  1.6686  0.6883 -0.0579
10271TIP3    H252305   2.956   3.780   0.542 -0.7143  0.5950 -0.6636
10272TIP3   OH252306   4.473   3.900  12.407  0.1672 -0.3501 -0.4838
10272TIP3    H152307   4.453   3.852  12.327  0.5495 -1.5616  0.1434
10272TIP3    H252308   4.567   3.916  12.403  0.7003 -2.8998  1.0598
10273TIP3   OH252309   2.313   0.599   5.588 -0.0897  0.4603 -0.8089
10273TIP3    H152310   2.373   0.630   5.656 -0.3178  1.1942 -0.9329
10273TIP3    H252311   2.364   0.537   5.537  0.7500  1.4908 -1.2431
10274TIP3   OH252312   0.040   0.740   5.449 -0.0054  0.4400 -0.0742
10274TIP3    H152313   0.126   0.783   5.452  0.0586  0.6298 -3.5208
10274TIP3    H252314  -0.018   0.803   5.407 -1.2105 -0.7534 -0.2306
10275TIP3   OH252315   4.548   0.279   6.620  0.3650 -0.0068  0.0447
10275TIP3    H152316   4.529   0.243   6.534 -1.7586  0.1533  0.4217
10275TIP3    H252317   4.588   0.207   6.668  0.6944 -0.3681 -0.7629
10276TIP3   OH252318   3.375   5.422   3.964  0.5066 -0.4162 -0.1066
10276TIP3    H152319   3.419   5.366   3.900  1.4353 -0.1896  0.3181
10276TIP3    H252320   3.394   5.511   3.936  2.7775 -0.2874  1.6669
10277TIP3   OH252321   1.198   5.939   1.183 -0.3812 -0.1008  0.0119
10277TIP3    H152322   1.130   5.893   1.231  0.0616  0.2186  0.9602
10277TIP3    H252323   1.159   6.023   1.160 -0.2825  0.1228  0.6447
10278TIP3   OH252324   2.827   5.339  15.173  0.0395 -0.5945  0.2721
10278TIP3    H152325   2.775   5.307  15.247 -0.4660  0.8612  0.5607
10278TIP3    H252326   2.867   5.420  15.205 -0.5990  0.3168 -1.1874
10279TIP3   OH252327   6.257   6.092  13.062 -0.3436  0.1100 -0.2202
10279TIP3    H152328   6.336   6.125  13.020  0.2247  0.1680  0.8537
10279TIP3    H252329   6.189   6.154  13.037  0.3935  1.2564  0.5154
10280TIP3   OH252330   2.521   4.171   1.637  0.4029 -0.5710  0.9906
10280TIP3    H152331   2.505   4.168   1.543  1.9397  0.2885  0.6759
10280TIP3    H252332   2.459   4.236   1.671  0.7454  0.0840  0.3634
10281TIP3   OH252333   5.850   0.393   5.697  0.1116 -0.0949 -0.2305
10281TIP3    H152334   5.758   0.420   5.698 -0.1298 -0.9088 -0.0621
10281TIP3    H252335   5.850   0.308   5.742  0.7892 -0.5811 -1.1488
10282TIP3   OH252336   3.122   1.234  13.717 -0.2309  0.4405  0.4146
10282TIP3    H152337   3.033   1.264  13.737 -1.5372 -2.1805 -1.2337
10282TIP3    H252338   3.138   1.264  13.628  0.1222  0.0451  0.3419
10283TIP3   OH252339   6.363   0.750   2.160  0.4682  0.2175  0.0201
10283TIP3    H152340   6.293   0.801   2.119 -0.6106  1.4713  3.2751
10283TIP3    H252341   6.336   0.659   2.147 -1.5051  0.6721  0.6723
10284TIP3   OH252342   3.795   4.735   2.956 -0.1340 -0.1107 -0.2522
10284TIP3    H152343   3.723   4.698   3.008  1.3061 -0.3308  1.6533
10284TIP3    H252344   3.857   4.662   2.947  0.7136  0.6125 -0.2653
10285TIP3   OH252345   5.793   3.176   6.062 -0.0016  0.2683 -0.2184
10285TIP3    H152346   5.830   3.107   6.007 -2.2188 -2.7373  1.8809
10285TIP3    H252347   5.860   3.193   6.127 -0.7418 -2.4954  1.3491
10286TIP3   OH252348   5.307   3.941   5.206 -0.6172 -0.0521  0.0565
10286TIP3    H152349   5.264   3.938   5.121 -1.7859  2.0177  0.5398
10286TIP3    H252350   5.235   3.945   5.269  0.2436  0.3080  1.0362
10287TIP3   OH252351   4.332   0.847  16.474 -0.1052 -0.0779  0.5028
10287TIP3    H152352   4.266   0.810  16.416  1.6432 -1.2515 -0.8100
10287TIP3    H252353   4.331   0.941  16.455 -0.6976 -0.2300 -0.2314
10288TIP3   OH252354   1.391   6.373  16.033  0.2524  0.0691  0.3206
10288TIP3    H152355   1.484   6.392  16.034  0.2348  0.1840 -0.2828
10288TIP3    H252356   1.355   6.429  15.964 -0.2454 -0.0473  0.4815
10289TIP3   OH252357   4.555   2.599  15.890 -0.4436  0.3413 -0.3342
10289TIP3    H152358   4.567   2.536  15.961  0.7932  0.5163 -0.3909
10289TIP3    H252359   4.482   2.654  15.920  1.5125  1.8355  1.8264
10290TIP3   OH252360   4.038   0.991  15.490 -0.0275 -0.1069  0.4371
10290TIP3    H152361   3.998   1.068  15.529 -1.0840 -0.8300  0.8141
10290TIP3    H252362   4.117   1.024  15.447 -0.1519  1.0805  1.0916
10291TIP3   OH252363   0.319   6.316   1.370 -0.3918 -0.0752  0.3348
10291TIP3    H152364   0.367   6.314   1.453  0.1510  0.1180  0.0280
10291TIP3    H252365   0.274   6.401   1.371 -0.5991 -0.1863  0.5493
10292TIP3   OH252366   2.600   4.896   1.433  0.2724  0.0643  0.1978
10292TIP3    H152367   2.594   4.936   1.347  1.3288 -0.5149 -0.1557
10292TIP3    H252368   2.521   4.842   1.440 -0.7647  1.5754  0.3697
10293TIP3   OH252369   4.925   0.690  13.352  0.2760  0.1448  0.6777
10293TIP3    H152370   4.885   0.608  13.379  0.3898  0.6032  2.2974
10293TIP3    H252371   4.880   0.714  13.271 -0.2486 -1.1404  0.5847
10294TIP3   OH252372   5.968   5.642   6.504 -0.1963  0.3684 -0.1627
10294TIP3    H152373   6.030   5.712   6.484  0.8374 -0.1392  1.2125
10294TIP3    H252374   5.958   5.645   6.599  0.6367 -1.9687  0.0354
10295TIP3   OH252375   6.118   0.773   2.007  0.3693  0.1988 -0.2371
10295TIP3    H152376   6.040   0.827   2.018  0.6045  0.4822  0.0357
10295TIP3    H252377   6.125   0.760   1.912 -0.2947 -0.2514 -0.2305
10296TIP3   OH252378   1.401   6.717  12.762  0.1174  0.3071 -0.1805
10296TIP3    H152379   1.398   6.768  12.842  0.1373 -1.6291  1.0777
10296TIP3    H252380   1.489   6.732  12.727  0.5034  0.2615  0.7624
10297TIP3   OH252381   6.350   2.251  14.679 -0.0927 -0.0466  0.3363
10297TIP3    H152382   6.389   2.172  14.641 -0.7687 -0.7342  1.0393
10297TIP3    H252383   6.277   2.273  14.620 -0.1530 -0.1866  0.3580
10298TIP3   OH252384   6.589   1.223   3.917  0.7648  0.0570  0.2652
10298TIP3    H152385   6.497   1.209   3.898  1.1586  0.7912 -2.4213
10298TIP3    H252386   6.590   1.294   3.981 -0.4977  0.9007 -0.6234
10299TIP3   OH252387   2.286   4.540  12.002  0.0190  0.3473  0.1679
10299TIP3    H152388   2.230   4.576  12.071 -1.4315 -1.1684 -0.1695
10299TIP3    H252389   2.359   4.500  12.049  1.0179  2.6386  0.5992
10300TIP3   OH252390   5.199   2.432   2.917  0.2501  0.0595 -0.5558
10300TIP3    H152391   5.260   2.503   2.933  2.1465 -1.8379  0.8767
10300TIP3    H252392   5.246   2.353   2.944 -2.3960 -1.5736 -0.5515
10301TIP3   OH252393   0.275   5.969  14.130  0.3413 -0.1354 -0.1221
10301TIP3    H152394   0.270   5.874  14.142  2.5097 -0.1430  1.0853
10301TIP3    H252395   0.205   6.004  14.185 -1.9069 -1.1006 -2.2755
10302TIP3   OH252396   1.949   0.165  16.107  0.0018 -0.6541  0.5436
10302TIP3    H152397   2.024   0.213  16.144 -0.1152 -0.6326  0.7486
10302TIP3    H252398   1.884   0.232  16.090  0.3349 -0.5556 -0.3988
10303TIP3   OH252399   5.131   5.559   0.392  0.2522  0.3692  0.1073
10303TIP3    H152400   5.098   5.648   0.392 -1.0094 -0.0786 -0.4932
10303TIP3    H252401   5.117   5.529   0.302 -0.1954 -0.7405  0.5429
10304TIP3   OH252402   4.176   1.522  16.101 -0.1672 -0.3087 -0.3817
10304TIP3    H152403   4.212   1.440  16.068  0.7600 -0.4957  1.0426
10304TIP3    H252404   4.149   1.501  16.191  0.2824  1.0029  0.0655
10305TIP3   OH252405   2.334   5.235   3.143  0.4689  0.3801  0.5817
10305TIP3    H152406   2.314   5.306   3.204  0.8202  0.5153  0.5450
10305TIP3    H252407   2.427   5.215   3.159 -0.0008 -1.0605  1.5945
10306TIP3   OH252408   1.095   1.479  11.952 -0.1890 -0.3967 -0.5064
10306TIP3    H152409   1.118   1.505  11.863 -1.2362  0.6036 -0.5038
10306TIP3    H252410   1.048   1.397  11.942 -1.5569  0.4320 -1.0227
10307TIP3   OH252411   0.273   4.510  12.719  0.0475  0.7010  0.1718
10307TIP3    H152412   0.239   4.428  12.754  0.2790 -0.5364 -2.4538
10307TIP3    H252413   0.367   4.496  12.711  0.0725  1.1932 -0.3958
10308TIP3   OH252414   1.709   3.806   4.916  0.1634 -0.5032 -0.0195
10308TIP3    H152415   1.736   3.878   4.973  0.3723  1.1398 -2.1742
10308TIP3    H252416   1.613   3.812   4.913  0.1240 -0.8313  0.4360
10309TIP3   OH252417   1.580   3.035   5.130  0.5248  0.5335 -0.3629
10309TIP3    H152418   1.602   3.119   5.090 -0.5316  1.4160  0.8651
10309TIP3    H252419   1.552   3.058   5.218  1.2223 -1.2264  0.3269
10310TIP3   OH252420   2.974   5.296   0.455  0.4717 -0.3035  0.1119
10310TIP3    H152421   2.893   5.249   0.433 -0.2738  0.9994  0.0261
10310TIP3    H252422   2.952   5.388   0.444  2.2909  0.0191 -0.9321
10311TIP3   OH252423   2.236   1.696  13.093  0.5000  0.9488  1.0941
10311TIP3    H152424   2.188   1.622  13.130  1.8691 -0.5771 -0.1399
10311TIP3    H252425   2.257   1.751  13.168  1.5407 -1.1098  2.3539
10312TIP3   OH252426   2.978   4.045   4.912  0.2264 -0.5741  0.2516
10312TIP3    H152427   3.003   4.129   4.952  0.7413 -0.4730 -0.2773
10312TIP3    H252428   2.896   4.022   4.955 -0.3245  0.5846 -0.1549
10313TIP3   OH252429   4.523   0.725  12.186 -0.2862  0.2992  0.3466
10313TIP3    H152430   4.466   0.668  12.237  1.4732 -0.0616  1.9876
10313TIP3    H252431   4.607   0.679  12.184  0.7547  2.1350  0.4597
10314TIP3   OH252432   6.353   3.861  15.520 -0.0664  0.0112  0.5671
10314TIP3    H152433   6.437   3.867  15.474 -0.1349  0.1057  0.4557
10314TIP3    H252434   6.343   3.768  15.539 -0.3661 -0.1145 -0.2124
10315TIP3   OH252435   1.318   2.974  11.799 -0.0709 -0.3417 -0.4194
10315TIP3    H152436   1.328   3.064  11.768 -1.6733  0.8205  2.2745
10315TIP3    H252437   1.240   2.941  11.754 -0.6230  0.3043  0.0489
10316TIP3   OH252438   0.170   5.929   1.564 -0.3866 -0.0012 -0.2064
10316TIP3    H152439   0.234   5.914   1.495 -1.3708  0.7231 -1.2845
10316TIP3    H252440   0.222   5.958   1.639  0.6666 -0.6462 -0.6780
10317TIP3   OH252441   1.758   3.352  11.449  0.4589 -0.5020 -0.0509
10317TIP3    H152442   1.791   3.307  11.371  2.1716  1.6724 -0.6334
10317TIP3    H252443   1.836   3.389  11.491 -0.5913 -0.5240  1.9733
10318TIP3   OH252444   1.747   4.414  11.829 -0.1938 -0.2088 -0.6626
10318TIP3    H152445   1.775   4.324  11.845  3.1655  1.0649  1.3252
10318TIP3    H252446   1.690   4.435  11.904  0.9809  0.0337  0.1868
10319TIP3   OH252447   1.421   0.577  11.641 -0.2750  0.1963  0.0188
10319TIP3    H152448   1.430   0.672  11.631 -0.9996  0.3754  1.0635
10319TIP3    H252449   1.370   0.550  11.565  1.3591  0.3934 -1.1904
10320TIP3   OH252450   3.532   3.262  15.705  0.2656  0.6737 -0.1130
10320TIP3    H152451   3.559   3.301  15.622  0.6534  3.0636  1.0727
10320TIP3    H252452   3.438   3.276  15.709  0.2441  0.5416 -0.1594
10321TIP3   OH252453   6.541   4.725   1.071  0.2055 -0.0721 -0.5643
10321TIP3    H152454   6.593   4.702   0.994 -0.4165 -2.9481 -0.1498
10321TIP3    H252455   6.550   4.650   1.129 -2.6786  0.3109  0.4189
10322TIP3   OH252456   3.580   3.241  14.937  0.3328  0.1476  0.3583
10322TIP3    H152457   3.516   3.303  14.972 -0.8164 -0.7845 -0.0319
10322TIP3    H252458   3.526   3.174  14.893  1.5817 -0.6551  0.0331
10323TIP3   OH252459   5.159   2.535  15.417 -0.0239  0.1037  0.6864
10323TIP3    H152460   5.072   2.523  15.455  0.4878 -1.9777  1.2573
10323TIP3    H252461   5.215   2.557  15.491  0.5828 -1.9826  0.8804
10324TIP3   OH252462   0.108   0.280   0.116 -0.1414 -0.9850 -0.4505
10324TIP3    H152463   0.187   0.260   0.066 -0.6317  0.7594 -1.9459
10324TIP3    H252464   0.139   0.296   0.205  1.1642 -0.5730 -0.9725
10325TIP3   OH252465   6.748   3.560  11.663 -0.0216 -0.4198  0.2310
10325TIP3    H152466   6.814   3.628  11.652 -0.5729 -0.0046 -0.4843
10325TIP3    H252467   6.786   3.501  11.728  0.6907  0.2707  0.4478
10326TIP3   OH252468   1.473   2.675  15.352 -0.1603 -0.4521 -0.2306
10326TIP3    H152469   1.413   2.605  15.324 -0.6637 -0.5454  1.0558
10326TIP3    H252470   1.549   2.664  15.296 -0.2823 -1.9767 -0.1369
10327TIP3   OH252471   0.409   2.660   0.677  0.4308 -0.5833  0.7164
10327TIP3    H152472   0.389   2.590   0.739  1.1018 -2.6273 -1.3040
10327TIP3    H252473   0.495   2.637   0.642  0.2866  0.7840 -0.6061
10328TIP3   OH252474   4.587   5.070  15.151 -0.3288 -0.8176 -0.1473
10328TIP3    H152475   4.615   4.981  15.128  1.4628 -0.2329 -0.3090
10328TIP3    H252476   4.668   5.121  15.150 -1.0193  0.3789  2.0233
10329TIP3   OH252477   3.606   4.482  13.930  0.2419 -0.0941  0.3124
10329TIP3    H152478   3.529   4.519  13.973  1.7000  0.6002  2.4290
10329TIP3    H252479   3.587   4.389  13.921 -0.3791 -0.1296  1.8723
10330TIP3   OH252480   4.781   4.683   1.836 -0.1443  0.4086  0.4827
10330TIP3    H152481   4.857   4.728   1.873 -0.8440  1.7077  0.3648
10330TIP3    H252482   4.776   4.600   1.884  2.2689 -0.3927 -0.5796
10331TIP3   OH252483   3.826   5.620   5.130 -0.2464  0.6528 -0.1975
10331TIP3    H152484   3.905   5.567   5.135 -0.1672  0.6747 -1.0835
10331TIP3    H252485   3.785   5.611   5.216  0.1680 -0.2179 -0.0910
10332TIP3   OH252486   6.556   3.874   5.423 -0.2202 -0.8410 -0.0722
10332TIP3    H152487   6.467   3.877   5.388 -0.5341  3.1482  0.8154
10332TIP3    H252488   6.610   3.912   5.355  0.3533 -0.4443  0.5979
10333TIP3   OH252489   3.550   3.958  17.115 -0.2152  0.1265  0.0015
10333TIP3    H152490   3.462   3.991  17.133  0.4737  0.9082  2.0452
10333TIP3    H252491   3.608   4.033  17.131  0.9088 -0.6333 -0.4358
10334TIP3   OH252492   4.412   0.090   6.015 -0.3904  0.4927  0.0693
10334TIP3    H152493   4.337   0.031   6.013  1.0866 -1.4131 -0.0170
10334TIP3    H252494   4.380   0.167   6.064 -2.4788 -0.1354 -0.2554
10335TIP3   OH252495   1.976   6.166   1.145 -0.1727  0.4246  0.3216
10335TIP3    H152496   1.988   6.261   1.137 -0.0670  0.2900 -1.3655
10335TIP3    H252497   1.952   6.152   1.237 -2.4620  2.3219  0.0548
10336TIP3   OH252498   1.494   3.354  14.115  0.4378 -0.0592  0.5535
10336TIP3    H152499   1.439   3.286  14.154 -0.5033  0.1486 -0.3940
10336TIP3    H252500   1.559   3.306  14.063  0.6645 -0.2764  1.0315
10337TIP3   OH252501   0.732   2.323  15.257  0.0349 -0.9306 -0.2838
10337TIP3    H152502   0.806   2.375  15.289 -0.0610 -2.0287  1.8083
10337TIP3    H252503   0.663   2.338  15.321 -0.9052 -1.4655 -1.1627
10338TIP3   OH252504   2.805   1.610   1.454 -0.0167 -0.2233 -0.8854
10338TIP3    H152505   2.787   1.680   1.517  2.4970 -1.1627  0.9091
10338TIP3    H252506   2.851   1.653   1.382  2.1045 -0.0919  0.5122
10339TIP3   OH252507   4.255   1.010  11.375 -0.6028  0.3018 -0.4305
10339TIP3    H152508   4.321   1.079  11.389  0.0785 -0.7451  1.7202
10339TIP3    H252509   4.306   0.930  11.367 -1.4395 -0.0512 -2.3461
10340TIP3   OH252510   6.135   4.567   5.308 -0.3944 -0.4569 -0.2219
10340TIP3    H152511   6.194   4.594   5.238  0.2449 -0.8283  0.1674
10340TIP3    H252512   6.178   4.491   5.348 -0.8824 -0.4125  0.3996
10341TIP3   OH252513   1.962   4.296  13.099  0.6146  0.3423 -0.0078
10341TIP3    H152514   2.016   4.372  13.119  0.9676 -0.4920  2.3319
10341TIP3    H252515   2.021   4.235  13.056 -0.0451  1.9664 -3.4160
10342TIP3   OH252516   3.048   5.587  13.655  0.0836  0.4545  0.3894
10342TIP3    H152517   3.077   5.677  13.637 -2.4559  1.0992 -0.6237
10342TIP3    H252518   3.097   5.562  13.734 -0.4777  3.3928  1.7702
10343TIP3   OH252519   3.445   3.631   0.664  0.4233 -0.0533  0.1647
10343TIP3    H152520   3.370   3.582   0.632 -1.3089  1.7598  1.2962
10343TIP3    H252521   3.426   3.722   0.642  0.8894  0.8024  2.9877
10344TIP3   OH252522   5.499   0.899   0.589  0.0388 -0.4120 -0.2642
10344TIP3    H152523   5.529   0.868   0.675 -0.6089  0.8013  0.3994
10344TIP3    H252524   5.405   0.910   0.599  0.0081  0.0298 -1.0526
10345TIP3   OH252525   2.433   0.544  17.223 -0.0657  0.0987 -0.4138
10345TIP3    H152526   2.461   0.503  17.142 -0.6654  0.9622 -1.0642
10345TIP3    H252527   2.337   0.545  17.219 -0.0990  0.3042  0.2230
10346TIP3   OH252528   0.828   1.106   2.837 -0.6306 -0.1286  0.0081
10346TIP3    H152529   0.828   1.199   2.814 -1.7609  0.4618  2.1921
10346TIP3    H252530   0.899   1.098   2.902 -0.5594 -0.7809 -0.1469
10347TIP3   OH252531   3.247   0.309  10.706  0.0011  1.0850 -0.5519
10347TIP3    H152532   3.167   0.304  10.653  0.3186 -0.6268 -0.8958
10347TIP3    H252533   3.256   0.402  10.726 -1.4192  1.4575 -1.5207
10348TIP3   OH252534   2.530   1.588  14.157  0.1915 -0.0313  0.4294
10348TIP3    H152535   2.521   1.589  14.253  2.0599 -0.2842  0.6200
10348TIP3    H252536   2.620   1.560  14.142  0.3036  1.2389 -1.3894
10349TIP3   OH252537   0.926   3.781   5.453 -0.3882  0.5885  0.0784
10349TIP3    H152538   0.964   3.868   5.467  0.1108  0.3192  0.4300
10349TIP3    H252539   1.002   3.722   5.454 -0.4991  0.3797 -2.2650
10350TIP3   OH252540   2.862   4.120  14.502  0.1916  0.2811  0.2144
10350TIP3    H152541   2.911   4.086  14.428 -1.9155 -1.2394 -0.5369
10350TIP3    H252542   2.817   4.198  14.468 -3.1065 -2.0405 -1.0550
10351TIP3   OH252543   1.099   3.074  12.870 -0.3417  0.8304 -0.2364
10351TIP3    H152544   1.158   3.092  12.796 -1.1306  0.2595 -1.0110
10351TIP3    H252545   1.099   2.979  12.879  1.3428  0.9806  1.8351
10352TIP3   OH252546   5.099   5.502  11.547 -0.8177  0.0149  0.2995
10352TIP3    H152547   5.023   5.446  11.562  0.5669 -1.8513  0.5597
10352TIP3    H252548   5.169   5.441  11.523  0.4606  1.7451 -0.4768
10353TIP3   OH252549   2.043   5.058  16.329 -0.4417  0.2066 -0.3227
10353TIP3    H152550   2.021   5.041  16.420  0.3826  2.0484  0.2509
10353TIP3    H252551   2.041   4.973  16.287  0.7056 -0.8847  1.7552
10354TIP3   OH252552   2.994   4.774   1.624  0.0257  0.2544  0.3519
10354TIP3    H152553   3.083   4.789   1.658 -0.4341  1.3963  1.0822
10354TIP3    H252554   2.948   4.856   1.640 -0.7925  0.1312 -1.2349
10355TIP3   OH252555   5.078   1.071  13.599  0.0496 -0.2323 -0.3234
10355TIP3    H152556   5.068   1.017  13.520  1.2903 -2.2949  0.8884
10355TIP3    H252557   5.138   1.141  13.572 -0.0417 -0.5600 -1.3934
10356TIP3   OH252558   2.326   4.372   1.696  0.3395  0.4474  0.0036
10356TIP3    H152559   2.273   4.436   1.649 -0.6166  0.3379  0.9143
10356TIP3    H252560   2.264   4.325   1.751  1.2603 -0.2630  0.4560
10357TIP3   OH252561   6.152   3.275   3.068 -0.3435  0.3950 -0.6543
10357TIP3    H152562   6.121   3.211   3.005  2.2304 -1.7448  0.1869
10357TIP3    H252563   6.131   3.238   3.154 -0.4792  1.5343 -0.1766
10358TIP3   OH252564   2.450   6.137   0.031 -0.3859  0.2627  0.4240
10358TIP3    H152565   2.516   6.082  -0.011 -2.1761 -0.7039 -1.2236
10358TIP3    H252566   2.474   6.136   0.124  0.4909 -2.1224  0.2283
10359TIP3   OH252567   2.230   6.191  15.166 -0.6174 -0.1828 -0.2276
10359TIP3    H152568   2.282   6.113  15.183  0.1966  0.4890  0.3987
10359TIP3    H252569   2.273   6.233  15.092 -0.4263  0.2329  0.1197
10360TIP3   OH252570   2.011   0.457   0.554 -0.0468 -0.0404  0.1990
10360TIP3    H152571   2.043   0.370   0.529 -1.8917 -0.5849 -0.3746
10360TIP3    H252572   2.025   0.462   0.648 -1.2427 -1.5448  0.4779
10361TIP3   OH252573   6.048   2.234  17.255 -0.0980 -0.1610 -0.0883
10361TIP3    H152574   5.962   2.267  17.229  0.1092 -0.0240 -0.6065
10361TIP3    H252575   6.033   2.189  17.338 -0.5178  0.6230  0.2714
10362TIP3   OH252576   2.131   4.299   1.889  0.4837  0.1185  0.1881
10362TIP3    H152577   2.202   4.269   1.945 -0.5904 -3.9284 -0.3944
10362TIP3    H252578   2.052   4.262   1.929 -0.8818  1.5636 -1.1028
10363TIP3   OH252579   4.975   0.755   3.885  0.7017  0.0711  0.0391
10363TIP3    H152580   4.976   0.675   3.833 -0.5523 -0.0295  0.1515
10363TIP3    H252581   4.945   0.727   3.972  2.8695  0.2185  0.8651
10364TIP3   OH252582   3.632   4.472  15.692 -0.1100 -0.2383  0.1759
10364TIP3    H152583   3.605   4.529  15.620 -0.5446 -1.1157 -0.3703
10364TIP3    H252584   3.690   4.526  15.745 -2.5647  1.5348  1.1184
10365TIP3   OH252585   4.998   1.585  15.499  0.0934 -0.3136  0.2167
10365TIP3    H152586   4.967   1.630  15.420  0.0845 -0.4609  0.1351
10365TIP3    H252587   5.057   1.647  15.541  0.4567 -0.4173 -0.1502
10366TIP3   OH252588   6.787   6.697   0.178 -0.2723 -0.0545 -0.6345
10366TIP3    H152589   6.864   6.683   0.123  1.1753 -1.3092  1.6266
10366TIP3    H252590   6.791   6.628   0.244 -3.0804  0.1700 -0.1400
10367TIP3   OH252591   5.518   5.983   3.607 -0.0684 -0.9325  0.1329
10367TIP3    H152592   5.503   6.067   3.564  0.9522 -0.0275  1.5088
10367TIP3    H252593   5.545   5.924   3.536  2.3440  0.7316 -0.3961
10368TIP3   OH252594   0.277   2.464  16.993 -0.7278  0.0168  0.0846
10368TIP3    H152595   0.223   2.432  17.066 -0.7318 -0.5564 -0.1688
10368TIP3    H252596   0.327   2.388  16.965  2.5669  1.2508  2.3147
10369TIP3   OH252597   6.347   0.959  15.189  0.1496  0.6254 -0.1763
10369TIP3    H152598   6.254   0.950  15.169  0.6009 -0.3960 -1.9386
10369TIP3    H252599   6.350   0.973  15.283 -1.6179 -3.1710  0.5740
10370TIP3   OH252600   6.660   4.346  12.071  0.0056 -0.1610 -0.5108
10370TIP3    H152601   6.731   4.285  12.088 -1.0429 -1.2746 -0.1064
10370TIP3    H252602   6.648   4.344  11.976  0.7479  0.2949 -0.6157
10371TIP3   OH252603   6.545   3.064   4.682 -0.0183 -0.4662  0.3609
10371TIP3    H152604   6.592   3.121   4.744  0.1378 -0.3637  0.1475
10371TIP3    H252605   6.466   3.113   4.660  0.2531 -0.2100 -0.0409
10372TIP3   OH252606   2.423   3.143   1.786 -0.4551 -0.9520  0.1165
10372TIP3    H152607   2.494   3.181   1.837 -2.0834  0.3797  1.4408
10372TIP3    H252608   2.463   3.120   1.702  1.5113 -0.1833  0.8324
10373TIP3   OH252609   0.025   2.584   5.760  0.7922  0.1922 -0.0634
10373TIP3    H152610   0.034   2.677   5.739  0.4686  0.0305 -0.9369
10373TIP3    H252611  -0.033   2.550   5.692  0.9137 -0.6514  0.2522
10374TIP3   OH252612   5.934   0.661  16.236  0.8625 -0.3662  0.1603
10374TIP3    H152613   5.962   0.601  16.305 -0.5472  0.1425  1.1918
10374TIP3    H252614   5.937   0.609  16.156  0.5978 -1.5365  0.9034
10375TIP3   OH252615   4.640   4.881   1.474  0.0772 -0.1439 -0.1781
10375TIP3    H152616   4.589   4.867   1.394  1.5607  0.2053 -1.2017
10375TIP3    H252617   4.614   4.969   1.502 -1.1688 -0.6407  0.2831
10376TIP3   OH252618   1.739   2.762  13.060  0.1361 -0.7194 -0.0164
10376TIP3    H152619   1.693   2.704  13.120 -0.3015  0.0629  0.4188
10376TIP3    H252620   1.727   2.850  13.098  0.7690 -0.3467 -0.6678
10377TIP3   OH252621   3.098   4.628   1.196  0.2012  0.3102  0.0047
10377TIP3    H152622   3.100   4.702   1.257 -1.4912 -0.2670  0.7922
10377TIP3    H252623   3.167   4.570   1.226  0.3311  0.7114  0.4978
10378TIP3   OH252624   0.225   1.017   3.182  0.3560  0.1041 -0.0022
10378TIP3    H152625   0.215   1.103   3.223 -2.3313 -0.8588  1.4330
10378TIP3    H252626   0.200   1.031   3.090  0.0870  0.8889  0.1852
10379TIP3   OH252627   3.223   3.600  14.800  0.1843  0.2995 -0.1170
10379TIP3    H152628   3.242   3.660  14.728 -0.8447  0.8911  0.0940
10379TIP3    H252629   3.290   3.533  14.794  0.9531  1.1209 -0.7603
10380TIP3   OH252630   5.640   3.138  14.207  0.0741  0.6816 -0.0429
10380TIP3    H152631   5.654   3.232  14.192 -0.3515  0.9380  1.1837
10380TIP3    H252632   5.554   3.120  14.169  0.7950  0.4722 -1.6109
10381TIP3   OH252633   0.403   5.105  15.905 -0.2252 -0.4438  0.7564
10381TIP3    H152634   0.439   5.082  15.991  2.2685 -0.6743 -0.3178
10381TIP3    H252635   0.454   5.182  15.877 -0.0267 -1.2358 -1.1309
10382TIP3   OH252636   4.036   4.565  16.684  0.3832  0.3097 -0.2622
10382TIP3    H152637   4.055   4.519  16.766  1.6847  0.4342 -0.4848
10382TIP3    H252638   4.038   4.658  16.708  0.9258  0.3512 -0.4661
10383TIP3   OH252639   4.642   0.206   0.024  0.3020 -0.0739 -0.0795
10383TIP3    H152640   4.603   0.252   0.099 -1.4767 -0.3369 -0.8141
10383TIP3    H252641   4.590   0.127   0.015  2.0090 -1.2163 -0.1459
10384TIP3   OH252642   5.247   1.160  12.773 -0.4023  0.0541  0.4713
10384TIP3    H152643   5.251   1.180  12.866 -0.6377 -0.2866  0.5544
10384TIP3    H252644   5.201   1.077  12.768 -0.3636  0.0558  0.0525
10385TIP3   OH252645   1.060   1.859   1.179  0.1717 -0.5804  0.3370
10385TIP3    H152646   1.020   1.849   1.265 -1.4378  1.9540 -0.0671
10385TIP3    H252647   0.993   1.829   1.117  0.3767 -0.0880 -0.1343
10386TIP3   OH252648   1.901   2.790  12.821  0.3946  0.2997  0.2707
10386TIP3    H152649   1.925   2.700  12.798 -0.6162 -0.0737  0.6509
10386TIP3    H252650   1.871   2.785  12.912 -2.2884  0.4983 -0.5462
10387TIP3   OH252651   1.231   0.846   6.613  0.5919  0.0381  0.2097
10387TIP3    H152652   1.193   0.790   6.681  0.4565  0.4281  0.4593
10387TIP3    H252653   1.155   0.880   6.565  0.7231 -0.9713 -0.7345
10388TIP3   OH252654   2.267   3.707   1.761  0.2871 -0.0724  0.0868
10388TIP3    H152655   2.339   3.761   1.727 -0.9443  1.8366  0.4506
10388TIP3    H252656   2.247   3.745   1.846 -1.5692 -0.2007 -0.2880
10389TIP3   OH252657   6.379   6.084   2.816  0.4454  0.2699  0.0529
10389TIP3    H152658   6.394   6.117   2.905 -0.3206  0.5232  0.0972
10389TIP3    H252659   6.291   6.116   2.794 -0.3532 -1.7612  0.1345
10390TIP3   OH252660   1.057   2.589   0.305  0.4119  0.0507 -0.2517
10390TIP3    H152661   1.065   2.664   0.364 -2.4718  0.6579 -0.5359
10390TIP3    H252662   1.020   2.626   0.224 -0.2494 -1.5426 -0.6957
10391TIP3   OH252663   4.715   4.871  11.712 -0.2758 -0.3266  0.3504
10391TIP3    H152664   4.678   4.802  11.768 -1.2411  0.1306  0.2918
10391TIP3    H252665   4.638   4.914  11.675  0.3421  0.3455 -0.1432
10392TIP3   OH252666   0.455   2.256  10.849  0.2065  0.1173  0.4265
10392TIP3    H152667   0.370   2.285  10.816 -0.4217 -0.5326  1.4805
10392TIP3    H252668   0.477   2.180  10.795  0.2050  0.3926  0.0353
10393TIP3   OH252669   0.850   6.751   3.415  0.1694  0.2660 -0.4069
10393TIP3    H152670   0.766   6.772   3.375  0.5231 -0.0833 -1.3304
10393TIP3    H252671   0.872   6.829   3.467 -0.0601  0.9019 -1.2620
10394TIP3   OH252672   0.567   3.983  16.085 -0.2223  0.0568  0.6740
10394TIP3    H152673   0.655   3.954  16.109 -0.2515 -1.1002 -0.6026
10394TIP3    H252674   0.568   3.986  15.990 -1.2310  1.1261  0.6859
10395TIP3   OH252675   5.173   2.176  11.633 -0.8550  0.2602  0.1467
10395TIP3    H152676   5.133   2.180  11.720 -0.7178 -0.8395  0.2650
10395TIP3    H252677   5.209   2.087  11.627 -1.0526  0.2614 -1.1179
10396TIP3   OH252678   3.085   5.357   3.849  0.0668 -0.1761 -0.8374
10396TIP3    H152679   3.079   5.309   3.931 -0.1568 -0.8087 -1.2191
10396TIP3    H252680   3.157   5.419   3.862 -1.8001  1.7048  0.8345
10397TIP3   OH252681   5.298   3.814   2.494 -0.0732 -0.4046 -0.0071
10397TIP3    H152682   5.277   3.736   2.441 -0.6499 -0.5151  0.3930
10397TIP3    H252683   5.322   3.779   2.580 -0.4012 -0.1297  0.1940
10398TIP3   OH252684   0.925   2.502  15.328 -0.0606 -0.3755  0.2936
10398TIP3    H152685   1.019   2.491  15.313 -0.4114 -1.0891 -1.5180
10398TIP3    H252686   0.914   2.493  15.423  1.5069 -1.7149  0.3580
10399TIP3   OH252687   6.718   4.951  15.005 -0.3676 -0.1708  0.0642
10399TIP3    H152688   6.648   4.913  14.953 -0.4750  0.2484 -0.0994
10399TIP3    H252689   6.698   5.045  15.008  0.1079 -0.0699  0.1364
10400TIP3   OH252690   4.576   1.574   0.018 -0.2989  0.5468 -0.5967
10400TIP3    H152691   4.501   1.593   0.074  0.8284 -1.3000  1.6184
10400TIP3    H252692   4.651   1.611   0.065  0.4605  0.3885 -1.6663
10401TIP3   OH252693   1.492   5.557   2.439 -0.0440 -0.1712 -0.2967
10401TIP3    H152694   1.454   5.563   2.352  0.1719  0.4419 -0.3584
10401TIP3    H252695   1.568   5.499   2.429 -1.4433 -2.0974  0.0156
10402TIP3   OH252696   1.982   2.853  10.373 -0.1490 -0.2850  0.3675
10402TIP3    H152697   2.065   2.859  10.326 -1.1087 -0.0457 -1.3148
10402TIP3    H252698   1.983   2.927  10.433  0.4317  0.2749 -0.3282
10403TIP3   OH252699   3.147   2.421  13.008  0.2422  0.0610 -0.0186
10403TIP3    H152700   3.076   2.472  13.049  0.4069  0.2793 -0.0055
10403TIP3    H252701   3.224   2.439  13.062  0.3927  0.1185 -0.2514
10404TIP3   OH252702   1.306   5.268  15.249  0.5915 -0.3643  0.1475
10404TIP3    H152703   1.345   5.212  15.182  2.2958  1.2952 -0.3110
10404TIP3    H252704   1.343   5.355  15.232 -0.8079  0.5869  1.7668
10405TIP3   OH252705   6.378   3.407   0.845 -0.4054 -0.5697  0.1220
10405TIP3    H152706   6.418   3.392   0.759 -1.5788 -0.9211 -0.3797
10405TIP3    H252707   6.401   3.497   0.867 -0.7728 -0.2061 -0.9446
10406TIP3   OH252708   3.166   0.215   4.540  0.1981 -0.3039  0.0667
10406TIP3    H152709   3.217   0.291   4.511  0.6827 -0.8119 -0.4070
10406TIP3    H252710   3.173   0.218   4.636 -4.3554  3.4420  0.4809
10407TIP3   OH252711   5.954   0.535  14.103 -0.5354  0.2225  0.0268
10407TIP3    H152712   5.965   0.517  14.010 -2.1212  2.5488 -0.6504
10407TIP3    H252713   5.922   0.452  14.140 -0.3228 -0.5765 -1.5657
10408TIP3   OH252714   4.630   1.602   3.867 -0.3684  0.2602  0.0228
10408TIP3    H152715   4.644   1.640   3.780  2.7157 -0.9374 -0.0474
10408TIP3    H252716   4.626   1.678   3.925  2.2153  0.9041 -0.5765
10409TIP3   OH252717   3.726   6.700   5.652 -0.0467  0.2293  0.3829
10409TIP3    H152718   3.769   6.658   5.578 -0.4484  0.7228 -0.1316
10409TIP3    H252719   3.653   6.643   5.674 -0.7760  0.8054 -0.5125
10410TIP3   OH252720   1.567   2.290   3.618  0.2254  0.0288 -0.3976
10410TIP3    H152721   1.642   2.285   3.677 -0.1679  0.1392  0.1181
10410TIP3    H252722   1.602   2.269   3.532  0.9016  0.3671 -0.2041
10411TIP3   OH252723   3.967   6.521  10.485  0.5360  0.1811  0.9035
10411TIP3    H152724   3.996   6.572  10.410 -0.2106  1.0090  1.1663
10411TIP3    H252725   3.893   6.471  10.453  1.8170 -1.4341  0.4077
10412TIP3   OH252726   0.995   0.994  12.050 -0.3532 -0.2305 -0.2391
10412TIP3    H152727   0.922   0.947  12.091 -0.1182 -0.8875 -0.5611
10412TIP3    H252728   1.071   0.936  12.063  0.5183  1.2842  1.7485
10413TIP3   OH252729   3.024   5.305  15.891 -0.1833  0.1658  0.4783
10413TIP3    H152730   3.062   5.312  15.979  0.9616 -1.0210  0.0933
10413TIP3    H252731   2.949   5.365  15.893 -0.8488 -0.6594  2.6252
10414TIP3   OH252732   2.639   0.494   0.818  0.0822  0.1361 -0.1410
10414TIP3    H152733   2.580   0.523   0.749 -0.1094  1.3127  0.5029
10414TIP3    H252734   2.723   0.534   0.796  0.4046 -0.7372 -0.5225
10415TIP3   OH252735   2.516   4.999  15.763  0.1617  0.1096 -0.2452
10415TIP3    H152736   2.589   4.960  15.714 -1.2181 -0.4824 -1.9078
10415TIP3    H252737   2.439   4.980  15.709 -1.5083 -0.9988  2.4007
10416TIP3   OH252738   6.030   6.467   2.714  0.3159 -0.2923  0.8168
10416TIP3    H152739   6.042   6.555   2.678 -0.2633  0.3043  2.0666
10416TIP3    H252740   6.006   6.481   2.805 -1.8366 -1.6828  0.4910
10417TIP3   OH252741   1.001   0.850  13.907  0.3055  0.2005  0.0554
10417TIP3    H152742   0.926   0.791  13.897  0.7998 -0.3095 -0.7016
10417TIP3    H252743   1.046   0.819  13.986  0.0447  0.1440  0.1815
10418TIP3   OH252744   0.332   6.355   5.563  0.0871 -0.1707 -0.1742
10418TIP3    H152745   0.397   6.344   5.493 -0.7550  0.7062 -1.1015
10418TIP3    H252746   0.359   6.292   5.630 -0.4481 -2.7346 -2.2758
10419TIP3   OH252747   3.235   5.530  12.220  0.3686  0.7614  0.4424
10419TIP3    H152748   3.281   5.593  12.165 -0.7421 -0.2077 -1.6455
10419TIP3    H252749   3.149   5.570  12.234 -0.0296  0.1025 -0.1463
10420TIP3   OH252750   3.111   5.190  10.257  1.1499 -0.3267 -0.0747
10420TIP3    H152751   3.123   5.107  10.304  0.3537  0.4620  1.5848
10420TIP3    H252752   3.046   5.237  10.309  0.9228  0.9741 -1.4982
10421TIP3   OH252753   0.653   4.267  13.135 -0.3032  0.3331  0.2490
10421TIP3    H152754   0.732   4.214  13.127 -0.8897 -0.2829 -1.9602
10421TIP3    H252755   0.665   4.338  13.071 -0.4329  1.7103  1.7098
10422TIP3   OH252756   4.997   3.509   0.112 -0.1492 -0.0366  0.1085
10422TIP3    H152757   5.073   3.565   0.123 -0.3273  0.0771  0.8101
10422TIP3    H252758   4.971   3.521   0.020 -0.5132  1.4550  0.3861
10423TIP3   OH252759   0.437   2.952   3.415  0.0377  0.4479  0.2515
10423TIP3    H152760   0.469   2.871   3.454 -1.0529  0.3569  0.9820
10423TIP3    H252761   0.480   2.957   3.330  1.1956 -0.1786  0.7931
10424TIP3   OH252762   1.364   5.312   0.221 -0.1085 -0.0945  0.1773
10424TIP3    H152763   1.440   5.287   0.274 -1.5902 -2.6484  1.1375
10424TIP3    H252764   1.344   5.235   0.169 -2.6453  0.2245  0.6350
10425TIP3   OH252765   3.246   0.792   4.693 -0.2885 -0.2786  0.3390
10425TIP3    H152766   3.281   0.817   4.779 -0.3442  0.2798  0.1976
10425TIP3    H252767   3.183   0.722   4.713 -0.7190  0.2433  0.8096
10426TIP3   OH252768   0.870   5.739  13.947 -0.3610  0.3167  0.3622
10426TIP3    H152769   0.834   5.796  14.015 -0.9731  1.5365 -0.9547
10426TIP3    H252770   0.965   5.743  13.960 -0.3728  1.9723  0.0411
10427TIP3   OH252771   2.479   3.236   4.832 -0.8429  0.0608  0.6909
10427TIP3    H152772   2.419   3.252   4.759  1.9639 -1.0382 -1.9235
10427TIP3    H252773   2.481   3.141   4.840 -0.7553  0.1599  1.8934
10428TIP3   OH252774   3.279   0.881  12.189  0.2783  0.4363  0.1230
10428TIP3    H152775   3.212   0.815  12.172 -0.3339  0.5686  1.8568
10428TIP3    H252776   3.347   0.834  12.238  1.3380  0.3617 -1.4075
10429TIP3   OH252777   5.549   2.702  10.950 -0.3160  0.2767  0.1232
10429TIP3    H152778   5.467   2.695  10.900  0.9922  1.8445 -2.3152
10429TIP3    H252779   5.543   2.787  10.993  0.4848  0.8238 -0.8595
10430TIP3   OH252780   1.601   3.123   1.002  0.4219 -0.3340 -0.2845
10430TIP3    H152781   1.544   3.143   1.076 -0.0586 -0.5743 -0.5926
10430TIP3    H252782   1.553   3.154   0.925  1.5047  1.1600 -0.3816
10431TIP3   OH252783   5.378   6.115   3.345  0.3445  0.2721 -0.4370
10431TIP3    H152784   5.431   6.183   3.387 -0.4682 -0.1564  1.3156
10431TIP3    H252785   5.355   6.152   3.260  3.6471  0.3816 -1.3654
10432TIP3   OH252786   2.695   4.621  15.225  0.6214  0.6131  0.0051
10432TIP3    H152787   2.743   4.590  15.302 -0.2877  0.1386  0.3858
10432TIP3    H252788   2.617   4.566  15.222 -0.7166  2.4426  0.3309
10433TIP3   OH252789   1.019   6.322  12.092  0.4250  1.1589  0.3047
10433TIP3    H152790   1.006   6.410  12.126 -0.7068  0.9147  0.5024
10433TIP3    H252791   1.108   6.299  12.120  0.5707  2.0630  0.6136
10434TIP3   OH252792   2.599   4.547   1.606  0.5541 -0.1492 -0.2023
10434TIP3    H152793   2.535   4.564   1.537  0.2398  0.1149  0.1515
10434TIP3    H252794   2.605   4.452   1.611 -1.2717 -0.2126  1.1027
10435TIP3   OH252795   0.789   5.313  16.193  0.0942  0.1026 -0.0181
10435TIP3    H152796   0.803   5.221  16.171 -0.3579  0.3313 -1.3508
10435TIP3    H252797   0.805   5.318  16.287 -1.2858 -1.6109  0.3284
10436TIP3   OH252798   4.682   3.352  11.738  0.8996 -0.0750 -0.4456
10436TIP3    H152799   4.615   3.418  11.722  0.1328 -1.0405 -1.2407
10436TIP3    H252800   4.765   3.400  11.730  0.3423  0.8362 -0.7927
10437TIP3   OH252801   2.887   4.083  16.118  0.2919 -0.1854 -0.5330
10437TIP3    H152802   2.838   4.146  16.065  0.5871  1.3043  0.9515
10437TIP3    H252803   2.829   4.065  16.193  1.6886  1.0318  0.8591
10438TIP3   OH252804   1.226   0.081  11.335 -0.2850  0.5466 -0.2585
10438TIP3    H152805   1.146   0.030  11.326 -0.4452  0.7208  0.1574
10438TIP3    H252806   1.264   0.083  11.247 -0.1084 -0.5593 -0.2146
10439TIP3   OH252807   1.370   3.914  17.095  0.0605  0.3679  0.0700
10439TIP3    H152808   1.303   3.971  17.057 -1.5284  0.0654  2.3466
10439TIP3    H252809   1.446   3.972  17.107 -0.6957  1.3905  0.0006
10440TIP3   OH252810   1.408   0.079   1.132  0.4093  0.4014  0.0165
10440TIP3    H152811   1.334   0.107   1.079 -0.8121  1.1602  2.0836
10440TIP3    H252812   1.431  -0.007   1.099 -1.8733 -0.1466 -0.1560
10441TIP3   OH252813   3.730   6.394  10.449  0.2500 -0.0425 -0.2767
10441TIP3    H152814   3.695   6.311  10.481  0.9583 -0.3533 -0.2893
10441TIP3    H252815   3.658   6.432  10.399 -1.0626  0.7384  2.1489
10442TIP3   OH252816   5.030   2.775  13.267 -0.4032  0.0300  0.2029
10442TIP3    H152817   5.045   2.755  13.175 -0.2188 -0.5049  0.3440
10442TIP3    H252818   5.058   2.866  13.277 -0.2494  0.0291 -0.2303
10443TIP3   OH252819   4.014   5.468   1.554  0.8406 -0.4338 -0.2835
10443TIP3    H152820   3.929   5.482   1.512  1.2689 -0.7589 -1.2797
10443TIP3    H252821   3.994   5.417   1.632  0.0943 -0.3374 -0.4055
10444TIP3   OH252822   4.421   0.451   3.588  0.6680 -0.2608  0.1821
10444TIP3    H152823   4.435   0.528   3.643  2.3920 -0.0456 -0.5173
10444TIP3    H252824   4.355   0.479   3.523 -0.0105  0.0558  1.0007
10445TIP3   OH252825   5.882   1.477  16.825  0.1589  0.0027 -0.2973
10445TIP3    H152826   5.828   1.435  16.757  1.0257 -0.7714 -0.5269
10445TIP3    H252827   5.894   1.408  16.890  0.2288  0.4163  0.1226
10446TIP3   OH252828   4.457   4.338   0.130  0.4589  0.1338 -0.3037
10446TIP3    H152829   4.514   4.297   0.065  0.7654 -2.9515  1.7845
10446TIP3    H252830   4.499   4.319   0.214 -2.2262  0.0885  1.0995
10447TIP3   OH252831   5.793   0.315   4.333 -0.6611  0.0691  0.0935
10447TIP3    H152832   5.731   0.250   4.367 -0.8757  0.9558  1.4592
10447TIP3    H252833   5.835   0.350   4.411  1.6029 -0.5359 -0.8392
10448TIP3   OH252834   4.052   4.280   1.544 -0.5823 -0.0839 -0.3203
10448TIP3    H152835   4.057   4.208   1.607 -1.1643  0.3934  0.2731
10448TIP3    H252836   4.138   4.322   1.550 -1.3550  1.2722  1.7353
10449TIP3   OH252837   4.713   6.476   4.639 -0.5749  0.1691 -0.2613
10449TIP3    H152838   4.700   6.392   4.683  3.1288 -0.2246  0.2878
10449TIP3    H252839   4.707   6.455   4.546  0.5257 -0.7681 -0.1358
10450TIP3   OH252840   0.020   0.403  14.194 -0.4981 -0.4922  0.2180
10450TIP3    H152841   0.009   0.387  14.100 -0.8731  0.1602  0.1456
10450TIP3    H252842   0.012   0.316  14.234  2.0089 -1.0962 -0.5479
10451TIP3   OH252843   2.888   2.866  16.767  0.0236 -0.1920 -0.3795
10451TIP3    H152844   2.876   2.778  16.732  0.3408 -0.4776  0.2187
10451TIP3    H252845   2.950   2.855  16.839 -0.5047  0.4095  0.1785
10452TIP3   OH252846   3.275   5.360  10.856 -0.2236 -0.3236 -0.1240
10452TIP3    H152847   3.185   5.353  10.887 -0.4388  0.0147 -0.6586
10452TIP3    H252848   3.304   5.269  10.844 -0.0036 -0.4698  1.4195
10453TIP3   OH252849   5.962   5.087  12.915  0.1568  0.1020  0.0245
10453TIP3    H152850   5.970   5.136  12.833 -0.8335  2.6215  1.3846
10453TIP3    H252851   5.872   5.104  12.944  0.7170 -0.1764  1.9759
10454TIP3   OH252852   3.848   4.240  14.468 -1.3840 -0.2480  0.1936
10454TIP3    H152853   3.936   4.223  14.502 -1.0783  1.7902  0.4627
10454TIP3    H252854   3.791   4.233  14.545 -1.1589  0.7666  0.4496
10455TIP3   OH252855   5.295   6.286   5.455 -0.3841 -1.1056  0.6870
10455TIP3    H152856   5.338   6.216   5.405 -1.4093 -1.4190  0.2267
10455TIP3    H252857   5.210   6.297   5.412 -0.5214 -0.0841  1.2192
10456TIP3   OH252858   4.534   2.163  12.443  0.7059  0.6847 -0.1317
10456TIP3    H152859   4.598   2.193  12.378  0.5159 -0.1935 -0.7440
10456TIP3    H252860   4.560   2.072  12.460  1.2167  1.1497  1.5999
10457TIP3   OH252861   5.469   4.026  12.485  0.3759  0.4488 -0.3996
10457TIP3    H152862   5.553   4.004  12.525 -0.7102 -0.6716  1.3032
10457TIP3    H252863   5.418   4.068  12.555  0.2421  3.0214 -1.9771
10458TIP3   OH252864   4.608   2.759   3.802 -0.1549 -0.0655  0.1585
10458TIP3    H152865   4.597   2.702   3.726  0.7005  1.0990 -0.8458
10458TIP3    H252866   4.562   2.713   3.872  1.2191 -2.4172 -0.4098
10459TIP3   OH252867   1.662   0.929   3.309  0.1354  0.1374  0.2735
10459TIP3    H152868   1.727   0.991   3.342 -0.0542 -0.5960  2.0778
10459TIP3    H252869   1.647   0.956   3.218 -0.4665  3.1510  1.2091
10460TIP3   OH252870   4.651   3.967   4.794 -0.4302  0.0343  0.7225
10460TIP3    H152871   4.649   3.876   4.824 -1.9174  0.9470  3.5706
10460TIP3    H252872   4.693   4.015   4.866 -1.6015  1.9290  0.1787
10461TIP3   OH252873   2.559   4.241   0.477  0.6528  0.5774  0.1116
10461TIP3    H152874   2.614   4.319   0.480  0.7530  0.4680  1.2812
10461TIP3    H252875   2.609   4.178   0.425  0.7931  1.1169 -0.4126
10462TIP3   OH252876   5.809   0.781  15.682 -0.3432  0.2717  0.3207
10462TIP3    H152877   5.740   0.722  15.713  1.2314 -0.7327  2.0337
10462TIP3    H252878   5.771   0.825  15.606 -3.3270  0.6917  1.9859
10463TIP3   OH252879   1.883   6.684   0.152 -0.2266 -0.0897  0.1110
10463TIP3    H152880   1.969   6.727   0.159 -0.3818  0.0459  1.4792
10463TIP3    H252881   1.901   6.600   0.111  0.4117  0.3788 -0.5802
10464TIP3   OH252882   5.054   5.291  16.978 -0.2483  0.2359 -0.2325
10464TIP3    H152883   4.995   5.299  17.053 -0.5734 -1.5069 -0.2808
10464TIP3    H252884   5.073   5.382  16.953  0.7381  0.8837  2.6209
10465TIP3   OH252885   4.741   0.333  15.895  0.3847 -0.3171 -0.1678
10465TIP3    H152886   4.775   0.254  15.936 -0.3920 -0.2313  0.6663
10465TIP3    H252887   4.661   0.305  15.851  3.0438 -1.1696 -4.7669
10466TIP3   OH252888   0.917   3.911   1.429  0.4264 -0.5191 -0.0794
10466TIP3    H152889   0.967   3.875   1.355  0.2975 -0.3030 -0.2721
10466TIP3    H252890   0.970   3.985   1.459  0.8017 -1.0036  0.4576
10467TIP3   OH252891   4.802   1.603   4.204 -0.0944 -0.0288 -0.4341
10467TIP3    H152892   4.737   1.666   4.174 -0.5764  0.6938  2.0720
10467TIP3    H252893   4.768   1.518   4.175 -0.8350  0.5875 -1.3841
10468TIP3   OH252894   1.652   6.497  16.104 -0.2441  0.3660 -0.4248
10468TIP3    H152895   1.717   6.430  16.123 -1.1265 -0.2454  0.4773
10468TIP3    H252896   1.703   6.575  16.081  0.7937 -0.0273  0.5489
10469TIP3   OH252897   6.094   1.270  14.094  0.3889  0.0271  0.2629
10469TIP3    H152898   6.127   1.200  14.038 -1.3434  0.3128 -1.1587
10469TIP3    H252899   6.030   1.227  14.151 -1.8162  0.6889 -1.6559
10470TIP3   OH252900   1.091   6.075  11.903 -0.5386 -0.4068  0.1557
10470TIP3    H152901   1.014   6.128  11.883 -0.8812 -0.7600  0.5320
10470TIP3    H252902   1.160   6.139  11.919  0.1270 -0.1013 -3.4994
10471TIP3   OH252903   6.592   1.765   2.941 -0.0135 -0.3058  0.1299
10471TIP3    H152904   6.645   1.784   2.863 -0.5607  0.9832  0.0649
10471TIP3    H252905   6.526   1.703   2.910  2.1503 -2.9429  0.4884
10472TIP3   OH252906   5.821   0.835  13.369 -0.3579  0.1136 -0.5573
10472TIP3    H152907   5.730   0.855  13.392 -0.5791 -0.9734 -0.4764
10472TIP3    H252908   5.870   0.845  13.451 -0.4464  0.4457 -0.5449
10473TIP3   OH252909   5.763   2.279  12.856  0.4387  0.0864 -0.0656
10473TIP3    H152910   5.736   2.190  12.876 -0.1112 -0.0086 -1.1888
10473TIP3    H252911   5.847   2.290  12.900 -0.0879 -0.5599  1.1179
10474TIP3   OH252912   1.792   1.164  12.656  0.5046  0.1462 -0.2378
10474TIP3    H152913   1.803   1.143  12.563  2.6983 -3.5481  0.7647
10474TIP3    H252914   1.775   1.080  12.698  2.0123  1.3753  3.0239
10475TIP3   OH252915   5.118   0.406  13.289  0.0072  0.1540 -0.2000
10475TIP3    H152916   5.127   0.351  13.211 -3.0456  1.7771 -1.8003
10475TIP3    H252917   5.183   0.476  13.277  0.8278 -0.6227 -0.3509
10476TIP3   OH252918   2.219   3.157   1.561  0.2840  0.4020 -0.3349
10476TIP3    H152919   2.132   3.175   1.525  0.3487 -0.1232 -0.7665
10476TIP3    H252920   2.242   3.236   1.609 -0.6461  0.3568  0.1921
10477TIP3   OH252921   4.826   0.336   1.151  0.0909 -0.7459  0.6805
10477TIP3    H152922   4.807   0.376   1.066  1.6394 -1.9127 -0.2539
10477TIP3    H252923   4.911   0.372   1.175  0.4053 -1.6487  0.9443
10478TIP3   OH252924   4.243   6.500  15.395  0.3360  0.0521  0.3271
10478TIP3    H152925   4.260   6.406  15.385 -1.7471 -0.3902  0.6377
10478TIP3    H252926   4.219   6.530  15.308  1.0299  0.3205  0.2219
10479TIP3   OH252927   3.306   3.731  15.919  0.0169  0.4005 -0.2455
10479TIP3    H152928   3.263   3.814  15.936  0.9903  0.9789 -0.6139
10479TIP3    H252929   3.336   3.701  16.005  0.6510  0.9695 -0.2690
10480TIP3   OH252930   4.985   3.380   4.294 -0.3058 -0.2345 -0.0769
10480TIP3    H152931   4.980   3.437   4.371 -0.6652  0.7587 -0.8102
10480TIP3    H252932   4.937   3.301   4.319 -1.1607  0.4288  0.4240
10481TIP3   OH252933   0.225   5.464   5.659 -0.3073 -0.0629  0.4338
10481TIP3    H152934   0.218   5.383   5.709  0.0474 -0.1866  0.2855
10481TIP3    H252935   0.162   5.454   5.588 -2.0135  0.8039  1.7914
10482TIP3   OH252936   2.277   1.339   4.248 -0.5198  0.1657  0.1231
10482TIP3    H152937   2.250   1.249   4.229  2.7822 -0.7436 -0.5551
10482TIP3    H252938   2.231   1.361   4.329 -2.6549 -1.5074 -0.5871
10483TIP3   OH252939   0.632   5.060   2.202 -0.0466 -0.1995  0.0914
10483TIP3    H152940   0.701   5.007   2.164  0.9131  2.4812 -2.0238
10483TIP3    H252941   0.555   5.041   2.148 -0.6789 -2.0968  1.5724
10484TIP3   OH252942   3.159   1.214  15.539 -0.1666 -0.0022 -0.2808
10484TIP3    H152943   3.135   1.131  15.579  1.6118 -0.3696  0.0380
10484TIP3    H252944   3.091   1.275  15.569 -3.6527 -2.1082 -3.5516
10485TIP3   OH252945   6.537   4.607   2.116  1.0035  0.2455  0.3700
10485TIP3    H152946   6.595   4.680   2.093 -0.7981  1.6152  0.0872
10485TIP3    H252947   6.450   4.645   2.117  0.1944 -1.5849  1.7677
10486TIP3   OH252948   1.326   5.612   4.369  0.3142  0.5030 -0.2743
10486TIP3    H152949   1.269   5.664   4.426 -0.6839 -1.9435  1.0768
10486TIP3    H252950   1.409   5.607   4.417 -0.0871 -0.4130  0.3410
10487TIP3   OH252951   0.826   5.923   1.044 -0.3982  0.5801  0.1137
10487TIP3    H152952   0.784   5.854   0.993 -2.3453  2.5246 -0.9627
10487TIP3    H252953   0.893   5.959   0.985  0.0292  0.2020  0.3645
10488TIP3   OH252954   4.418   2.044   3.336  0.6779  0.2647  0.0088
10488TIP3    H152955   4.467   2.049   3.254  2.1819  0.2873  0.8804
10488TIP3    H252956   4.453   2.116   3.389  1.1009 -0.9195  1.3794
10489TIP3   OH252957   3.717   4.800  17.267  0.3142 -0.1120 -0.0374
10489TIP3    H152958   3.740   4.893  17.261  2.8029 -0.7038 -0.6111
10489TIP3    H252959   3.632   4.792  17.224 -0.4040  2.0437  0.9335
10490TIP3   OH252960   4.165   5.789  16.091 -0.5034 -0.3858  0.5466
10490TIP3    H152961   4.199   5.874  16.120 -0.8208 -0.1814  0.3157
10490TIP3    H252962   4.161   5.796  15.996  0.7761 -1.1484  0.4163
10491TIP3   OH252963   0.024   4.144   4.167  0.5385 -0.4000  0.1472
10491TIP3    H152964   0.099   4.169   4.220  0.0452 -0.5276  0.9011
10491TIP3    H252965  -0.052   4.166   4.220  0.0370 -0.2634 -0.6201
10492TIP3   OH252966   6.223   5.924  16.031  0.3180 -0.3511  0.7445
10492TIP3    H152967   6.208   6.016  16.007 -0.2599 -0.2539  1.4640
10492TIP3    H252968   6.259   5.885  15.951 -0.6523  0.2005  0.0162
10493TIP3   OH252969   0.888   5.698   3.763 -0.0775  0.5770  0.0903
10493TIP3    H152970   0.908   5.788   3.792 -2.5310  0.8663  0.9888
10493TIP3    H252971   0.793   5.695   3.758 -0.1435 -2.5117  1.8480
10494TIP3   OH252972   0.339   4.294  14.341 -0.5342 -0.5526 -0.6972
10494TIP3    H152973   0.264   4.242  14.311 -0.5139 -1.9736  1.6037
10494TIP3    H252974   0.326   4.304  14.435  1.6069  0.1223 -0.4426
10495TIP3   OH252975   4.738   5.533   1.463  0.4185 -0.0711 -0.0179
10495TIP3    H152976   4.818   5.577   1.435 -0.1822  1.5949  0.7924
10495TIP3    H252977   4.759   5.498   1.550  0.2186  0.5166  0.2691
10496TIP3   OH252978   5.720   0.066  12.614 -0.1819  0.5632 -0.2638
10496TIP3    H152979   5.781  -0.006  12.599  0.0730  0.0652  2.7975
10496TIP3    H252980   5.772   0.132  12.661 -1.2601  1.3394 -0.1399
10497TIP3   OH252981   2.375   5.571   5.529  0.1534  0.1985 -0.0521
10497TIP3    H152982   2.298   5.549   5.581 -1.3989  2.2186 -1.4321
10497TIP3    H252983   2.437   5.609   5.591 -0.4679 -0.2021  0.8246
10498TIP3   OH252984   6.508   6.148  11.782  0.5764 -0.2292 -0.5425
10498TIP3    H152985   6.594   6.125  11.816  0.3050 -3.3956 -1.8079
10498TIP3    H252986   6.447   6.107  11.843 -0.0565  1.7962  0.2113
10499TIP3   OH252987   1.127   5.575   6.327 -0.3213 -0.3672  0.0625
10499TIP3    H152988   1.154   5.555   6.417  1.2242 -1.7372 -0.6812
10499TIP3    H252989   1.032   5.571   6.329 -0.3665  0.7730  1.9030
10500TIP3   OH252990   4.308   6.061   2.384  0.8957 -0.0491 -0.3631
10500TIP3    H152991   4.327   6.062   2.290 -0.8592  0.9496 -0.7239
10500TIP3    H252992   4.233   6.002   2.392 -2.3250  3.8382 -0.3172
10501TIP3   OH252993   2.539   6.108   3.438 -0.4502 -0.0342  0.3154
10501TIP3    H152994   2.558   6.194   3.401  0.3282  0.0047  0.7832
10501TIP3    H252995   2.625   6.066   3.447 -0.7941 -0.7418  0.3753
10502TIP3   OH252996   1.289   4.077   2.392 -0.5984  0.1288  0.9302
10502TIP3    H152997   1.282   4.006   2.327 -0.6303 -0.2199  1.3162
10502TIP3    H252998   1.199   4.093   2.420 -0.5289 -0.0587  1.2570
10503TIP3   OH252999   6.232   0.900  15.898  0.0137  0.3567 -0.0454
10503TIP3    H153000   6.143   0.892  15.933  1.0795 -0.0350  2.6116
10503TIP3    H253001   6.269   0.812  15.907  0.3347  0.2499 -2.1547
10504TIP3   OH253002   1.523   5.171  14.904 -0.4214  0.3077  0.4190
10504TIP3    H153003   1.438   5.130  14.921 -0.3241  0.0022  0.1695
10504TIP3    H253004   1.520   5.253  14.953 -0.7748  0.1942  0.5891
10505TIP3   OH253005   1.998   0.670   6.435  0.4724  0.1665  0.1751
10505TIP3    H153006   2.042   0.636   6.513 -0.5663  0.4952  0.9281
10505TIP3    H253007   1.914   0.703   6.468  0.7101  1.8173 -0.8160
10506TIP3   OH253008   4.854   5.256   4.614 -0.1991 -0.4906  0.1761
10506TIP3    H153009   4.880   5.295   4.697 -2.2078 -0.4379  0.8065
10506TIP3    H253010   4.874   5.323   4.549 -0.9528  0.4969  0.9276
10507TIP3   OH253011   4.347   5.852   3.904  0.8612  0.1662 -0.1798
10507TIP3    H153012   4.329   5.920   3.839  0.4046  1.2131  1.0120
10507TIP3    H253013   4.435   5.872   3.936  0.3857  0.7402  0.8040
10508TIP3   OH253014   1.892   1.057   0.207  0.1147  0.3631  0.1065
10508TIP3    H153015   1.982   1.054   0.174 -0.2711 -2.9758 -0.7482
10508TIP3    H253016   1.847   1.118   0.148  1.2762  0.3149 -0.8417
10509TIP3   OH253017   2.171   0.608   4.017 -0.9532 -0.1009  0.0308
10509TIP3    H153018   2.092   0.613   3.964 -0.6168  2.1687 -0.2867
10509TIP3    H253019   2.239   0.651   3.964 -0.2043  0.6380  1.5519
10510TIP3   OH253020   2.579   4.193  14.409  0.0066  0.0418  0.2709
10510TIP3    H153021   2.632   4.113  14.411  1.3820  0.9353  0.3164
10510TIP3    H253022   2.518   4.180  14.336 -0.1745 -1.2972  0.6585
10511TIP3   OH253023   2.817   3.606  15.140 -0.2289 -0.4644  0.2447
10511TIP3    H153024   2.834   3.695  15.171 -1.3781 -1.2834  3.4806
10511TIP3    H253025   2.899   3.559  15.156  0.0582 -0.2328 -0.5349
10512TIP3   OH253026   1.930   3.810  13.879 -0.0040  0.3043  0.4325
10512TIP3    H153027   1.962   3.773  13.961 -0.4568 -0.6808  0.1679
10512TIP3    H253028   1.906   3.734  13.826  1.3807  0.8706 -1.0539
10513TIP3   OH253029   1.492   0.008   3.327 -0.9607  0.0387 -0.1132
10513TIP3    H153030   1.462   0.005   3.236 -1.5407  0.1922  0.0694
10513TIP3    H253031   1.427  -0.044   3.375  0.0306 -1.0897  0.0307
10514TIP3   OH253032   4.015   6.199  16.170  0.1708 -0.2721  0.4313
10514TIP3    H153033   4.070   6.130  16.133 -0.9186 -1.0052  0.1617
10514TIP3    H253034   3.966   6.155  16.240 -0.1913  0.3380  0.5628
10515TIP3   OH253035   3.893   6.274   4.936 -0.4620  0.0135  0.3895
10515TIP3    H153036   3.920   6.277   4.845  0.1586  0.7498  0.5945
10515TIP3    H253037   3.812   6.222   4.936 -1.9722  2.2914 -0.9454
10516TIP3   OH253038   4.547   1.983   1.465 -0.3353  0.4109  0.0707
10516TIP3    H153039   4.629   1.986   1.514 -1.0238  2.3664  1.1726
10516TIP3    H253040   4.494   1.917   1.510  0.1516  0.0801  0.1515
10517TIP3   OH253041   5.004   2.733  14.407 -0.4183 -0.1520 -0.1566
10517TIP3    H153042   5.053   2.814  14.420  0.8777 -1.2415  1.9364
10517TIP3    H253043   4.923   2.745  14.456 -1.3463  0.8010 -1.8601
10518TIP3   OH253044   6.716   0.047   3.214 -0.5074 -0.4161  0.6149
10518TIP3    H153045   6.669  -0.036   3.202 -0.5548 -0.2532 -0.3566
10518TIP3    H253046   6.668   0.110   3.161  0.1015  0.0214  0.5810
10519TIP3   OH253047   2.640   6.218   2.678  0.7920  0.2085 -0.2124
10519TIP3    H153048   2.563   6.163   2.665  0.2129  0.7172  0.9452
10519TIP3    H253049   2.651   6.264   2.595 -0.2014  0.1922 -0.3583
10520TIP3   OH253050   2.493   3.199  13.784  0.4653  0.0379 -0.3080
10520TIP3    H153051   2.572   3.240  13.818  0.3923 -1.3102  1.6052
10520TIP3    H253052   2.501   3.107  13.810 -0.9959 -0.4327 -1.4432
10521TIP3   OH253053   4.078   4.529   3.660 -0.1673  0.6574  0.0716
10521TIP3    H153054   4.125   4.512   3.578 -0.7142  0.8620 -0.2881
10521TIP3    H253055   3.987   4.508   3.640 -0.3588  1.0430  0.5321
10522TIP3   OH253056   1.960   3.084   1.501  0.0668  0.0369 -0.2041
10522TIP3    H153057   1.928   3.011   1.555  0.2037  0.9835  1.1920
10522TIP3    H253058   1.984   3.044   1.418 -2.7512 -1.0427 -0.5728
10523TIP3   OH253059   0.166   6.802  13.163  0.3892 -0.8098 -0.1799
10523TIP3    H153060   0.254   6.835  13.181 -1.5354  3.3795  1.9927
10523TIP3    H253061   0.151   6.823  13.071  0.9098  0.2574 -0.0247
10524TIP3   OH253062   5.536   0.194  13.173 -0.3177  0.1727 -1.1246
10524TIP3    H153063   5.466   0.159  13.118 -1.3448  1.4708 -0.6628
10524TIP3    H253064   5.608   0.209  13.112 -0.7752 -0.2495 -1.7750
10525TIP3   OH253065   5.753   5.666   3.758  0.2290 -0.4363 -0.2463
10525TIP3    H153066   5.812   5.700   3.690 -0.2941  0.6154 -0.1747
10525TIP3    H253067   5.771   5.720   3.835 -1.9835  0.9674 -0.6856
10526TIP3   OH253068   3.176   6.480  12.057 -0.0719 -0.0178 -0.3055
10526TIP3    H153069   3.102   6.478  12.118  0.6243 -2.4337  0.5306
10526TIP3    H253070   3.246   6.524  12.105 -0.2234  0.1125 -0.2031
10527TIP3   OH253071   3.543   6.773  13.421  0.5564  0.7953  0.2755
10527TIP3    H153072   3.610   6.811  13.365  0.1479  1.4514  0.2325
10527TIP3    H253073   3.543   6.680  13.398 -0.7497  1.3313 -2.0344
10528TIP3   OH253074   6.082   3.694  17.103  0.1397  0.5232  0.1390
10528TIP3    H153075   6.049   3.705  17.192  0.5496  0.2067  0.3268
10528TIP3    H253076   6.042   3.612  17.072 -0.5319  0.9788 -0.2058
10529TIP3   OH253077   6.754   3.528  13.705 -0.2385 -0.2895  0.3113
10529TIP3    H153078   6.687   3.567  13.649 -0.9836 -2.3649 -0.2834
10529TIP3    H253079   6.711   3.514  13.789 -0.8403 -2.4109 -0.3240
10530TIP3   OH253080   5.266   2.309  15.716  0.4022  0.7209  0.2711
10530TIP3    H153081   5.259   2.321  15.810 -1.5680 -0.1840  0.2518
10530TIP3    H253082   5.308   2.389  15.685  1.4117  0.8546  1.9512
10531TIP3   OH253083   5.296   6.381   5.124 -0.3382 -0.2488 -0.0060
10531TIP3    H153084   5.331   6.451   5.069 -0.0679  0.1051  0.6050
10531TIP3    H253085   5.219   6.420   5.166 -0.1323 -0.2889  0.4063
10532TIP3   OH253086   4.421   3.491   2.813 -0.0474  0.3047  0.3087
10532TIP3    H153087   4.449   3.564   2.757 -0.9482  0.3139 -0.1393
10532TIP3    H253088   4.351   3.448   2.763 -0.0391 -0.4129  0.9043
10533TIP3   OH253089   2.507   5.572   4.791 -0.1505  0.0737  0.3424
10533TIP3    H153090   2.553   5.488   4.785 -2.2342 -1.0281 -0.8058
10533TIP3    H253091   2.525   5.603   4.880  0.1931 -1.8845  0.9801
10534TIP3   OH253092   6.704   4.234  11.483 -0.2042 -0.6200 -0.4782
10534TIP3    H153093   6.717   4.233  11.388 -2.1230 -1.6262 -0.7432
10534TIP3    H253094   6.620   4.190  11.497  0.4460 -1.2415  1.7523
10535TIP3   OH253095   6.378   0.966  15.459 -0.3816  0.0744 -0.1170
10535TIP3    H153096   6.412   0.886  15.500  1.8152  0.1279 -1.7353
10535TIP3    H253097   6.349   1.020  15.532  0.2249 -1.2715  1.1443
10536TIP3   OH253098   5.681   1.783  14.875  0.8632  0.2846 -0.7346
10536TIP3    H153099   5.680   1.827  14.790 -0.7821  2.5441  0.3914
10536TIP3    H253100   5.598   1.735  14.878  0.0012  1.8105  0.3628
10537TIP3   OH253101   2.979   1.614   5.230  1.1287 -0.0538 -0.4162
10537TIP3    H153102   3.008   1.573   5.149  0.6308 -2.2290  0.4591
10537TIP3    H253103   2.944   1.699   5.203  0.5921 -0.9093 -2.5220
10538TIP3   OH253104   4.871   1.960   1.451 -0.0129  0.3477  0.0876
10538TIP3    H153105   4.915   1.965   1.367 -1.1763  0.1750 -0.5516
10538TIP3    H253106   4.884   2.046   1.491  1.6687 -0.0027  0.3291
10539TIP3   OH253107   3.519   2.235  17.204  0.5113  0.1988 -0.0672
10539TIP3    H153108   3.432   2.222  17.167  0.0706  0.2261  0.9428
10539TIP3    H253109   3.545   2.323  17.174  0.6397 -0.2320 -1.2445
10540TIP3   OH253110   1.728   0.426   5.867  0.2462  0.4748 -0.3907
10540TIP3    H153111   1.790   0.367   5.823 -0.2182 -1.0623  0.9765
10540TIP3    H253112   1.750   0.418   5.960 -0.2753  1.9565 -0.1353
10541TIP3   OH253113   4.703   1.548  12.470  0.1968  0.0960 -0.0520
10541TIP3    H153114   4.637   1.514  12.410 -1.2022 -0.2320  1.6096
10541TIP3    H253115   4.747   1.617  12.421  1.0461 -2.0607 -2.4302
10542TIP3   OH253116   6.483   3.356   0.336  0.0308  0.0455 -0.5672
10542TIP3    H153117   6.395   3.323   0.354  0.0608 -1.2777 -2.7149
10542TIP3    H253118   6.477   3.393   0.248  1.2929  1.2234 -0.1836
10543TIP3   OH253119   0.869   5.182  13.757  0.0326  0.1995 -0.5544
10543TIP3    H153120   0.890   5.147  13.670  1.0152  1.4567 -0.8440
10543TIP3    H253121   0.953   5.187  13.802 -0.5129 -0.7185  0.5852
10544TIP3   OH253122   5.479   2.962  11.029  0.2364  0.1513  0.1195
10544TIP3    H153123   5.510   3.016  10.956 -0.3257  0.0252 -0.2142
10544TIP3    H253124   5.385   2.979  11.034  0.2109 -0.1115  0.5914
10545TIP3   OH253125   2.211   5.017  15.687  0.0923  0.1074 -0.0387
10545TIP3    H153126   2.168   5.030  15.603  1.0299 -2.0413 -0.8856
10545TIP3    H253127   2.163   4.945  15.728  2.1740 -1.6290 -0.5560
10546TIP3   OH253128   1.634   1.360   2.335 -0.1200 -0.1744  0.0514
10546TIP3    H153129   1.636   1.297   2.264  2.0876 -1.4835  1.2163
10546TIP3    H253130   1.684   1.319   2.405 -1.8383  1.2740  2.2148
10547TIP3   OH253131   2.958   2.370  16.255  0.0764 -0.4693  0.2294
10547TIP3    H153132   3.000   2.455  16.262 -0.1665 -0.2914 -0.4461
10547TIP3    H253133   3.017   2.319  16.199 -1.4804  0.3514 -2.2187
10548TIP3   OH253134   0.588   6.688   1.725  0.1739 -0.5585  0.4554
10548TIP3    H153135   0.581   6.621   1.657 -0.5816 -1.9174  1.8492
10548TIP3    H253136   0.540   6.763   1.689 -2.2103 -2.0555  0.4189
10549TIP3   OH253137   5.583   1.810  16.022 -0.0644  0.3157  0.2137
10549TIP3    H153138   5.588   1.824  16.117 -0.4890 -0.8947  0.4199
10549TIP3    H253139   5.508   1.753  16.010  0.9100 -0.7943 -0.7083
10550TIP3   OH253140   3.322   4.121  15.153  0.2639  0.4337 -0.6934
10550TIP3    H153141   3.247   4.099  15.097 -0.9991  1.6986  0.4470
10550TIP3    H253142   3.307   4.212  15.178  1.5810  0.3324  0.5193
10551TIP3   OH253143   6.424   1.604   4.953  0.0684  0.0818  0.9707
10551TIP3    H153144   6.484   1.556   5.010  0.5493  1.0502  1.2962
10551TIP3    H253145   6.458   1.590   4.864 -0.8798 -1.7122  0.8739
10552TIP3   OH253146   0.402   3.050  11.779  0.8611  0.2786  0.4592
10552TIP3    H153147   0.468   2.992  11.741  1.4954  1.1996  0.1569
10552TIP3    H253148   0.329   3.046  11.717  1.4911  0.9767 -0.3285
10553TIP3   OH253149   3.068   5.676  13.345 -0.2600  0.4357 -0.0664
10553TIP3    H153150   3.098   5.596  13.388  0.3410 -0.5036 -2.1665
10553TIP3    H253151   3.014   5.646  13.272 -1.7175  2.0069  0.3148
10554TIP3   OH253152   4.564   6.327   0.420 -0.1763 -0.1927  0.3482
10554TIP3    H153153   4.584   6.368   0.336  0.7787 -0.2590  0.5441
10554TIP3    H253154   4.604   6.241   0.415 -0.2544 -0.2568  0.8184
10555TIP3   OH253155   2.433   5.658  15.551 -0.6640  0.4502  0.5767
10555TIP3    H153156   2.404   5.607  15.627  2.8619 -0.8117  1.1568
10555TIP3    H253157   2.421   5.599  15.477  0.6752 -0.1806  0.8555
10556TIP3   OH253158   4.019   0.054  11.086  0.4967  0.1574 -0.1583
10556TIP3    H153159   4.096   0.047  11.030  0.5091  0.6136 -0.2043
10556TIP3    H253160   4.035  -0.007  11.158  1.5354  1.2529  0.5612
10557TIP3   OH253161   2.606   6.318  12.455 -0.3643  0.9503  0.0692
10557TIP3    H153162   2.688   6.366  12.467 -0.5470  1.4369 -0.5707
10557TIP3    H253163   2.559   6.330  12.538  1.5483 -2.0010  1.6406
10558TIP3   OH253164   0.116   1.538  13.773 -0.0876 -0.0905  0.1868
10558TIP3    H153165   0.171   1.608  13.739 -1.1548  0.7891  0.2320
10558TIP3    H253166   0.029   1.577  13.781 -0.9414 -1.7260 -0.7891
10559TIP3   OH253167   0.076   1.681  14.966  0.4253 -0.0380  0.8042
10559TIP3    H153168   0.121   1.597  14.954 -0.7749 -0.4231 -1.4182
10559TIP3    H253169  -0.011   1.666  14.928  0.0214  2.0400  0.8927
10560TIP3   OH253170   0.888   6.507   2.901 -0.0220 -0.8182 -0.0338
10560TIP3    H153171   0.961   6.568   2.912 -0.0557 -0.4964 -1.4945
10560TIP3    H253172   0.828   6.552   2.842 -0.2763 -2.0788 -0.7433
10561TIP3   OH253173   2.071   4.827  17.018 -0.0803  0.1706 -0.4892
10561TIP3    H153174   2.084   4.744  17.063  1.7521  0.7281  0.0371
10561TIP3    H253175   2.094   4.810  16.927  3.0283  0.7678  0.1424
10562TIP3   OH253176   1.667   5.572   2.732 -0.5820 -0.1743  0.0094
10562TIP3    H153177   1.661   5.615   2.646 -0.9980  1.1440  0.6788
10562TIP3    H253178   1.577   5.572   2.765 -0.3843 -0.4645  0.5523
10563TIP3   OH253179   5.513   2.284   0.895 -0.2534 -0.2174  0.2985
10563TIP3    H153180   5.422   2.271   0.919 -0.1633 -1.2074  0.1326
10563TIP3    H253181   5.559   2.296   0.978 -0.3017 -1.2526  0.4753
10564TIP3   OH253182   5.734   3.089  15.811  0.3005  0.2184 -0.0396
10564TIP3    H153183   5.688   3.097  15.727  1.1122  2.9524 -0.2800
10564TIP3    H253184   5.691   3.153  15.868  0.0026 -1.3545  1.5433
10565TIP3   OH253185   0.427   3.476  14.274 -0.7460  0.0166  0.0507
10565TIP3    H153186   0.422   3.422  14.196 -1.1978  0.4814 -0.2432
10565TIP3    H253187   0.521   3.491  14.286 -0.8316  3.3848 -2.7994
10566TIP3   OH253188   1.217   5.687   0.871  0.2407  0.8044  0.4390
10566TIP3    H153189   1.217   5.746   0.795  1.7218 -0.8477 -0.8615
10566TIP3    H253190   1.124   5.674   0.891 -0.2024  0.3045 -1.8462
10567TIP3   OH253191   6.571   6.050   1.075 -0.1922 -0.0489  0.2617
10567TIP3    H153192   6.602   6.015   0.991  1.4737  0.6784  0.5529
10567TIP3    H253193   6.484   6.086   1.055  1.2538  2.5066 -1.7770
10568TIP3   OH253194   2.656   1.627   4.221  0.2438 -0.6154 -0.4137
10568TIP3    H153195   2.602   1.642   4.144 -0.0747  0.2623 -0.0244
10568TIP3    H253196   2.669   1.714   4.259 -1.1908 -1.2041  1.5701
10569TIP3   OH253197   1.168   2.670   1.718 -0.3544 -0.3227  0.0630
10569TIP3    H153198   1.258   2.640   1.706 -0.5105 -0.9009  0.3450
10569TIP3    H253199   1.167   2.757   1.678  0.7370  0.3520  1.4093
10570TIP3   OH253200   3.396   2.831   1.586 -0.2130  0.2904  0.5068
10570TIP3    H153201   3.380   2.854   1.495 -0.1798  0.0258  0.4335
10570TIP3    H253202   3.309   2.815   1.622 -0.1616 -0.6259  0.2473
10571TIP3   OH253203   5.841   4.499  13.755  0.1955  0.0553 -0.0234
10571TIP3    H153204   5.872   4.409  13.744 -3.0144 -0.7081 -3.4837
10571TIP3    H253205   5.791   4.497  13.837  0.5036 -1.1822  0.1488
10572TIP3   OH253206   3.107   0.960   3.469 -0.1969 -0.1931 -0.2110
10572TIP3    H153207   3.187   0.989   3.512 -0.1820 -0.0455 -0.3369
10572TIP3    H253208   3.131   0.877   3.428 -0.2135 -0.3362  0.0703
10573TIP3   OH253209   2.382   6.770   4.051  0.1231 -0.1176 -0.2518
10573TIP3    H153210   2.472   6.750   4.077 -0.1924 -1.3189 -0.0486
10573TIP3    H253211   2.375   6.865   4.062  0.6223 -0.3069  2.1157
10574TIP3   OH253212   4.489   2.403  13.475  0.7253  1.0336 -0.1004
10574TIP3    H153213   4.527   2.476  13.524  0.9262  0.1029  1.1703
10574TIP3    H253214   4.482   2.333  13.540 -1.6418  0.6682 -0.7119
10575TIP3   OH253215   2.567   0.639   5.236  0.0070 -0.2612 -0.0937
10575TIP3    H153216   2.515   0.579   5.289 -1.8479 -0.4884 -2.0993
10575TIP3    H253217   2.598   0.586   5.162  1.5967  0.3235  0.1325
10576TIP3   OH253218   4.247   3.875   4.123  0.4011 -0.2226 -0.0856
10576TIP3    H153219   4.293   3.791   4.131  1.1468  0.1334 -0.5047
10576TIP3    H253220   4.317   3.941   4.132 -0.0715  0.3323 -0.4522
10577TIP3   OH253221   5.049   6.401   1.772 -0.2790 -0.3518  0.1400
10577TIP3    H153222   5.118   6.353   1.727 -0.7060 -1.6591  0.8616
10577TIP3    H253223   5.051   6.488   1.732  1.6925 -0.4028  0.0576
10578TIP3   OH253224   1.549   5.615   6.550 -0.4610 -0.0663 -0.3166
10578TIP3    H153225   1.500   5.562   6.612 -2.2094 -0.2226 -1.8072
10578TIP3    H253226   1.483   5.649   6.489  1.0621  1.0384 -1.3969
10579TIP3   OH253227   6.181   2.167   2.947 -0.5344 -0.3037  0.0094
10579TIP3    H153228   6.224   2.245   2.983  1.3108 -1.4974  0.5307
10579TIP3    H253229   6.117   2.142   3.014  0.4122 -0.4610  0.8920
10580TIP3   OH253230   1.713   6.525   2.240 -0.1269 -0.0611 -0.0939
10580TIP3    H153231   1.772   6.450   2.244 -0.5514 -0.3784  0.3873
10580TIP3    H253232   1.734   6.569   2.158 -0.0524 -0.8623 -0.5061
10581TIP3   OH253233   3.580   4.353   5.998 -0.4435  0.2248 -0.1179
10581TIP3    H153234   3.670   4.332   5.974 -0.9907 -2.1950 -0.2107
10581TIP3    H253235   3.587   4.431   6.053  1.6227  0.5179 -0.7455
10582TIP3   OH253236   0.425   2.169   1.739 -0.3966  0.5163 -0.2522
10582TIP3    H153237   0.468   2.243   1.782 -1.1473 -0.0031  1.4440
10582TIP3    H253238   0.481   2.094   1.759 -1.0892  0.1598  0.4239
10583TIP3   OH253239   2.699   1.534   0.294  0.1519 -0.5275  0.1142
10583TIP3    H153240   2.645   1.599   0.248 -1.0889 -1.2547  0.5075
10583TIP3    H253241   2.710   1.570   0.382  0.5890 -0.2260 -0.0615
10584TIP3   OH253242   5.584   5.384   2.197 -0.5549 -0.1312 -0.2596
10584TIP3    H153243   5.666   5.426   2.173 -0.7142  0.9737  1.0785
10584TIP3    H253244   5.587   5.377   2.292 -1.0687 -2.0782 -0.3538
10585TIP3   OH253245   0.218   0.354  12.193  0.2319  0.2403 -0.6401
10585TIP3    H153246   0.273   0.365  12.116 -0.3546  1.5878 -0.8854
10585TIP3    H253247   0.142   0.410  12.177  0.0417  0.4536  0.8496
10586TIP3   OH253248   6.486   5.227  14.029  0.0844 -0.0111 -0.2738
10586TIP3    H153249   6.473   5.132  14.039 -0.7740  0.4330  3.3159
10586TIP3    H253250   6.566   5.234  13.977  2.5398 -2.7606  2.9076
10587TIP3   OH253251   5.239   6.253  11.146 -0.6246 -0.2096  0.6212
10587TIP3    H153252   5.246   6.165  11.185 -0.2934 -0.0815  0.8556
10587TIP3    H253253   5.147   6.276  11.154 -0.6034 -0.2885  1.1086
10588TIP3   OH253254   3.461   6.294   4.358 -0.1180 -0.7398  0.1826
10588TIP3    H153255   3.465   6.387   4.383 -1.8500 -0.5286 -0.2596
10588TIP3    H253256   3.401   6.292   4.284  0.7108 -2.0929 -0.4505
10589TIP3   OH253257   0.050   5.698  14.859  0.6302 -0.2159  0.0705
10589TIP3    H153258   0.014   5.628  14.806  0.2047  0.4751 -0.5639
10589TIP3    H253259   0.112   5.744  14.801  0.9559 -0.1064  0.4956
10590TIP3   OH253260   5.174   2.684   3.823 -0.0086 -0.2081 -0.5768
10590TIP3    H153261   5.109   2.743   3.862 -0.8733 -1.4524 -0.1021
10590TIP3    H253262   5.122   2.621   3.773  0.7960 -1.3546 -0.0042
10591TIP3   OH253263   5.583   0.438   5.685 -0.1415  0.3764 -0.0551
10591TIP3    H153264   5.546   0.509   5.633  0.0679  0.2027 -0.4478
10591TIP3    H253265   5.508   0.381   5.704 -0.1514  0.2341 -0.5054
10592TIP3   OH253266   4.192   6.302  16.386 -0.1060 -0.0268  0.0940
10592TIP3    H153267   4.159   6.281  16.299 -0.2947 -0.9907  0.3930
10592TIP3    H253268   4.141   6.246  16.445  0.8282 -0.2286  0.7230
10593TIP3   OH253269   0.700   1.626   5.819  0.4307 -0.6964  0.5857
10593TIP3    H153270   0.718   1.552   5.876  1.6407  1.0141  2.4870
10593TIP3    H253271   0.755   1.612   5.742  1.1226 -1.4570  1.2162
10594TIP3   OH253272   3.145   1.673  11.273  0.0454 -0.2678  0.3122
10594TIP3    H153273   3.072   1.612  11.279 -0.6363  0.4175 -0.9193
10594TIP3    H253274   3.197   1.641  11.199 -1.5241  1.8969 -1.7914
10595TIP3   OH253275   1.117   3.588   0.849 -1.0268 -0.2840 -0.0793
10595TIP3    H153276   1.160   3.672   0.867 -3.9905  0.8892  2.0023
10595TIP3    H253277   1.105   3.586   0.754  1.4942  0.3892 -0.4285
10596TIP3   OH253278   3.701   6.395   5.691  0.7221  0.4434  0.1782
10596TIP3    H153279   3.740   6.439   5.766  2.0368 -2.6774  1.4000
10596TIP3    H253280   3.638   6.333   5.729  2.5190 -2.3003 -1.1209
10597TIP3   OH253281   3.026   6.367   1.420  0.1818 -0.4028  0.1736
10597TIP3    H153282   3.122   6.359   1.421  0.2384 -0.3041 -2.3964
10597TIP3    H253283   2.999   6.333   1.505  2.4909 -0.6605  0.8436
10598TIP3   OH253284   0.938   4.213   6.033 -0.0763 -0.9610 -0.2053
10598TIP3    H153285   0.988   4.138   6.067 -0.2009 -0.1481  1.8415
10598TIP3    H253286   0.970   4.288   6.083 -1.3446  0.0418 -0.8740
10599TIP3   OH253287   4.736   4.829  17.214 -0.6330 -0.3723  0.2095
10599TIP3    H153288   4.662   4.818  17.154  0.1319 -0.2474 -0.7595
10599TIP3    H253289   4.813   4.823  17.158  0.0895 -0.3862  1.2060
10600TIP3   OH253290   4.293   0.255  14.103 -0.1282 -0.1518  0.1604
10600TIP3    H153291   4.300   0.172  14.057 -1.1596 -0.5188  0.6550
10600TIP3    H253292   4.321   0.236  14.193 -0.5682 -0.0214  0.3293
10601TIP3   OH253293   0.794   0.617  11.330  1.0020 -0.3030 -0.2993
10601TIP3    H153294   0.870   0.641  11.276 -0.8520 -0.2962 -3.0369
10601TIP3    H253295   0.791   0.522  11.327 -0.3753 -0.2506 -2.1894
10602TIP3   OH253296   4.936   2.974  10.991 -0.2625  0.2880  0.4109
10602TIP3    H153297   4.970   2.982  11.080 -3.8619 -2.4335  2.1482
10602TIP3    H253298   4.878   3.050  10.981  0.1214  0.5800  0.3721
10603TIP3   OH253299   3.220   4.196   3.420  0.4458 -0.4303 -0.0952
10603TIP3    H153300   3.251   4.267   3.476  0.7507 -0.1275 -0.6435
10603TIP3    H253301   3.298   4.170   3.370  0.1389 -0.5893 -0.4920
10604TIP3   OH253302   6.262   1.273   4.231 -0.0159  0.2609 -1.0150
10604TIP3    H153303   6.192   1.221   4.270  1.4643 -0.8447  0.1952
10604TIP3    H253304   6.223   1.309   4.151 -2.4116  0.8044  0.3435
10605TIP3   OH253305   3.213   4.971   5.444 -0.2930  0.3391  0.2673
10605TIP3    H153306   3.290   4.947   5.392 -1.2654 -1.8884 -0.2221
10605TIP3    H253307   3.148   5.000   5.379 -0.9164 -0.7844  0.3790
10606TIP3   OH253308   4.708   0.177  13.188  0.2489 -0.2708 -0.7991
10606TIP3    H153309   4.655   0.100  13.207 -0.1578  0.9318  3.6334
10606TIP3    H253310   4.645   0.244  13.161 -0.3994  0.5083  2.3521
10607TIP3   OH253311   3.377   6.700   6.479 -0.2462  0.2846  0.2944
10607TIP3    H153312   3.296   6.668   6.519  0.0324 -1.5092 -0.4932
10607TIP3    H253313   3.349   6.744   6.399 -0.6111  1.7152  1.1951
10608TIP3   OH253314   2.702   4.720   0.247 -0.1520  0.9339  0.4889
10608TIP3    H153315   2.708   4.725   0.151  0.7197 -2.2677  0.3254
10608TIP3    H253316   2.609   4.724   0.266 -0.3358  1.4709 -0.5042
10609TIP3   OH253317   4.729   5.584  16.985 -0.5787 -0.1190 -0.0312
10609TIP3    H153318   4.790   5.529  17.034 -2.4167 -2.0719  0.1150
10609TIP3    H253319   4.680   5.631  17.052 -0.6110 -0.0466 -0.1075
10610TIP3   OH253320   4.343   0.203   1.425  0.3321 -0.2521 -0.0446
10610TIP3    H153321   4.411   0.156   1.473  1.0887  1.4724  0.5822
10610TIP3    H253322   4.310   0.267   1.487  0.5769  1.2809 -1.4779
10611TIP3   OH253323   1.574   1.548  12.397  0.1915  0.6791  0.1335
10611TIP3    H153324   1.486   1.586  12.391 -0.0311  0.3579  1.3783
10611TIP3    H253325   1.572   1.494  12.475  1.1666 -0.2332 -0.4658
10612TIP3   OH253326   3.170   3.228   2.537 -0.0282 -0.4600  0.0914
10612TIP3    H153327   3.199   3.138   2.521 -0.9954 -0.4000 -2.1541
10612TIP3    H253328   3.211   3.279   2.468  1.8717  1.1582  2.3210
10613TIP3   OH253329   1.387   5.798   1.876  0.1296  0.0005  0.5448
10613TIP3    H153330   1.480   5.798   1.852 -0.3161 -0.1250 -1.2277
10613TIP3    H253331   1.362   5.705   1.874 -1.2627  0.3708 -4.0052
10614TIP3   OH253332   6.497   0.863   6.477 -0.4623 -0.7536 -0.7423
10614TIP3    H153333   6.437   0.886   6.407 -0.8283 -2.1192 -0.8833
10614TIP3    H253334   6.444   0.815   6.540 -0.3350  1.1804  0.8972
10615TIP3   OH253335   2.651   1.261  14.380  0.3133 -0.0537 -0.0897
10615TIP3    H153336   2.717   1.287  14.444 -0.4080  2.1726 -0.2099
10615TIP3    H253337   2.574   1.239  14.433  0.3658 -0.2305 -0.0862
10616TIP3   OH253338   0.257   2.222  15.197 -0.7247 -0.7346 -0.4689
10616TIP3    H153339   0.305   2.158  15.250 -0.4204 -1.0434 -1.1096
10616TIP3    H253340   0.262   2.187  15.108 -2.3787 -0.9109 -0.4948
10617TIP3   OH253341   0.573   6.350   4.009  0.1120  0.2349  0.4449
10617TIP3    H153342   0.627   6.272   4.022 -0.3512 -0.0333  0.7539
10617TIP3    H253343   0.636   6.422   4.008  0.5034 -0.1040  0.5338
10618TIP3   OH253344   3.658   1.797   6.035 -0.3704 -0.3976  0.6513
10618TIP3    H153345   3.579   1.838   6.070  0.4246  0.4324  1.4913
10618TIP3    H253346   3.730   1.851   6.068  0.5296 -0.8789 -0.4734
10619TIP3   OH253347   3.054   1.186  14.667  0.2487  0.0255  0.2630
10619TIP3    H153348   3.114   1.243  14.716  1.6316 -2.3275  1.3727
10619TIP3    H253349   3.082   1.097  14.688 -1.3088 -1.0915 -2.1458
10620TIP3   OH253350   0.314   5.256   2.668  0.3336 -0.3276  1.5613
10620TIP3    H153351   0.332   5.295   2.582  2.0377  0.3245  2.1812
10620TIP3    H253352   0.230   5.294   2.695 -0.3939 -0.8157  0.0405
10621TIP3   OH253353   2.784   4.640  14.003 -0.3131 -0.2822 -0.0391
10621TIP3    H153354   2.829   4.653  14.087 -1.0272  1.3828  0.1225
10621TIP3    H253355   2.706   4.589  14.025  0.5759 -1.6706 -0.0439
10622TIP3   OH253356   0.903   2.629   5.041  0.2926 -0.3578  0.1152
10622TIP3    H153357   0.881   2.569   4.970 -0.3034 -1.1101  0.9279
10622TIP3    H253358   0.980   2.591   5.082 -0.2048 -0.6956  0.7568
10623TIP3   OH253359   1.095   5.809   0.454  0.1400  0.1478 -0.2104
10623TIP3    H153360   1.150   5.868   0.401 -1.8682  1.8909 -0.4280
10623TIP3    H253361   1.131   5.816   0.543  1.7300 -0.5728 -0.7800
10624TIP3   OH253362   3.290   3.235  15.830  0.0798 -0.1063 -0.0575
10624TIP3    H153363   3.247   3.151  15.820  0.8351 -0.3430 -1.5101
10624TIP3    H253364   3.340   3.227  15.912  1.9682 -1.9233 -1.3176
10625TIP3   OH253365   0.513   3.091   5.979  0.1953  0.6946 -0.3068
10625TIP3    H153366   0.531   3.107   5.886  2.3954  0.3720  0.0402
10625TIP3    H253367   0.598   3.097   6.021 -0.7877  0.8738  1.7180
10626TIP3   OH253368   0.100   3.139  13.869  0.2910 -0.7948  0.6878
10626TIP3    H153369   0.158   3.064  13.861 -0.0404 -1.1820  1.8410
10626TIP3    H253370   0.021   3.114  13.821 -0.0885 -1.4658  1.6532
10627TIP3   OH253371   1.215   3.185   5.526  0.8138  0.0455 -0.0871
10627TIP3    H153372   1.307   3.190   5.554  0.8194  1.5810 -0.3058
10627TIP3    H253373   1.165   3.178   5.607  1.0545  0.4991  0.1017
10628TIP3   OH253374   0.573   5.945   1.884 -0.0805  0.1124  0.1104
10628TIP3    H153375   0.644   5.936   1.820 -0.2478  0.1299 -0.0775
10628TIP3    H253376   0.607   6.005   1.950 -0.0330  0.3514 -0.1336
10629TIP3   OH253377   3.353   6.731   4.946  0.2242  0.3357 -0.3229
10629TIP3    H153378   3.320   6.722   5.035  1.8970 -2.8810  0.0589
10629TIP3    H253379   3.435   6.780   4.956  0.2483  0.2571 -0.1321
10630TIP3   OH253380   3.901   3.943  14.293  0.3160  0.2552  0.5909
10630TIP3    H153381   3.873   4.014  14.235 -1.5121  0.0875  1.2667
10630TIP3    H253382   3.929   3.874  14.233 -0.2676  0.6045 -0.0932
10631TIP3   OH253383   1.279   5.085   1.822  0.1620  0.6001  0.7570
10631TIP3    H153384   1.314   5.135   1.749 -0.6594  0.7736  0.4820
10631TIP3    H253385   1.344   5.016   1.837  0.2777  0.4986 -0.2004
10632TIP3   OH253386   1.216   2.358   4.780  0.0374  0.3595  0.1421
10632TIP3    H153387   1.196   2.372   4.872  0.7704 -1.4334  0.5958
10632TIP3    H253388   1.310   2.343   4.778 -0.3794 -2.3487 -0.5271
10633TIP3   OH253389   6.345   0.966  16.130  0.0925  0.5201  0.2286
10633TIP3    H153390   6.320   0.956  16.038  0.7882 -2.8645  0.3356
10633TIP3    H253391   6.272   0.928  16.179  0.0116  1.7270  1.0580
10634TIP3   OH253392   2.255   5.983  14.305  0.2053  0.3820  0.1010
10634TIP3    H153393   2.309   6.021  14.235 -1.0570  3.1159  0.5422
10634TIP3    H253394   2.317   5.958  14.373  1.1536  1.1198 -0.4815
10635TIP3   OH253395   4.603   1.232  14.955  0.1713  0.1749 -0.2239
10635TIP3    H153396   4.565   1.153  14.917  1.5059 -0.0322 -1.1746
10635TIP3    H253397   4.697   1.214  14.958  0.3233  1.1108  1.0357
10636TIP3   OH253398   2.830   0.283  14.037  0.4640 -0.1725 -0.0091
10636TIP3    H153399   2.895   0.333  13.988  0.3280  1.4601  1.4159
10636TIP3    H253400   2.760   0.346  14.055  0.0770 -0.9874  1.4386
10637TIP3   OH253401   5.554   3.660   0.319 -0.4550 -0.0823 -0.6287
10637TIP3    H153402   5.516   3.615   0.394  0.0612 -0.7715 -0.7682
10637TIP3    H253403   5.496   3.734   0.302 -0.8606 -0.2290  0.1202
10638TIP3   OH253404   6.564   6.115  15.079 -0.3468  0.5787 -0.6664
10638TIP3    H153405   6.617   6.072  15.013  0.1197  1.0580 -0.6142
10638TIP3    H253406   6.474   6.105  15.049 -0.2350 -0.3099 -0.7148
10639TIP3   OH253407   3.798   3.601  13.124  0.2543 -0.0549  0.4820
10639TIP3    H153408   3.844   3.649  13.193  0.7476  0.2547 -0.0674
10639TIP3    H253409   3.775   3.667  13.060 -1.7957 -0.0541  1.1949
10640TIP3   OH253410   6.316   1.610   3.133  0.5766  0.5351 -0.2089
10640TIP3    H153411   6.243   1.650   3.182  0.7885  0.1115  0.4595
10640TIP3    H253412   6.373   1.575   3.201 -0.0182 -1.6568 -0.8247
10641TIP3   OH253413   1.276   3.460  13.963  0.0175 -0.0864  0.2760
10641TIP3    H153414   1.350   3.439  14.021  1.1970 -0.6732 -1.3994
10641TIP3    H253415   1.215   3.387  13.975  0.1633 -0.1065  0.9198
10642TIP3   OH253416   5.622   3.082  17.050 -0.1906  0.5626 -0.0067
10642TIP3    H153417   5.651   3.089  16.959  1.5664 -0.6147  0.4360
10642TIP3    H253418   5.655   2.997  17.079 -1.5908  0.4988  1.4404
10643TIP3   OH253419   6.693   3.504  12.022 -0.3016 -0.9636 -0.2020
10643TIP3    H153420   6.694   3.410  12.003 -0.3203 -1.0339  0.1250
10643TIP3    H253421   6.771   3.518  12.076 -0.7985 -0.9616  0.5239
10644TIP3   OH253422   2.280   2.016  16.397 -0.0226  0.0751 -0.1692
10644TIP3    H153423   2.210   2.047  16.455 -0.5547 -1.8938  0.2789
10644TIP3    H253424   2.352   2.077  16.412 -0.8586  0.7867  1.0708
10645TIP3   OH253425   5.923   3.841  14.793 -0.0942 -0.6168 -0.0609
10645TIP3    H153426   5.886   3.900  14.859 -1.3031 -1.5350  0.0983
10645TIP3    H253427   5.868   3.853  14.716 -0.0651 -1.1994 -0.1746
10646TIP3   OH253428   2.327   3.968  11.236 -0.3091  0.0973 -0.2644
10646TIP3    H153429   2.360   3.968  11.146 -1.7879  0.7684 -0.8259
10646TIP3    H253430   2.369   3.892  11.277  1.3062  0.4962 -1.1603
10647TIP3   OH253431   6.738   2.017   4.083  0.3913  0.2258 -0.3768
10647TIP3    H153432   6.819   1.993   4.038 -0.3550 -0.4811 -1.3456
10647TIP3    H253433   6.702   1.933   4.113  1.0134  0.6927  1.7862
10648TIP3   OH253434   6.161   0.015  12.095 -0.0795  0.2508 -0.1935
10648TIP3    H153435   6.193   0.040  12.182  1.4282  2.6199 -1.3962
10648TIP3    H253436   6.173  -0.080  12.092  0.7102  0.2543  1.8273
10649TIP3   OH253437   0.338   1.521   1.606 -0.2003  0.3863 -0.0601
10649TIP3    H153438   0.347   1.513   1.701  1.9840 -1.4957 -0.3865
10649TIP3    H253439   0.420   1.562   1.578 -0.0357 -0.7834 -1.3158
10650TIP3   OH253440   4.919   0.430   5.512 -0.0252  0.3567  0.1176
10650TIP3    H153441   4.965   0.358   5.470 -0.0559  1.1077 -1.2253
10650TIP3    H253442   4.889   0.485   5.439  0.9247  2.2872  1.1598
10651TIP3   OH253443   0.789   3.918  13.809  0.1634 -0.1742 -0.0775
10651TIP3    H153444   0.818   3.983  13.745 -1.1547 -0.2523 -0.7601
10651TIP3    H253445   0.827   3.948  13.892 -0.4601  1.4931 -0.3796
10652TIP3   OH253446   6.016   0.243  16.063  0.3912  0.2185 -0.1181
10652TIP3    H153447   6.028   0.171  16.126 -2.0368  0.1308  0.3170
10652TIP3    H253448   6.005   0.200  15.979 -1.5441  0.0177  0.2157
10653TIP3   OH253449   4.118   1.587   2.832 -0.0014  0.4797  0.6279
10653TIP3    H153450   4.083   1.633   2.909  0.6602  2.1074 -0.0145
10653TIP3    H253451   4.205   1.558   2.859  1.0790  2.8771 -0.1478
10654TIP3   OH253452   2.655   0.633  14.795 -0.1615  0.0786 -0.3809
10654TIP3    H153453   2.614   0.676  14.870 -1.7250 -1.0457 -0.5703
10654TIP3    H253454   2.602   0.555  14.780 -0.2127  0.5863 -3.0270
10655TIP3   OH253455   3.357   1.679  11.685 -0.1565 -0.3706  0.2498
10655TIP3    H153456   3.428   1.615  11.680  0.6788  0.4148  1.8066
10655TIP3    H253457   3.347   1.697  11.779 -2.7473 -0.8436  0.0940
10656TIP3   OH253458   0.905   4.526  15.626  0.1688  0.4948  0.0105
10656TIP3    H153459   0.876   4.569  15.545  1.1043  1.0819 -0.0185
10656TIP3    H253460   0.958   4.453  15.596 -0.3084  0.1219  0.0804
10657TIP3   OH253461   4.000   2.380  15.618  0.6029  0.1382  0.1696
10657TIP3    H153462   4.065   2.353  15.683  0.5152 -1.8498 -0.5245
10657TIP3    H253463   4.052   2.419  15.547  0.6922  2.3755  1.4396
10658TIP3   OH253464   2.338   2.924  12.233  0.1037  0.0743  0.4155
10658TIP3    H153465   2.263   2.951  12.180 -0.5823 -0.4222  1.1259
10658TIP3    H253466   2.385   3.005  12.251  0.1516  0.2914 -0.6574
10659TIP3   OH253467   6.222   5.775  11.418 -0.4352  0.6012  0.4518
10659TIP3    H153468   6.147   5.828  11.390 -0.5308 -0.0619 -0.5863
10659TIP3    H253469   6.218   5.775  11.513 -2.3069 -0.2100  0.3779
10660TIP3   OH253470   6.629   4.116  14.912  0.4904 -0.0451  0.4138
10660TIP3    H153471   6.719   4.093  14.890  0.7394 -0.2452  1.6277
10660TIP3    H253472   6.576   4.057  14.859  1.0842 -0.5489  0.3766
10661TIP3   OH253473   4.886   3.739  12.220  0.2481 -0.2981  0.2371
10661TIP3    H153474   4.952   3.784  12.167 -0.4029 -1.0054 -1.1836
10661TIP3    H253475   4.886   3.787  12.303  2.6464 -0.3481  0.3262
10662TIP3   OH253476   0.514   2.884   3.136  0.1862  0.0623 -0.1003
10662TIP3    H153477   0.449   2.814   3.142  0.4116 -0.2510 -1.2658
10662TIP3    H253478   0.468   2.955   3.091  0.3059  0.2485  0.0714
10663TIP3   OH253479   3.090   6.687  16.578 -0.3494  0.2559 -0.1550
10663TIP3    H153480   3.018   6.641  16.622 -0.4403 -0.4093 -0.9905
10663TIP3    H253481   3.167   6.669  16.633 -0.4995 -0.4168 -0.1604
10664TIP3   OH253482   2.436   4.852  16.473  0.1838  0.6326  0.1366
10664TIP3    H153483   2.399   4.932  16.436  1.5172  1.4887  0.5915
10664TIP3    H253484   2.524   4.878  16.501  1.2340 -1.3848 -1.1881
10665TIP3   OH253485   0.191   4.773   3.101  0.2292 -0.3090 -0.2745
10665TIP3    H153486   0.201   4.844   3.165 -0.4890 -1.2715  0.9215
10665TIP3    H253487   0.272   4.775   3.051  0.6142  0.7579  0.3582
10666TIP3   OH253488   1.387   6.805   3.069  0.2564 -0.1286 -0.2759
10666TIP3    H153489   1.314   6.860   3.096 -1.2527 -1.4266 -1.5499
10666TIP3    H253490   1.424   6.850   2.993  0.2233  0.0873 -0.1640
10667TIP3   OH253491   4.977   4.925  13.794 -0.0349  0.4048 -0.0645
10667TIP3    H153492   5.060   4.898  13.834  0.7742  1.1267 -1.2317
10667TIP3    H253493   4.940   4.844  13.758  0.2911  0.1276  0.2232
10668TIP3   OH253494   3.544   3.418  12.547  0.2666  0.0968  0.4786
10668TIP3    H153495   3.571   3.344  12.491  0.5616  1.2414 -0.9215
10668TIP3    H253496   3.458   3.443  12.514 -0.2422 -0.1952  1.5554
10669TIP3   OH253497   0.116   3.437  14.261 -0.1570 -0.1635 -0.1980
10669TIP3    H153498   0.175   3.480  14.199 -0.3498  0.6590  0.1875
10669TIP3    H253499   0.077   3.365  14.210 -0.9201  0.9931 -1.2715
10670TIP3   OH253500   1.347   3.332  14.588  0.2748  0.2255 -0.1429
10670TIP3    H153501   1.422   3.334  14.528  1.2311 -1.6077  0.9370
10670TIP3    H253502   1.385   3.356  14.673 -0.4090 -0.4821  0.3607
10671TIP3   OH253503   3.109   3.042   1.785 -0.3744  0.6772  0.1687
10671TIP3    H153504   3.104   3.105   1.714 -0.9586  1.3382  0.7844
10671TIP3    H253505   3.085   2.959   1.745  1.6924  0.5811 -0.9368
10672TIP3   OH253506   2.575   3.998   1.384 -0.7498  0.8854 -0.1701
10672TIP3    H153507   2.610   3.941   1.453 -2.1060  1.3924  0.9472
10672TIP3    H253508   2.525   3.939   1.327  0.2302  0.4972 -0.6463
10673TIP3   OH253509   1.223   0.438  13.090  0.1099 -0.4430 -0.4956
10673TIP3    H153510   1.156   0.381  13.128 -1.3379 -0.0744 -2.4009
10673TIP3    H253511   1.174   0.500  13.036  1.7386  1.9832  0.7185
10674TIP3   OH253512   5.219   2.717  11.805 -0.1708 -0.1255  0.1900
10674TIP3    H153513   5.197   2.727  11.898 -0.0219 -2.4369  0.5013
10674TIP3    H253514   5.192   2.628  11.784  1.8452 -0.3701 -1.4313
10675TIP3   OH253515   6.424   0.412   3.985 -0.2405 -0.1540  0.3447
10675TIP3    H153516   6.362   0.345   4.013 -0.5315 -0.6272 -1.3782
10675TIP3    H253517   6.376   0.463   3.920 -0.5943  2.8154  2.8642
10676TIP3   OH253518   3.792   1.613  14.561  0.0253 -0.2949  0.1103
10676TIP3    H153519   3.737   1.690  14.546 -0.7304 -0.9725 -0.7028
10676TIP3    H253520   3.731   1.546  14.593  0.5929 -0.6930  0.3620
10677TIP3   OH253521   6.063   5.040  15.572 -0.0338  0.0176 -0.0944
10677TIP3    H153522   6.045   5.115  15.630  1.3607 -0.3159  0.7732
10677TIP3    H253523   6.008   5.056  15.496  0.6126  2.2057 -0.1384
10678TIP3   OH253524   5.339   3.066  13.508  0.5947  0.1318 -0.2125
10678TIP3    H153525   5.320   3.142  13.563  0.6030 -1.0297  1.4094
10678TIP3    H253526   5.325   2.991  13.565  0.8290 -1.0844 -1.7383
10679TIP3   OH253527   1.157   4.581  12.844  0.1591  0.2530 -0.0249
10679TIP3    H153528   1.248   4.575  12.874  0.2319 -1.3334 -0.5446
10679TIP3    H253529   1.106   4.541  12.915  0.2804 -2.9786 -1.6687
10680TIP3   OH253530   6.456   4.719  14.316 -0.3180  0.2931  0.0578
10680TIP3    H153531   6.438   4.704  14.409  2.3922 -1.5018  0.3646
10680TIP3    H253532   6.397   4.658  14.271 -2.8477  2.3466  0.4520
10681TIP3   OH253533   0.723   5.437   5.529  0.1959 -0.3225  0.0285
10681TIP3    H153534   0.629   5.445   5.518  0.3801 -0.3465 -1.7270
10681TIP3    H253535   0.745   5.497   5.601 -1.2305 -0.8311  0.9047
10682TIP3   OH253536   5.188   6.095   5.755 -0.2038 -0.1608 -0.8028
10682TIP3    H153537   5.147   6.177   5.728 -0.0650 -0.1663 -1.0282
10682TIP3    H253538   5.275   6.096   5.714 -0.2529 -0.4820 -0.9155
10683TIP3   OH253539   0.392   3.539   4.340 -0.2831  0.3086 -0.4150
10683TIP3    H153540   0.472   3.511   4.384 -0.7994  0.6505  0.7578
10683TIP3    H253541   0.372   3.467   4.279  0.7571  0.1024 -0.5251
10684TIP3   OH253542   2.810   4.935   1.178  0.1128 -0.2848  0.0940
10684TIP3    H153543   2.773   4.849   1.161 -0.9378  0.3047 -0.6409
10684TIP3    H253544   2.848   4.928   1.266 -0.6794 -1.2537  0.3622
10685TIP3   OH253545   6.189   4.956   3.249 -0.2906  0.7031  0.1097
10685TIP3    H153546   6.169   5.049   3.235 -0.5262  0.8048  1.0881
10685TIP3    H253547   6.105   4.916   3.268 -0.4792 -0.0910 -2.2237
10686TIP3   OH253548   2.345   1.284  11.112 -0.0476  0.1479 -0.3470
10686TIP3    H153549   2.339   1.189  11.124 -1.2937  0.3857  1.0358
10686TIP3    H253550   2.339   1.320  11.200 -2.0243  1.6244 -1.0475
10687TIP3   OH253551   3.900   4.122  11.362  0.2547  0.3944  0.5114
10687TIP3    H153552   3.838   4.195  11.357 -0.3756 -0.2018 -0.5742
10687TIP3    H253553   3.964   4.140  11.293  1.3100  1.0025  1.6216
10688TIP3   OH253554   1.264   6.035  13.811 -0.5604  0.2232  0.2147
10688TIP3    H153555   1.223   5.964  13.760 -1.8869  0.9344  0.2635
10688TIP3    H253556   1.311   6.087  13.745  0.2153 -0.5493  0.1443
10689TIP3   OH253557   0.336   0.472  11.984 -0.4136  0.3003 -0.4049
10689TIP3    H153558   0.343   0.566  12.000  2.8698 -0.0815  0.8567
10689TIP3    H253559   0.362   0.461  11.892  0.2913  0.5225 -0.2350
10690TIP3   OH253560   1.392   3.290   1.873  0.5101  0.6731  0.4183
10690TIP3    H153561   1.393   3.214   1.930  0.7453  1.2703  1.2171
10690TIP3    H253562   1.357   3.258   1.790 -1.4570  0.1739  1.4263
10691TIP3   OH253563   1.547   0.222   0.042  0.3161 -0.8570  0.0070
10691TIP3    H153564   1.580   0.134   0.060 -0.4809 -1.0739  0.4383
10691TIP3    H253565   1.528   0.222  -0.052  0.1738 -1.2005  0.0324
10692TIP3   OH253566   2.081   3.812   0.846  0.0293 -0.1484  0.7687
10692TIP3    H153567   2.146   3.882   0.844  1.1039 -1.1124  1.4574
10692TIP3    H253568   2.045   3.810   0.757  2.0447 -0.6234 -0.0621
10693TIP3   OH253569   5.221   2.381  12.219  0.0741 -0.4410 -0.3580
10693TIP3    H153570   5.221   2.433  12.299  0.2791 -0.9968  0.0128
10693TIP3    H253571   5.202   2.292  12.250  1.3609 -0.8665 -0.7839
10694TIP3   OH253572   3.386   3.140   5.460 -0.6887 -0.3482 -0.5662
10694TIP3    H153573   3.414   3.085   5.533  0.2042 -0.1926 -0.7935
10694TIP3    H253574   3.358   3.078   5.392  2.1567 -0.6063 -1.5765
10695TIP3   OH253575   2.114   1.941  16.864  0.2964 -0.1150 -0.5487
10695TIP3    H153576   2.158   1.861  16.835  0.0330 -0.0794 -1.0533
10695TIP3    H253577   2.162   1.968  16.942  0.1081 -1.0175 -0.1161
10696TIP3   OH253578   1.965   3.650   1.765 -0.0574 -0.2142  0.1112
10696TIP3    H153579   1.973   3.745   1.774 -1.2652 -0.1652  0.8118
10696TIP3    H253580   2.014   3.615   1.840  0.3522 -0.1519 -0.1233
10697TIP3   OH253581   4.027   5.263   1.773  0.2219 -0.4393 -0.2044
10697TIP3    H153582   4.105   5.224   1.733  0.3447 -0.0023 -0.3960
10697TIP3    H253583   4.026   5.230   1.863  1.5412  0.8454  0.3034
10698TIP3   OH253584   0.709   4.689  12.275  0.3833  0.0725 -0.3285
10698TIP3    H153585   0.705   4.660  12.184 -0.0347 -1.0887  0.0425
10698TIP3    H253586   0.799   4.673  12.302  0.2839 -0.4266 -0.2819
10699TIP3   OH253587   3.849   6.552  14.558  0.7595  0.0943 -0.4152
10699TIP3    H153588   3.908   6.595  14.620  0.2093  0.4453 -0.1282
10699TIP3    H253589   3.838   6.617  14.488  2.3993 -0.7926 -1.5335
10700TIP3   OH253590   1.082   2.850   4.381 -0.2212  0.1436 -0.3570
10700TIP3    H153591   1.069   2.777   4.320 -0.7581 -0.7959  0.8582
10700TIP3    H253592   1.080   2.928   4.326  0.1982 -0.7462 -1.6587
10701TIP3   OH253593   3.895   4.623  15.881 -0.8876 -0.2315 -0.1076
10701TIP3    H153594   3.903   4.640  15.787 -1.4007 -0.9270 -0.2863
10701TIP3    H253595   3.856   4.703  15.917  0.4579  0.5073 -0.2885
10702TIP3   OH253596   5.476   0.060  14.624 -0.5274  0.2637  0.1126
10702TIP3    H153597   5.563   0.095  14.608 -0.8227 -0.4057 -3.5228
10702TIP3    H253598   5.417   0.129  14.593 -1.2203 -0.3971 -0.0629
10703TIP3   OH253599   4.404   0.813  12.515 -0.1065  0.3407  0.1590
10703TIP3    H153600   4.372   0.824  12.425 -0.9793  1.0410  0.5428
10703TIP3    H253601   4.376   0.893  12.560  0.6619  0.1587  0.9536
10704TIP3   OH253602   3.960   4.253  10.561  0.4549 -0.2455  0.3026
10704TIP3    H153603   4.051   4.243  10.532  0.7011 -0.5430  1.1747
10704TIP3    H253604   3.959   4.338  10.605  0.3060 -0.2377  0.2810
10705TIP3   OH253605   1.512   0.415  12.182  0.8738 -0.1040 -0.8379
10705TIP3    H153606   1.515   0.439  12.090 -2.2142  0.5984 -0.8024
10705TIP3    H253607   1.521   0.320  12.182 -0.4696 -0.2368 -1.9561
10706TIP3   OH253608   2.652   4.951  14.024  0.6400 -0.2103  0.0259
10706TIP3    H153609   2.599   4.871  14.027  1.1773 -0.5548  0.4520
10706TIP3    H253610   2.698   4.952  14.108  3.1826 -1.2119 -1.2955
10707TIP3   OH253611   4.295   0.068   1.122  0.2937  0.2363 -0.4047
10707TIP3    H153612   4.231   0.099   1.186  1.4405 -0.1698  0.9872
10707TIP3    H253613   4.285   0.126   1.047  0.7067  2.4416  1.1815
10708TIP3   OH253614   2.937   2.743  10.848  1.0095  0.4758 -0.2473
10708TIP3    H153615   2.877   2.777  10.914  2.0980  0.2899  0.8595
10708TIP3    H253616   2.920   2.796  10.770 -1.4693 -0.4161 -0.3389
10709TIP3   OH253617   0.678   0.892   2.908 -0.1248  0.2420 -0.1903
10709TIP3    H153618   0.738   0.961   2.879  0.1738  0.3258  0.5903
10709TIP3    H253619   0.684   0.895   3.004  0.0467 -1.0001 -0.1538
10710TIP3   OH253620   4.474   6.329  13.166  0.7449 -0.3989  0.4565
10710TIP3    H153621   4.435   6.290  13.244  2.9115  0.1715  1.8892
10710TIP3    H253622   4.474   6.259  13.101 -2.9167 -0.3073  0.2418
10711TIP3   OH253623   6.777   6.414  15.476 -0.0781  0.0827  0.5853
10711TIP3    H153624   6.869   6.412  15.502  0.6765 -0.6137 -1.9363
10711TIP3    H253625   6.734   6.355  15.537  0.8120  1.7370  2.8771
10712TIP3   OH253626   2.612   5.262  14.976 -0.5318  0.0155 -0.2400
10712TIP3    H153627   2.566   5.222  15.050  1.2640 -2.3864 -0.3656
10712TIP3    H253628   2.687   5.306  15.014  1.4423 -2.8072 -0.7560
10713TIP3   OH253629   4.501   3.170  16.197 -0.5617 -0.1866 -0.3029
10713TIP3    H153630   4.559   3.104  16.157 -1.0729 -0.7423 -0.1408
10713TIP3    H253631   4.551   3.251  16.194 -0.0899 -0.4970 -0.9005
10714TIP3   OH253632   2.187   4.388   3.778  0.0232 -0.2184 -0.4933
10714TIP3    H153633   2.185   4.297   3.749  1.8876  0.2639 -2.2885
10714TIP3    H253634   2.278   4.404   3.803  0.2018  1.6997 -2.1819
10715TIP3   OH253635   3.754   3.536   4.054  0.2530 -0.1358  0.6371
10715TIP3    H153636   3.772   3.623   4.020  0.1408 -0.2236  0.3504
10715TIP3    H253637   3.824   3.520   4.117 -0.0393  0.3794  1.0986
10716TIP3   OH253638   5.963   3.533   1.475 -0.3170  0.3925  0.6393
10716TIP3    H153639   6.048   3.562   1.443  0.0240 -2.4921 -1.2855
10716TIP3    H253640   5.983   3.472   1.546 -0.7645 -0.3904  0.0992
10717TIP3   OH253641   2.657   2.404   4.915  0.1591  0.4263  0.3929
10717TIP3    H153642   2.633   2.376   5.003 -0.7130 -0.8472 -0.2381
10717TIP3    H253643   2.748   2.375   4.904 -0.3149 -1.0488  0.2219
10718TIP3   OH253644   0.869   1.862   5.458  0.2968  0.1534  0.4661
10718TIP3    H153645   0.821   1.871   5.375 -0.6080 -1.9123  0.7431
10718TIP3    H253646   0.842   1.939   5.509 -0.3557  0.6118 -0.5518
10719TIP3   OH253647   3.720   6.514  12.237 -0.2710 -0.0340  0.4951
10719TIP3    H153648   3.727   6.452  12.164 -0.7899 -0.9167  1.1876
10719TIP3    H253649   3.757   6.595  12.203 -0.8929 -0.3217 -0.8884
10720TIP3   OH253650   1.303   2.366  10.526 -0.0165 -0.8298 -0.5241
10720TIP3    H153651   1.394   2.370  10.558 -0.1670 -0.8276 -0.0899
10720TIP3    H253652   1.275   2.277  10.545 -0.5339 -0.4525  0.5457
10721TIP3   OH253653   6.462   1.563  15.977 -0.6587  0.2923 -0.7276
10721TIP3    H153654   6.529   1.560  16.046 -2.8248  0.4260  1.4471
10721TIP3    H253655   6.410   1.641  15.997 -1.0775  0.5635 -2.7712
10722TIP3   OH253656   6.675   2.221  10.775 -0.1226  0.0593  0.4922
10722TIP3    H153657   6.704   2.159  10.708  1.7478  0.0799  1.2680
10722TIP3    H253658   6.582   2.202  10.786 -0.0570 -1.1141 -0.8595
10723TIP3   OH253659   2.445   3.744  14.797  0.2178  0.3909 -0.0581
10723TIP3    H153660   2.465   3.836  14.784  0.6672  0.4250  0.8049
10723TIP3    H253661   2.368   3.744  14.855 -0.3606  0.2281 -0.8107
10724TIP3   OH253662   1.913   6.200   4.040 -0.2106 -0.0717  0.3495
10724TIP3    H153663   1.936   6.250   3.962  1.3370  0.2861  1.0262
10724TIP3    H253664   1.889   6.114   4.007 -1.2136  0.5880 -0.6658
10725TIP3   OH253665   1.961   3.432   5.087 -0.1769  0.6976 -0.7454
10725TIP3    H153666   1.887   3.412   5.143 -0.0227 -0.5688 -0.9908
10725TIP3    H253667   2.028   3.368   5.111  0.7341  1.6449 -0.7274
10726TIP3   OH253668   6.250   0.961  16.607 -1.0765 -0.4502 -0.1379
10726TIP3    H153669   6.294   0.912  16.676 -0.2244 -0.0308 -0.3772
10726TIP3    H253670   6.191   0.897  16.566 -0.2854 -1.1554 -0.1760
10727TIP3   OH253671   6.814   6.035   2.982  0.1745 -0.2371  0.5748
10727TIP3    H153672   6.740   6.027   2.921 -0.2529  0.2928  1.0173
10727TIP3    H253673   6.887   5.992   2.937 -0.8100 -2.2128  0.8359
10728TIP3   OH253674   4.027   4.546   4.988  0.2206  0.1894  0.1465
10728TIP3    H153675   4.074   4.584   4.914 -0.1347  1.6836  0.6636
10728TIP3    H253676   3.936   4.573   4.976 -0.0269 -0.4353  0.5690
10729TIP3   OH253677   6.066   2.397   6.380 -0.0081  0.1210 -0.6254
10729TIP3    H153678   6.067   2.441   6.465  0.0468 -0.5566 -0.2714
10729TIP3    H253679   6.150   2.351   6.375  0.0091  0.1998 -1.0643
10730TIP3   OH253680   2.660   6.220   3.152  0.1521 -0.2520  0.2833
10730TIP3    H153681   2.733   6.189   3.206 -0.1803  1.7296  1.9117
10730TIP3    H253682   2.700   6.284   3.093  0.2946 -1.5400 -1.0372
10731TIP3   OH253683   1.363   2.333  16.417 -0.3287  0.4783 -0.4023
10731TIP3    H153684   1.318   2.248  16.410  0.3229  0.2264 -1.6420
10731TIP3    H253685   1.296   2.397  16.392 -1.0551  0.4052  1.3102
10732TIP3   OH253686   6.256   6.550   3.871  0.4638 -0.3936  0.7608
10732TIP3    H153687   6.222   6.465   3.842  1.6981 -0.6969  0.1520
10732TIP3    H253688   6.342   6.557   3.829  0.3932  1.1396  0.8526
10733TIP3   OH253689   5.074   3.703   1.695 -0.7189 -0.4612 -0.5547
10733TIP3    H153690   5.121   3.659   1.624  1.3012  0.8560 -0.0829
10733TIP3    H253691   5.080   3.642   1.768  0.7130 -0.1006 -0.3576
10734TIP3   OH253692   4.114   5.575   3.772  0.1944 -0.3651 -1.0100
10734TIP3    H153693   4.041   5.571   3.709 -0.2484 -0.7909 -0.4750
10734TIP3    H253694   4.167   5.649   3.742 -0.7268  0.2674 -1.1214
10735TIP3   OH253695   2.669   1.461  11.338  0.3520  0.6605 -0.4003
10735TIP3    H153696   2.607   1.533  11.348  3.4039  3.6247 -1.8207
10735TIP3    H253697   2.654   1.428  11.249 -1.3210 -0.7703  0.3948
10736TIP3   OH253698   1.266   2.222  11.985  0.7210 -0.6742 -0.0995
10736TIP3    H153699   1.295   2.297  11.934  0.9915 -1.6473 -1.4187
10736TIP3    H253700   1.208   2.259  12.052 -0.0560  0.5803 -1.4330
10737TIP3   OH253701   1.497   2.730   1.735  0.0900 -0.0997  0.1747
10737TIP3    H153702   1.496   2.674   1.658  0.6427  0.4412 -0.2326
10737TIP3    H253703   1.587   2.724   1.768  0.4327  1.3033 -0.4505
10738TIP3   OH253704   0.395   3.305   5.412  0.1491  0.2485  0.6487
10738TIP3    H153705   0.336   3.230   5.410  1.3586 -0.7614  1.9851
10738TIP3    H253706   0.450   3.291   5.489  1.5047  1.6527 -0.0222
10739TIP3   OH253707   3.968   5.837  12.354 -0.2876  0.1303 -0.1686
10739TIP3    H153708   3.923   5.855  12.272  0.3645 -0.4985 -0.6606
10739TIP3    H253709   4.038   5.902  12.358  0.5909 -0.7707 -0.8118
10740TIP3   OH253710   0.716   3.320  12.183 -0.0560  0.2133  0.3569
10740TIP3    H153711   0.803   3.358  12.200  0.1703  0.7462 -1.8406
10740TIP3    H253712   0.656   3.373  12.235  0.6452  1.5155 -0.1446
10741TIP3   OH253713   2.074   2.953   0.869 -0.2225  0.3373  0.0927
10741TIP3    H153714   2.010   2.966   0.938 -1.3093 -1.0493 -0.6357
10741TIP3    H253715   2.150   2.916   0.913 -0.6810  0.0402  0.6307
10742TIP3   OH253716   0.829   2.635  12.866 -0.0825  0.3133  0.4815
10742TIP3    H153717   0.817   2.540  12.864 -1.2338  0.3837  2.4110
10742TIP3    H253718   0.763   2.666  12.928  0.6350  2.3207  0.2788
10743TIP3   OH253719   2.082   6.637  10.611  0.0018 -0.0261 -0.0085
10743TIP3    H153720   2.177   6.653  10.609  0.0755 -0.5712 -0.8922
10743TIP3    H253721   2.046   6.717  10.650  0.6390  1.0919 -1.6361
10744TIP3   OH253722   4.876   4.733   3.320 -0.0213  0.5039 -0.6080
10744TIP3    H153723   4.933   4.657   3.318 -0.8000 -0.2242  2.3236
10744TIP3    H253724   4.796   4.705   3.275 -0.6602 -0.7533  1.2626
10745TIP3   OH253725   2.499   5.908  12.199 -0.4665  0.5609 -0.0122
10745TIP3    H153726   2.567   5.844  12.181  0.5754  1.9218 -0.9856
10745TIP3    H253727   2.449   5.871  12.271  0.4498 -1.0932 -0.2196
10746TIP3   OH253728   3.582   1.248  11.648  0.3586  0.4014  0.1469
10746TIP3    H153729   3.648   1.190  11.686 -0.2108 -0.6549 -0.4634
10746TIP3    H253730   3.600   1.334  11.688  1.1038 -0.2170  1.1673
10747TIP3   OH253731   6.776   4.149  15.141  0.0448  0.2779  0.0505
10747TIP3    H153732   6.836   4.079  15.117  0.9913  1.0223  0.2415
10747TIP3    H253733   6.713   4.153  15.068  1.0304  0.4086 -0.7941
10748TIP3   OH253734   1.230   2.698  11.352  0.1463 -0.0126 -0.6731
10748TIP3    H153735   1.303   2.750  11.387 -0.3356 -0.0692  0.4694
10748TIP3    H253736   1.176   2.762  11.305 -0.4200  0.5496  0.6905
10749TIP3   OH253737   6.216   0.869   3.800  0.8434  0.0307 -0.6497
10749TIP3    H153738   6.252   0.881   3.888  2.0395 -1.7559 -0.8577
10749TIP3    H253739   6.130   0.910   3.803  2.1337  2.7332  0.4240
10750TIP3   OH253740   0.100   5.508   4.490 -0.2601 -0.6874 -0.5679
10750TIP3    H153741   0.194   5.496   4.482 -0.2427 -0.9594  0.0297
10750TIP3    H253742   0.071   5.535   4.402  0.2599 -1.3093 -0.9284
10751TIP3   OH253743   1.301   1.641  12.876  0.1597  0.0298  0.5636
10751TIP3    H153744   1.273   1.701  12.806  0.4306  1.1828  1.4228
10751TIP3    H253745   1.245   1.665  12.951  0.8868 -0.1811  1.1762
10752TIP3   OH253746   6.646   5.324   0.862  0.0388  0.0896 -0.1512
10752TIP3    H153747   6.713   5.340   0.796 -0.4407  0.5253 -0.5384
10752TIP3    H253748   6.642   5.228   0.870 -0.4290  0.0036 -1.3046
10753TIP3   OH253749   4.617   5.305  12.564  0.1194 -0.2796 -0.0806
10753TIP3    H153750   4.654   5.388  12.537 -1.4018  1.1884  2.1710
10753TIP3    H253751   4.613   5.253  12.484 -0.4575  2.4174 -1.8685
10754TIP3   OH253752   4.058   0.098  12.141 -0.4821 -0.1448 -0.2742
10754TIP3    H153753   4.001   0.066  12.211 -0.4352 -0.1267 -0.2269
10754TIP3    H253754   4.053   0.194  12.148 -1.5030 -0.1338 -1.1374
10755TIP3   OH253755   0.255   2.409   3.465  0.1117  0.2703  0.2900
10755TIP3    H153756   0.213   2.324   3.477  1.4753 -0.4738 -0.0860
10755TIP3    H253757   0.329   2.409   3.526 -1.4232  2.2719  2.2213
10756TIP3   OH253758   1.738   2.251  12.277  0.0471 -0.6095 -0.1545
10756TIP3    H153759   1.828   2.219  12.269  0.0177 -0.4512 -1.2058
10756TIP3    H253760   1.701   2.241  12.189 -0.0413  2.0675 -0.4611
10757TIP3   OH253761   6.814   2.943   0.536  0.3038  0.6006 -0.2393
10757TIP3    H153762   6.860   2.859   0.541  1.5581  1.3412  0.9490
10757TIP3    H253763   6.726   2.920   0.506  0.6188 -1.1392  0.0988
10758TIP3   OH253764   5.762   2.689   2.899 -0.0404 -0.1562 -0.2136
10758TIP3    H153765   5.704   2.675   2.974 -0.3607  1.1216 -0.2055
10758TIP3    H253766   5.705   2.678   2.822 -0.3934  1.4499 -0.1986
10759TIP3   OH253767   6.670   1.974   4.480 -0.3885  0.8431  0.5494
10759TIP3    H153768   6.591   1.923   4.494  0.6582 -1.2353 -0.9529
10759TIP3    H253769   6.645   2.042   4.417 -1.2081  0.8024  0.8321
10760TIP3   OH253770   1.516   6.020  11.439  0.4609  0.3053 -0.0738
10760TIP3    H153771   1.611   6.023  11.425  0.3158  1.9649 -0.8124
10760TIP3    H253772   1.489   5.938  11.398  1.5319 -0.0469 -0.1151
10761TIP3   OH253773   1.939   2.963  11.181  0.2976  0.0891  0.2846
10761TIP3    H153774   1.936   2.878  11.225  0.5435 -0.6916 -1.1893
10761TIP3    H253775   1.868   2.959  11.117  0.4175  0.9363  0.0970
10762TIP3   OH253776   4.830   6.043   3.141  0.2329 -0.2420 -0.0242
10762TIP3    H153777   4.839   5.949   3.155 -0.3166 -0.2616  0.2100
10762TIP3    H253778   4.879   6.060   3.061  0.8659 -0.6221  0.2832
10763TIP3   OH253779   0.046   1.078   2.258  0.2918 -0.6729 -0.2910
10763TIP3    H153780   0.105   1.055   2.186  0.8503 -3.1241  0.8982
10763TIP3    H253781   0.016   0.994   2.292 -0.3414  0.4455  2.0288
10764TIP3   OH253782   2.855   5.679  14.554 -0.1889  0.2540 -0.0727
10764TIP3    H153783   2.824   5.656  14.467 -0.6239  1.1155 -0.1449
10764TIP3    H253784   2.895   5.765  14.544 -0.5252  0.5022  0.6421
10765TIP3   OH253785   0.317   2.505   0.926 -0.2128 -0.5315  0.0964
10765TIP3    H153786   0.237   2.547   0.960  0.8075 -0.2119  2.1735
10765TIP3    H253787   0.296   2.412   0.925 -0.5224 -0.4762  0.9171
10766TIP3   OH253788   2.527   1.612   1.793 -0.2316  0.8176 -0.1193
10766TIP3    H153789   2.537   1.623   1.699 -1.5536  1.1803 -0.2302
10766TIP3    H253790   2.490   1.695   1.823 -0.3186  0.5103  0.6312
10767TIP3   OH253791   1.148   4.741  10.902  0.2558 -0.1914 -0.4863
10767TIP3    H153792   1.215   4.728  10.969  1.6418  0.6671 -1.6839
10767TIP3    H253793   1.196   4.738  10.819 -1.3334 -0.5337 -1.4204
10768TIP3   OH253794   1.454   3.277   3.537 -0.4514  0.0571  0.4506
10768TIP3    H153795   1.538   3.308   3.505 -1.0087  2.8100  1.5606
10768TIP3    H253796   1.393   3.348   3.519 -1.9095 -0.6493  2.3998
10769TIP3   OH253797   6.097   6.459  13.186 -0.0306 -0.4642  0.2345
10769TIP3    H153798   6.177   6.503  13.214  1.0145 -1.0538 -1.7181
10769TIP3    H253799   6.027   6.520  13.210  0.9360 -0.1069  2.3052
10770TIP3   OH253800   3.931   0.402   2.894 -0.0764 -0.7086  0.0385
10770TIP3    H153801   3.893   0.490   2.902  1.6400  0.1484 -0.8878
10770TIP3    H253802   4.023   0.413   2.917  0.1366 -2.2956  0.0047
10771TIP3   OH253803   4.612   4.559   2.404 -0.4635 -0.7122 -0.2933
10771TIP3    H153804   4.596   4.630   2.466  2.5779  0.2224 -0.4659
10771TIP3    H253805   4.526   4.523   2.385 -2.0755  2.8411 -0.0861
10772TIP3   OH253806   3.062   2.258  14.265  0.0380  0.6061  0.1936
10772TIP3    H153807   3.063   2.233  14.173  0.7466 -0.9300  0.6024
10772TIP3    H253808   3.152   2.285  14.284  0.1010  0.0638  0.6629
10773TIP3   OH253809   0.018   1.313  11.738 -0.2225 -0.4447 -0.0866
10773TIP3    H153810  -0.067   1.283  11.704  0.1415 -1.1705 -0.3819
10773TIP3    H253811   0.071   1.233  11.740  0.4471  0.0092  0.1053
10774TIP3   OH253812   1.724   6.530  11.254 -0.4116  0.2290 -0.2127
10774TIP3    H153813   1.676   6.610  11.234  0.0082  0.5357 -0.0078
10774TIP3    H253814   1.816   6.554  11.244 -0.3137 -0.4403 -0.9236
10775TIP3   OH253815   2.670   6.105   4.841  0.0229  0.2216 -0.0108
10775TIP3    H153816   2.709   6.083   4.926  2.3015 -0.8708 -1.2977
10775TIP3    H253817   2.678   6.200   4.836 -1.1315  0.4180  1.4532
10776TIP3   OH253818   5.080   4.009  12.930 -0.0769  0.6118 -0.0333
10776TIP3    H153819   5.082   3.914  12.926  1.6639  0.5754  1.0649
10776TIP3    H253820   5.158   4.033  12.981 -0.3077  2.6315 -0.5671
10777TIP3   OH253821   5.613   2.479   4.117 -0.3253 -0.3771 -0.1987
10777TIP3    H153822   5.578   2.504   4.203  1.2828  0.8970  0.1084
10777TIP3    H253823   5.543   2.426   4.078 -1.8956  0.6701  1.0769
10778TIP3   OH253824   4.595   6.432   0.170 -0.0888  0.2409  0.5216
10778TIP3    H153825   4.561   6.432   0.080 -0.8359 -0.1305  0.7947
10778TIP3    H253826   4.610   6.524   0.190  1.8173  0.1955 -0.6220
10779TIP3   OH253827   4.508   3.575  15.119  0.5365  0.4095  0.3366
10779TIP3    H153828   4.485   3.533  15.036  1.4943 -0.1018  0.3195
10779TIP3    H253829   4.434   3.555  15.177 -0.0152  0.5457 -0.3128
10780TIP3   OH253830   2.149   0.475   0.208  0.5086 -0.1286 -0.4077
10780TIP3    H153831   2.126   0.500   0.298  0.3862 -1.3018 -0.1104
10780TIP3    H253832   2.072   0.428   0.177 -0.0784  1.6220 -1.6739
10781TIP3   OH253833   5.285   2.803  15.857  0.5536  0.0006  0.5514
10781TIP3    H153834   5.247   2.759  15.933  3.3062  0.9903  2.6007
10781TIP3    H253835   5.237   2.886  15.850  0.9188  0.3275  1.8179
10782TIP3   OH253836   0.303   2.779  13.295 -0.2994 -0.2556 -0.7777
10782TIP3    H153837   0.373   2.845  13.294 -0.9869  0.5267  1.0157
10782TIP3    H253838   0.258   2.791  13.211  0.6751  0.3555 -1.2298
10783TIP3   OH253839   6.065   1.871  13.397  0.3832 -0.1734 -0.2174
10783TIP3    H153840   6.033   1.790  13.438 -1.0439  0.3305 -0.2943
10783TIP3    H253841   6.119   1.840  13.324 -1.4166 -1.0760 -1.1997
10784TIP3   OH253842   1.640   6.492  13.115  0.0911  0.2665 -0.0185
10784TIP3    H153843   1.734   6.482  13.130  0.4868  2.8961 -0.4861
10784TIP3    H253844   1.632   6.574  13.065 -2.2578 -1.1620 -2.0820
10785TIP3   OH253845   6.769   2.231  16.690 -0.0731  0.4600  0.2409
10785TIP3    H153846   6.843   2.217  16.749  1.4927 -0.5570 -1.9057
10785TIP3    H253847   6.731   2.315  16.719  1.1348  0.3804  2.1407
10786TIP3   OH253848   4.937   4.146  12.211  0.4545  0.4493  0.6817
10786TIP3    H153849   4.919   4.240  12.215  0.8071  0.4911  1.3760
10786TIP3    H253850   4.981   4.126  12.294  2.3327  0.0795 -0.3883
10787TIP3   OH253851   3.452   6.032  17.021  0.4014 -0.2609  0.1725
10787TIP3    H153852   3.495   6.117  17.023  0.6564 -0.4089  0.8640
10787TIP3    H253853   3.507   5.979  16.963  0.1649  0.0836 -0.3757
10788TIP3   OH253854   5.074   2.040   6.817  0.3525 -0.0215  0.1633
10788TIP3    H153855   5.095   1.957   6.861 -1.4565 -0.6070 -0.0554
10788TIP3    H253856   4.980   2.051   6.830  0.2819  1.1578 -1.2768
10789TIP3   OH253857   4.015   1.493  16.507 -0.5477  0.2268 -0.6203
10789TIP3    H153858   4.061   1.415  16.540 -0.7775  0.0851 -0.6353
10789TIP3    H253859   4.027   1.558  16.576 -0.2247  0.2282 -0.6745
10790TIP3   OH253860   2.358   5.500  11.397 -0.0121 -0.2661 -0.2472
10790TIP3    H153861   2.431   5.461  11.348 -0.9479 -1.5275 -0.6778
10790TIP3    H253862   2.388   5.588  11.419  1.2701 -0.4337 -1.2450
10791TIP3   OH253863   5.862   3.583  11.966  0.4459 -0.4922  0.0819
10791TIP3    H153864   5.836   3.501  11.925 -0.5764 -0.7065  1.1243
10791TIP3    H253865   5.883   3.641  11.893  1.9937 -1.9256 -0.6653
10792TIP3   OH253866   2.604   4.811  12.034 -0.0977  0.6312  0.4177
10792TIP3    H153867   2.616   4.906  12.027 -1.7686  0.8630  0.2365
10792TIP3    H253868   2.521   4.801  12.082  0.1030 -0.7363  0.5042
10793TIP3   OH253869   2.617   1.566   2.063 -0.4357 -0.1739  0.2288
10793TIP3    H153870   2.600   1.598   1.974  0.9067 -1.1199 -0.3886
10793TIP3    H253871   2.587   1.475   2.061 -1.5459  0.1568  1.1208
10794TIP3   OH253872   0.345   1.684  16.539 -0.8573  0.7940  0.0457
10794TIP3    H153873   0.270   1.739  16.561 -1.1035  0.3843  0.2330
10794TIP3    H253874   0.420   1.742  16.548 -1.1440  1.1869 -0.0682
10795TIP3   OH253875   3.399   1.975  13.964 -0.2576  0.4254 -0.4733
10795TIP3    H153876   3.455   2.011  13.895 -1.3084 -0.5344 -1.8430
10795TIP3    H253877   3.312   2.011  13.945 -0.4984  0.3815  0.5277
10796TIP3   OH253878   2.770   3.521  13.494  0.5520  0.2585 -0.2288
10796TIP3    H153879   2.770   3.541  13.588  1.8030  0.5800 -0.2936
10796TIP3    H253880   2.808   3.433  13.487 -0.9865 -0.4101 -0.3082
10797TIP3   OH253881   2.520   1.964   4.897 -0.3752 -0.5461 -0.0929
10797TIP3    H153882   2.561   1.987   4.813 -0.8764 -0.8390 -0.4191
10797TIP3    H253883   2.549   1.874   4.914 -1.3345 -0.9568 -0.6048
10798TIP3   OH253884   3.904   6.249   3.404  0.1554  0.5701  0.2969
10798TIP3    H153885   3.870   6.198   3.331  0.9341 -0.5955  0.7354
10798TIP3    H253886   3.959   6.315   3.363  0.8368 -0.2713 -0.1556
10799TIP3   OH253887   1.800   5.588   3.521  0.0384  0.5340 -0.1186
10799TIP3    H153888   1.741   5.517   3.547 -0.8943  0.3863 -2.4542
10799TIP3    H253889   1.879   5.574   3.573 -0.1865 -2.1364 -0.4165
10800TIP3   OH253890   5.541   1.220   0.816  0.1278 -0.2617  0.3017
10800TIP3    H153891   5.561   1.312   0.831  0.6666 -0.3729  0.2893
10800TIP3    H253892   5.486   1.219   0.738 -2.7922  0.3340  2.2416
10801TIP3   OH253893   3.703   0.489   3.857 -0.4612 -0.6234 -0.3443
10801TIP3    H153894   3.778   0.493   3.798 -2.1660 -1.0352 -2.6022
10801TIP3    H253895   3.732   0.536   3.935  2.0223 -0.4863 -1.2912
10802TIP3   OH253896   2.053   4.744  11.921  0.5692  0.5028 -0.4134
10802TIP3    H153897   2.066   4.707  12.008  0.3676  0.4054 -0.4234
10802TIP3    H253898   1.961   4.770  11.920  0.8588  1.5323 -0.2160
10803TIP3   OH253899   6.374   2.763  14.762  0.4717 -0.5167  1.0861
10803TIP3    H153900   6.281   2.777  14.782  0.2575  1.4013 -1.0632
10803TIP3    H253901   6.395   2.831  14.698  3.7467 -0.0329  2.6016
10804TIP3   OH253902   5.826   1.182   5.256 -0.0779  0.0340  0.0385
10804TIP3    H153903   5.826   1.086   5.259 -0.3583  0.0069 -0.9190
10804TIP3    H253904   5.916   1.206   5.280  0.2031 -0.4940 -0.4665
10805TIP3   OH253905   5.890   1.276  13.565 -0.5179 -0.0294  0.5522
10805TIP3    H153906   5.914   1.228  13.644  1.0909 -2.1285 -1.1603
10805TIP3    H253907   5.947   1.241  13.497 -1.0705  2.5386 -1.3324
10806TIP3   OH253908   4.348   4.717  15.157 -0.4264  0.0697  0.0848
10806TIP3    H153909   4.362   4.649  15.222 -0.8300  0.1894  0.2981
10806TIP3    H253910   4.435   4.734  15.121 -0.4398 -1.1018 -0.5283
10807TIP3   OH253911   4.064   4.891   3.939  0.7203 -0.0721  0.6166
10807TIP3    H153912   4.066   4.796   3.929  0.1473 -0.0725  0.4933
10807TIP3    H253913   4.010   4.922   3.867 -0.2129  0.2322  1.4314
10808TIP3   OH253914   3.727   2.507  12.160 -0.2026  0.0834 -0.2564
10808TIP3    H153915   3.726   2.479  12.069 -1.0930  0.6505 -0.4348
10808TIP3    H253916   3.649   2.563  12.169  0.9909  1.6921  0.3217
10809TIP3   OH253917   0.656   6.814  13.063  0.7104 -0.5981 -0.4791
10809TIP3    H153918   0.677   6.900  13.098  0.2858 -0.7475  0.1690
10809TIP3    H253919   0.737   6.764  13.068  0.2710 -1.1444  1.9038
10810TIP3   OH253920   3.882   2.968   3.064  0.3098  0.2322 -0.0677
10810TIP3    H153921   3.910   2.957   2.973 -1.3115  0.5280 -0.6107
10810TIP3    H253922   3.878   3.063   3.077  0.6068  0.1910  0.3346
10811TIP3   OH253923   6.002   6.297  12.606 -0.3306 -0.2686  0.1559
10811TIP3    H153924   6.091   6.332  12.600 -0.8472  0.9447 -0.5599
10811TIP3    H253925   5.946   6.374  12.607 -1.3590 -1.0078  1.1514
10812TIP3   OH253926   1.830   3.995  13.384  0.1769  0.0804 -0.8541
10812TIP3    H153927   1.793   4.037  13.306 -0.9969 -2.3079 -1.6438
10812TIP3    H253928   1.768   4.015  13.454 -0.0004  0.2386 -1.0552
10813TIP3   OH253929   1.975   0.886  13.479 -0.5578 -0.1112 -0.2895
10813TIP3    H153930   1.914   0.960  13.475 -2.7059 -1.8403 -0.1919
10813TIP3    H253931   2.014   0.893  13.566 -0.7624  0.8789 -0.2674
10814TIP3   OH253932   4.450   6.207   5.779 -0.6784  0.3985  0.2311
10814TIP3    H153933   4.480   6.205   5.870 -0.1656  0.2607  0.0602
10814TIP3    H253934   4.363   6.166   5.782 -0.6610  0.3870  0.6573
10815TIP3   OH253935   2.427   5.983   4.769  0.3665  0.4914 -0.5287
10815TIP3    H153936   2.404   6.027   4.687  0.8855  0.2192 -0.8194
10815TIP3    H253937   2.512   6.021   4.794  0.6483 -0.0954 -0.5978
10816TIP3   OH253938   6.501   2.983  12.356  0.4944 -0.1059  0.0113
10816TIP3    H153939   6.497   3.078  12.371 -2.4908 -0.2628  0.3906
10816TIP3    H253940   6.520   2.975  12.262  0.1234  0.8781 -0.1604
10817TIP3   OH253941   4.376   5.850   0.073 -0.3650 -0.5409 -0.1872
10817TIP3    H153942   4.371   5.932   0.023 -1.6697  0.1347  1.0092
10817TIP3    H253943   4.311   5.860   0.142 -0.2383 -2.4313  0.2371
10818TIP3   OH253944   4.910   3.149  11.804 -0.0238 -0.6459 -0.0298
10818TIP3    H153945   4.981   3.094  11.771 -0.5019 -0.5425 -1.2734
10818TIP3    H253946   4.902   3.219  11.739 -1.5117 -0.8685 -0.1066
10819TIP3   OH253947   0.187   4.320  16.808 -0.0570  0.0054 -1.0397
10819TIP3    H153948   0.133   4.241  16.809  0.2237 -0.2526  2.9731
10819TIP3    H253949   0.276   4.287  16.814  0.1076  0.6004 -0.2342
10820TIP3   OH253950   3.624   1.566   1.626  0.9655  0.7453 -0.2128
10820TIP3    H153951   3.710   1.573   1.667  1.4259 -0.8183 -0.8704
10820TIP3    H253952   3.621   1.477   1.591 -0.8206  0.8673 -0.4243
10821TIP3   OH253953   3.551   6.562  16.867  0.5855  0.4171 -0.3360
10821TIP3    H153954   3.560   6.552  16.962  0.0690  0.2251 -0.3098
10821TIP3    H253955   3.536   6.474  16.834 -0.2113  0.6052 -0.4908
10822TIP3   OH253956   3.473   6.641  11.128 -0.0831 -0.3257  0.5236
10822TIP3    H153957   3.557   6.618  11.089 -0.3744 -0.5538  0.0332
10822TIP3    H253958   3.407   6.598  11.073 -0.5535  0.3549  0.5417
10823TIP3   OH253959   1.052   4.696   3.339 -0.4165 -0.1557 -0.0239
10823TIP3    H153960   1.116   4.651   3.284  1.6496  3.0791 -0.4689
10823TIP3    H253961   1.099   4.713   3.421 -1.2855  0.6557  0.3162
10824TIP3   OH253962   2.588   4.267   5.851  0.3537 -0.0863  0.2994
10824TIP3    H153963   2.610   4.199   5.916  0.6083 -0.3368 -0.0452
10824TIP3    H253964   2.508   4.235   5.810  1.1094 -0.7656 -0.6780
10825TIP3   OH253965   5.874   2.270  16.821 -0.2255  0.0708  0.7139
10825TIP3    H153966   5.829   2.282  16.905  1.8244 -0.1650  1.8718
10825TIP3    H253967   5.848   2.183  16.792  0.1816 -0.4301  1.8266
10826TIP3   OH253968   3.681   4.839  14.626  0.9851 -0.5150 -0.1255
10826TIP3    H153969   3.762   4.791  14.643 -0.2640 -2.4434  0.4433
10826TIP3    H253970   3.651   4.807  14.542  0.9372  0.4181 -0.4734
10827TIP3   OH253971   3.966   1.108   1.082 -0.6190 -0.2578 -0.3712
10827TIP3    H153972   4.015   1.038   1.040  0.9385 -0.2321  1.3245
10827TIP3    H253973   3.882   1.070   1.105  0.9873 -2.3014  2.5062
10828TIP3   OH253974   5.246   1.099  15.859  0.2118 -0.1481  0.1415
10828TIP3    H153975   5.325   1.128  15.905  0.5555  0.2371 -0.6953
10828TIP3    H253976   5.274   1.084  15.769 -0.4204 -1.0953  0.0932
10829TIP3   OH253977   2.365   3.153  16.007 -0.4942 -0.1116 -0.2772
10829TIP3    H153978   2.333   3.241  16.027 -0.5445 -0.2308  0.1664
10829TIP3    H253979   2.315   3.096  16.066 -0.8686 -0.4915 -0.9571
10830TIP3   OH253980   0.773   4.374  16.057  0.6927 -0.2917  0.3451
10830TIP3    H153981   0.680   4.397  16.049  0.7791 -0.0793 -0.0550
10830TIP3    H253982   0.782   4.293  16.007  0.6169 -0.5933  0.8200
10831TIP3   OH253983   6.199   2.353  12.692 -0.2441  0.2679 -0.1894
10831TIP3    H153984   6.185   2.444  12.719  0.6775  0.2815  0.2754
10831TIP3    H253985   6.230   2.309  12.771  1.4625  0.0656 -0.9417
10832TIP3   OH253986   0.326   6.445  13.649 -0.3612  0.1777 -0.1815
10832TIP3    H153987   0.361   6.385  13.582 -2.5614 -0.4510 -0.8148
10832TIP3    H253988   0.299   6.387  13.720 -0.0778  0.6711  0.3335
10833TIP3   OH253989   3.614   2.354   1.716  0.4668 -0.3423  0.3187
10833TIP3    H153990   3.566   2.437   1.707  0.8813 -0.1075  0.2391
10833TIP3    H253991   3.550   2.292   1.750 -0.1176 -0.2576 -0.6374
10834TIP3   OH253992   0.123   1.691   6.054  0.1429 -0.3702 -0.6839
10834TIP3    H153993   0.131   1.783   6.078 -2.2812  0.1131 -1.6323
10834TIP3    H253994   0.111   1.645   6.137 -0.3320  0.3698 -0.3408
10835TIP3   OH253995   1.101   3.024  11.030  0.4434  0.5093 -0.4570
10835TIP3    H153996   1.184   3.069  11.042  0.0761  1.5851 -1.7854
10835TIP3    H253997   1.038   3.095  11.012 -0.5679 -0.3649 -0.4022
10836TIP3   OH253998   3.428   5.576   2.529 -0.0470 -0.0870 -0.1977
10836TIP3    H153999   3.511   5.534   2.552 -0.5715 -0.9581  0.1242
10836TIP3    H254000   3.362   5.508   2.544 -0.9412  0.9549  0.6681
10837TIP3   OH254001   2.923   0.564  17.186  0.0137 -0.0441  0.0339
10837TIP3    H154002   2.872   0.580  17.266  0.0603  1.7925 -0.2860
10837TIP3    H254003   2.863   0.584  17.115  0.3952 -0.3687 -0.3821
10838TIP3   OH254004   2.446   3.695   4.875  0.0621  0.3999 -0.0952
10838TIP3    H154005   2.499   3.619   4.896 -0.0881  0.1523 -0.6147
10838TIP3    H254006   2.364   3.682   4.924  0.0956  0.3028 -0.0652
10839TIP3   OH254007   0.679   5.983  14.616  0.1150 -0.5988 -0.9267
10839TIP3    H154008   0.700   6.065  14.661  0.4516 -0.5693 -1.1330
10839TIP3    H254009   0.712   5.915  14.675  0.0579 -0.5757 -0.8690
10840TIP3   OH254010   1.366   4.240   0.490  0.4259  0.5154  0.3678
10840TIP3    H154011   1.409   4.326   0.491  2.0136 -0.2549 -0.2933
10840TIP3    H254012   1.432   4.180   0.523 -0.6087 -0.4964  0.6027
10841TIP3   OH254013   4.600   1.862   4.578 -0.1532 -0.5331  0.0868
10841TIP3    H154014   4.630   1.836   4.491  0.3336 -1.2438  0.4662
10841TIP3    H254015   4.596   1.781   4.628  2.5765  0.2476  1.6505
10842TIP3   OH254016   4.618   4.254   1.682  0.3808  0.5156  0.3958
10842TIP3    H154017   4.711   4.274   1.672  0.2844 -0.1535 -2.1278
10842TIP3    H254018   4.617   4.161   1.706  0.3227  0.0250 -1.4267
10843TIP3   OH254019   0.643   2.621  15.978 -0.2717  0.3411  0.1253
10843TIP3    H154020   0.664   2.535  16.013 -0.2755 -0.2781 -1.3527
10843TIP3    H254021   0.564   2.648  16.025 -0.5411 -0.6690  0.2563
10844TIP3   OH254022   5.757   5.144   6.730 -0.4150  0.4351 -0.1739
10844TIP3    H154023   5.789   5.233   6.713 -0.7444  0.6409  0.2852
10844TIP3    H254024   5.678   5.136   6.677 -0.6586  0.5910  0.1593
10845TIP3   OH254025   0.882   2.273   1.780  0.0496 -0.0981 -0.2683
10845TIP3    H154026   0.807   2.241   1.728  0.4553 -0.6918 -0.4975
10845TIP3    H254027   0.939   2.315   1.716 -1.3140  2.6856  0.2926
10846TIP3   OH254028   5.404   2.978   1.898  0.0156  0.0959  0.0404
10846TIP3    H154029   5.458   2.908   1.861 -0.1045 -0.1408  0.3045
10846TIP3    H254030   5.332   2.989   1.836  0.7803  0.9451 -0.7007
10847TIP3   OH254031   5.113   3.793   6.476 -0.0548 -0.2924  0.3588
10847TIP3    H154032   5.071   3.820   6.557 -2.2979 -0.4266 -0.6988
10847TIP3    H254033   5.143   3.704   6.493 -1.2724 -0.6330  0.7846
10848TIP3   OH254034   5.218   3.378   2.809  0.4019 -0.1988 -0.2715
10848TIP3    H154035   5.220   3.467   2.845  0.4392 -0.6148  0.7853
10848TIP3    H254036   5.309   3.347   2.816  0.6824  0.1864 -1.9668
10849TIP3   OH254037   4.181   5.421   0.946  0.6661  0.1359  0.4274
10849TIP3    H154038   4.114   5.417   0.878  0.3000  1.6944  0.6622
10849TIP3    H254039   4.172   5.509   0.983 -0.3086 -1.2360  3.6813
10850TIP3   OH254040   2.990   6.511  14.506 -0.0724  0.0850  0.5433
10850TIP3    H154041   2.994   6.434  14.448 -1.0614  0.5640 -0.1835
10850TIP3    H254042   2.953   6.580  14.451  1.1898  1.2058  1.0822
10851TIP3   OH254043   4.219   1.869  15.255 -0.3872  0.1675 -0.0338
10851TIP3    H154044   4.191   1.808  15.323  0.8387 -2.1361 -1.5641
10851TIP3    H254045   4.137   1.900  15.216 -0.9968 -1.0748  0.2499
10852TIP3   OH254046   0.719   0.507   3.659 -0.4397  0.1392  0.6411
10852TIP3    H154047   0.668   0.566   3.604 -0.5539  0.0860  0.6902
10852TIP3    H254048   0.808   0.543   3.657 -0.4789  0.2306  0.5549
10853TIP3   OH254049   1.802   5.508   1.881 -0.0364  0.7678  0.5483
10853TIP3    H154050   1.802   5.541   1.970 -0.1496 -1.1899  1.3078
10853TIP3    H254051   1.885   5.461   1.872 -0.2126  0.5902 -0.2418
10854TIP3   OH254052   6.462   1.459   3.591 -0.4023 -0.2154  0.4314
10854TIP3    H154053   6.523   1.385   3.585 -0.1185  0.0678 -0.3180
10854TIP3    H254054   6.401   1.435   3.660 -0.6043 -1.3796 -0.1373
10855TIP3   OH254055   3.568   3.377  15.449 -0.4241 -0.0041  0.5088
10855TIP3    H154056   3.634   3.393  15.382 -0.8293 -2.3910 -0.5142
10855TIP3    H254057   3.492   3.427  15.420  0.0356  0.5436  0.2340
10856TIP3   OH254058   1.132   5.213  16.400  0.5007 -0.2256 -0.2741
10856TIP3    H154059   1.165   5.167  16.476 -0.6612  0.2403  0.5198
10856TIP3    H254060   1.106   5.144  16.339 -1.9945 -0.7022  1.2250
10857TIP3   OH254061   4.733   5.104   3.929  0.1360 -0.7232 -1.0145
10857TIP3    H154062   4.806   5.069   3.980  0.8567  1.1845 -0.6856
10857TIP3    H254063   4.654   5.074   3.974  0.7053 -2.7696 -1.3554
10858TIP3   OH254064   2.490   2.747  15.420  0.1944  0.3221 -0.3841
10858TIP3    H154065   2.452   2.733  15.334 -0.2257 -0.2849 -0.1078
10858TIP3    H254066   2.420   2.788  15.471  1.1131  2.6614 -0.9140
10859TIP3   OH254067   1.618   0.129  14.486  0.6556 -0.1722 -0.1252
10859TIP3    H154068   1.593   0.063  14.422  0.6303  0.1678 -0.4663
10859TIP3    H254069   1.589   0.212  14.448  1.6973  0.1525 -0.2132
10860TIP3   OH254070   1.286   5.645  17.248  0.5056 -0.3231  0.2651
10860TIP3    H154071   1.207   5.696  17.229 -1.2885 -2.1777  2.4008
10860TIP3    H254072   1.301   5.594  17.169  1.0300  1.8140 -1.0642
10861TIP3   OH254073   0.298   0.358  15.599 -0.1791 -0.3823 -0.6672
10861TIP3    H154074   0.383   0.402  15.599 -0.3964  0.0425  0.0497
10861TIP3    H254075   0.319   0.265  15.591  0.3115 -0.2129 -1.4357
10862TIP3   OH254076   3.365   2.846  14.360  0.0262  0.4495 -0.0354
10862TIP3    H154077   3.298   2.898  14.404 -0.4056 -0.3591  0.2790
10862TIP3    H254078   3.424   2.910  14.320  0.5538  1.1871  1.9032
10863TIP3   OH254079   1.898   4.120  13.870 -0.4911 -0.2481  0.1159
10863TIP3    H154080   1.915   4.027  13.859 -0.9818 -0.3470  0.2254
10863TIP3    H254081   1.962   4.149  13.935 -0.3929 -0.5209  0.1388
10864TIP3   OH254082   4.457   3.814  13.654 -0.1642 -0.0231  0.4746
10864TIP3    H154083   4.455   3.815  13.558 -1.9930  0.1709  0.5037
10864TIP3    H254084   4.369   3.839  13.680  0.3889  0.1359  2.2220
10865TIP3   OH254085   1.353   2.739  15.060  0.0071 -0.1651 -0.3550
10865TIP3    H154086   1.290   2.811  15.063  0.6488  0.3604  1.0533
10865TIP3    H254087   1.399   2.751  14.977 -1.2167 -0.0930 -1.0230
10866TIP3   OH254088   2.435   2.666  16.367 -0.6837  0.4191  0.3692
10866TIP3    H154089   2.474   2.625  16.290  2.6536 -0.4048  2.3847
10866TIP3    H254090   2.454   2.759  16.356 -1.7927  0.5391 -0.6339
10867TIP3   OH254091   3.954   0.921   2.966 -0.4966  0.1199 -0.0483
10867TIP3    H154092   4.005   0.863   2.910  0.0143 -0.5424  1.0752
10867TIP3    H254093   4.009   0.998   2.977 -0.4398  0.0961 -0.1680
10868TIP3   OH254094   1.742   0.270  11.610 -0.4355 -0.1553  0.0886
10868TIP3    H154095   1.650   0.261  11.583 -0.5093 -1.0559  0.5977
10868TIP3    H254096   1.781   0.185  11.589  0.2819  0.2228 -0.1172
10869TIP3   OH254097   1.033   2.320   2.503 -0.1700  0.6687  0.3826
10869TIP3    H154098   0.963   2.314   2.438  0.2140  0.4029 -0.0055
10869TIP3    H254099   1.022   2.242   2.557 -0.1929  0.6463  0.3452
10870TIP3   OH254100   5.850   5.665  14.869  0.5455  0.3199  0.3830
10870TIP3    H154101   5.783   5.649  14.802  2.1723  2.9689 -1.9990
10870TIP3    H254102   5.909   5.590  14.863 -1.2399 -1.1737  1.2997
10871TIP3   OH254103   3.485   3.540   4.865  0.2047  0.6095 -0.7089
10871TIP3    H154104   3.441   3.531   4.781  2.1018  2.8411 -1.9796
10871TIP3    H254105   3.418   3.578   4.923 -1.2140 -1.2767 -1.0822
10872TIP3   OH254106   1.727   5.442   3.843 -0.1185  0.5319  0.3793
10872TIP3    H154107   1.800   5.384   3.863 -0.7518  0.4676  2.7175
10872TIP3    H254108   1.741   5.517   3.901 -1.0833  1.2158 -0.2619
10873TIP3   OH254109   0.560   6.648   3.042  0.1049 -0.3004  0.1139
10873TIP3    H154110   0.538   6.702   2.966 -3.8315 -1.3750  0.4045
10873TIP3    H254111   0.500   6.574   3.038  1.4933 -1.6787  2.9394
10874TIP3   OH254112   2.800   1.183  16.163 -0.3838 -0.0103  0.3269
10874TIP3    H154113   2.837   1.261  16.121  0.2966 -0.8460 -0.6575
10874TIP3    H254114   2.756   1.216  16.241  1.5561  1.1433  0.9666
10875TIP3   OH254115   5.044   6.703  15.597 -0.3959 -0.1850  0.0328
10875TIP3    H154116   5.007   6.784  15.632 -2.0377 -0.8052 -0.2304
10875TIP3    H254117   5.088   6.663  15.673  0.7001  1.0748  0.0910
10876TIP3   OH254118   4.984   5.304   5.443 -0.2267  0.0197 -1.4237
10876TIP3    H154119   5.010   5.213   5.452  1.3348  0.3718 -2.1889
10876TIP3    H254120   5.056   5.354   5.482 -1.7423  0.8959  0.3416
10877TIP3   OH254121   6.306   4.785  16.582  0.0101 -0.1398 -0.4477
10877TIP3    H154122   6.300   4.849  16.510  0.5041  0.1475 -0.2342
10877TIP3    H254123   6.314   4.839  16.661  3.0779 -0.4704 -0.4869
10878TIP3   OH254124   5.599   5.600   2.693  0.0835 -0.0328 -0.7076
10878TIP3    H154125   5.580   5.638   2.607  0.0604 -0.4733 -0.8996
10878TIP3    H254126   5.688   5.566   2.685  0.1846  0.1736 -0.4676
10879TIP3   OH254127   2.950   0.291  15.999 -0.0330  0.0490  0.0153
10879TIP3    H154128   2.945   0.308  16.093  0.0307 -1.9408  0.3960
10879TIP3    H254129   2.873   0.334  15.963 -0.0084  0.9195  0.9542
10880TIP3   OH254130   0.504   2.297  12.605 -0.2903 -0.3238 -0.3192
10880TIP3    H154131   0.542   2.314  12.691  0.4843 -0.0457 -0.7122
10880TIP3    H254132   0.579   2.283  12.548 -0.7889 -0.1666 -1.0226
10881TIP3   OH254133   5.500   2.649   4.299 -0.6802  0.4289  0.4021
10881TIP3    H154134   5.457   2.734   4.287  0.3012  1.0891  1.4520
10881TIP3    H254135   5.468   2.617   4.383 -2.4838 -1.1263 -0.8434
10882TIP3   OH254136   0.520   5.570   2.903 -0.0548  0.8714 -0.6036
10882TIP3    H154137   0.585   5.616   2.849  1.3604 -0.3576 -0.0058
10882TIP3    H254138   0.573   5.517   2.963 -1.6052 -1.1127 -0.9350
10883TIP3   OH254139   3.641   2.443   4.862  0.4943 -0.0963 -0.2444
10883TIP3    H154140   3.706   2.375   4.879  0.1020 -0.6723 -0.9719
10883TIP3    H254141   3.639   2.496   4.941  0.4951 -1.2074  0.5124
10884TIP3   OH254142   5.647   2.061  15.603 -0.4690  0.1212  0.2111
10884TIP3    H154143   5.558   2.058  15.570  0.8124 -0.8575 -3.4767
10884TIP3    H254144   5.690   1.986  15.562  1.8826  0.1051  2.5212
10885TIP3   OH254145   6.005   2.197   5.466  0.2406 -0.6136 -0.2013
10885TIP3    H154146   5.916   2.233   5.463  0.7875  0.7084 -3.1360
10885TIP3    H254147   6.061   2.273   5.478  1.1350 -1.0289 -1.5768
10886TIP3   OH254148   1.466   3.829  14.756  0.4350  0.2235  0.1789
10886TIP3    H154149   1.443   3.807  14.666 -0.8522 -1.7763  0.9499
10886TIP3    H254150   1.383   3.858  14.795  1.2691  2.5199  0.3563
10887TIP3   OH254151   1.794   5.220   4.299  1.1888 -0.1803  0.1704
10887TIP3    H154152   1.728   5.193   4.362  1.3339 -0.3728  0.2409
10887TIP3    H254153   1.781   5.162   4.224 -0.0538  1.1246 -0.6507
10888TIP3   OH254154   4.679   2.351  14.331  0.1988 -0.0688  0.5367
10888TIP3    H154155   4.633   2.373  14.250  0.6230  0.5168  0.4494
10888TIP3    H254156   4.656   2.259  14.348 -0.6846  0.1043  0.2927
10889TIP3   OH254157   6.578   3.905   4.792 -0.1413 -0.2154 -0.1287
10889TIP3    H154158   6.523   3.828   4.778  0.1725 -0.2345 -1.3494
10889TIP3    H254159   6.536   3.975   4.743  1.8765 -0.6891 -2.6855
10890TIP3   OH254160   4.609   2.530  14.113  0.1605  0.2199  0.6968
10890TIP3    H154161   4.620   2.533  14.018 -0.2144  1.8630  0.6928
10890TIP3    H254162   4.695   2.551  14.149 -0.6455  3.8321  0.6836
10891TIP3   OH254163   4.000   0.138   2.211 -0.1388 -0.3136  0.2149
10891TIP3    H154164   4.027   0.122   2.121  0.6333 -0.9317  0.5471
10891TIP3    H254165   4.082   0.135   2.261 -0.6066 -0.3662  0.9847
10892TIP3   OH254166   1.900   2.010   0.230 -0.0153 -0.7493  0.0899
10892TIP3    H154167   1.934   2.039   0.146 -1.8345 -1.8657 -1.0764
10892TIP3    H254168   1.968   1.954   0.266  0.9621  0.0946 -0.4397
10893TIP3   OH254169   4.396   1.241  13.156  0.3044 -0.0550 -0.5231
10893TIP3    H154170   4.489   1.244  13.178  0.4412 -1.1132 -0.9332
10893TIP3    H254171   4.354   1.203  13.233  0.2197  0.3371 -0.3747
10894TIP3   OH254172   5.118   6.485  15.789  0.1237  0.2702  0.2718
10894TIP3    H154173   5.045   6.466  15.730 -0.1129 -2.2678  1.2895
10894TIP3    H254174   5.193   6.442  15.748 -0.0038 -1.3448  1.6868
10895TIP3   OH254175   3.779   6.341   0.758 -0.4079  0.6807  0.1208
10895TIP3    H154176   3.741   6.428   0.743  0.6578  1.1450  0.0793
10895TIP3    H254177   3.766   6.325   0.851 -1.3118  0.5453 -0.0265
10896TIP3   OH254178   5.772   6.366  16.889 -0.0396  0.4683 -0.0083
10896TIP3    H154179   5.719   6.442  16.865 -0.1873  0.1192 -0.8045
10896TIP3    H254180   5.712   6.292  16.888  0.2053  0.2637  0.2705
10897TIP3   OH254181   4.244   2.676   1.870  0.2642  0.0056 -0.2580
10897TIP3    H154182   4.166   2.716   1.908  2.1609  1.2267  2.4863
10897TIP3    H254183   4.298   2.749   1.842  2.1847 -0.6660  1.5561
10898TIP3   OH254184   4.695   4.536   4.166 -1.0090  0.0355 -0.5283
10898TIP3    H154185   4.705   4.630   4.182  0.7743 -0.2630  0.2583
10898TIP3    H254186   4.784   4.501   4.173 -1.6468 -1.7052 -0.8517
10899TIP3   OH254187   0.795   2.409   6.496 -0.3349  0.6202 -0.2264
10899TIP3    H154188   0.841   2.369   6.422 -1.3801  1.4490 -1.3263
10899TIP3    H254189   0.743   2.338   6.533  1.1907 -0.1331  0.5523
10900TIP3   OH254190   4.266   6.379   5.630 -0.2640 -0.3061 -0.2568
10900TIP3    H154191   4.229   6.323   5.561  0.4708  0.5718 -1.3821
10900TIP3    H254192   4.196   6.441   5.651 -0.0226  0.3213 -1.2350
10901TIP3   OH254193   0.160   5.700  12.704  0.2129 -0.0229 -0.1122
10901TIP3    H154194   0.208   5.679  12.784 -1.2383 -0.0848  0.7434
10901TIP3    H254195   0.227   5.695  12.635  1.3639 -0.4774  1.0103
10902TIP3   OH254196   5.391   6.112  15.691  0.3825  0.0907  0.0679
10902TIP3    H154197   5.460   6.065  15.644 -0.4284 -0.4636 -0.5705
10902TIP3    H254198   5.413   6.099  15.783 -1.5314 -4.2154  0.0219
10903TIP3   OH254199   5.195   2.501  16.576  0.4626 -0.4457  0.6982
10903TIP3    H154200   5.280   2.471  16.544  0.8606  1.3509  0.0303
10903TIP3    H254201   5.131   2.449  16.526  1.1248  0.0790 -0.7166
10904TIP3   OH254202   2.561   5.158  13.867 -0.1157  0.4379  0.1782
10904TIP3    H154203   2.572   5.077  13.917  0.9287  0.9033  0.7282
10904TIP3    H254204   2.647   5.200  13.871 -0.8785  1.9763  0.6173
10905TIP3   OH254205   6.456   2.221  16.000  0.5283 -0.1004  0.1189
10905TIP3    H154206   6.455   2.131  15.965 -1.9152  0.6037 -1.8025
10905TIP3    H254207   6.379   2.224  16.057  2.2330 -0.0291  2.4829
10906TIP3   OH254208   0.715   6.173  15.560  0.0727  0.7147  0.0310
10906TIP3    H154209   0.645   6.230  15.591  1.0430  1.2782  1.2135
10906TIP3    H254210   0.754   6.136  15.639  1.5305  0.9026 -0.5799
10907TIP3   OH254211   0.392   0.087  13.439 -0.2904  0.4464  0.0711
10907TIP3    H154212   0.409   0.159  13.499  0.6551  0.8884 -0.7092
10907TIP3    H254213   0.383   0.010  13.495  2.6246  0.4774  0.6525
10908TIP3   OH254214   2.777   4.827   3.589 -0.1872  0.2514 -0.4290
10908TIP3    H154215   2.836   4.759   3.623  0.9093  0.9419 -0.9342
10908TIP3    H254216   2.744   4.791   3.506 -1.3882 -0.6226  0.4025
10909TIP3   OH254217   2.579   1.966  16.259  0.6452  0.1916  0.1905
10909TIP3    H154218   2.580   1.921  16.344 -2.0119 -2.5720 -1.1424
10909TIP3    H254219   2.661   1.939  16.217  0.2112 -1.4861  0.3920
10910TIP3   OH254220   0.027   1.697  15.887 -0.2551  0.1606  0.0781
10910TIP3    H154221  -0.031   1.722  15.959  0.3954  1.9765 -0.0079
10910TIP3    H254222   0.056   1.780  15.850  1.4838 -0.7375 -0.6155
10911TIP3   OH254223   4.642   5.917   2.052  0.7714 -0.6055  0.1934
10911TIP3    H154224   4.565   5.971   2.067  0.7056 -1.2075  2.2809
10911TIP3    H254225   4.621   5.866   1.974 -0.3898  0.1867 -0.0296
10912TIP3   OH254226   1.759   0.527   0.329 -0.3905  0.2446 -0.0484
10912TIP3    H154227   1.744   0.482   0.246  3.4807  0.4947 -1.0073
10912TIP3    H254228   1.766   0.619   0.305 -1.8317  0.6240  0.9585
10913TIP3   OH254229   1.359   4.559   2.098 -0.8555 -0.0027 -0.0585
10913TIP3    H154230   1.277   4.607   2.112 -0.8061  0.1845 -0.3879
10913TIP3    H254231   1.331   4.475   2.062 -0.9252 -0.0841  0.1898
10914TIP3   OH254232   6.270   2.147  13.917  0.1197 -0.3030  0.2716
10914TIP3    H154233   6.218   2.068  13.908  0.7473 -0.9921  2.3028
10914TIP3    H254234   6.361   2.117  13.914  0.3658  0.3264  1.0110
10915TIP3   OH254235   5.196   6.154   0.760 -0.5506 -0.4717 -0.2156
10915TIP3    H154236   5.252   6.188   0.691  0.4028  0.1794  0.8666
10915TIP3    H254237   5.121   6.214   0.762 -0.5251 -0.4259 -0.6008
10916TIP3   OH254238   6.813   3.647  11.354 -0.4985  0.5477 -0.0067
10916TIP3    H154239   6.854   3.680  11.435  2.4850 -2.3280 -0.2192
10916TIP3    H254240   6.869   3.681  11.284 -0.4544 -0.5700 -0.5314
10917TIP3   OH254241   6.338   3.908   1.978 -0.0491 -0.9085 -0.3294
10917TIP3    H154242   6.433   3.900   1.969 -0.0712 -2.2895  0.4514
10917TIP3    H254243   6.305   3.819   1.963 -1.0583 -0.7922  1.0535
10918TIP3   OH254244   2.728   0.404  11.086 -0.1263 -0.1345  0.0635
10918TIP3    H154245   2.688   0.458  11.017  1.2424  0.5534 -0.2108
10918TIP3    H254246   2.763   0.328  11.040  0.9998  0.4408 -0.0587
10919TIP3   OH254247   4.621   2.519   2.052 -0.2820  0.4164  0.3198
10919TIP3    H154248   4.536   2.515   2.008  0.1812 -0.8972 -0.4687
10919TIP3    H254249   4.640   2.613   2.058 -1.7937  0.7314  0.5306
10920TIP3   OH254250   3.435   6.218   1.051  0.0316 -0.8724 -0.4072
10920TIP3    H154251   3.444   6.169   1.133 -1.6134  0.9195  0.8902
10920TIP3    H254252   3.503   6.286   1.057 -0.0970 -0.7349 -0.5135
10921TIP3   OH254253   2.396   2.905  13.815 -0.0195 -0.6302  0.5237
10921TIP3    H154254   2.416   2.812  13.815 -0.3564 -0.7020  0.0336
10921TIP3    H254255   2.409   2.932  13.906  0.1349 -1.1402  0.6532
10922TIP3   OH254256   3.817   0.111  13.361 -0.1952  0.8581 -0.0736
10922TIP3    H154257   3.910   0.130  13.346 -0.8011  3.4403 -0.6782
10922TIP3    H254258   3.787   0.182  13.417 -1.3033 -1.2163  2.0744
10923TIP3   OH254259   0.213   3.871   2.897 -0.1695  0.0786 -0.0789
10923TIP3    H154260   0.135   3.821   2.919 -0.9917  1.3093 -0.1586
10923TIP3    H254261   0.286   3.813   2.920 -1.0827 -0.7269  0.8314
10924TIP3   OH254262   2.759   5.716   0.431 -0.7816  0.3814 -0.1692
10924TIP3    H154263   2.725   5.638   0.386  0.6263 -0.5132  0.2830
10924TIP3    H254264   2.699   5.729   0.505 -1.2728 -0.0120 -0.4913
10925TIP3   OH254265   1.786   3.187  14.028 -0.2123 -0.2546  0.5323
10925TIP3    H154266   1.799   3.093  14.015  1.1984 -0.0941  0.7135
10925TIP3    H254267   1.795   3.225  13.941  1.5993 -0.0266  0.8128
10926TIP3   OH254268   1.735   1.938   6.429 -0.5140 -0.1077 -0.4808
10926TIP3    H154269   1.819   1.892   6.421 -0.2777  0.3790 -0.7830
10926TIP3    H254270   1.754   2.028   6.403 -0.9845  0.1600  0.1138
10927TIP3   OH254271   0.981   6.759   6.338  0.2654  0.1267  0.3965
10927TIP3    H154272   0.970   6.665   6.325 -0.7404  0.3469 -0.3688
10927TIP3    H254273   0.893   6.795   6.336  0.6711  1.1440  0.2796
10928TIP3   OH254274   4.764   5.005   1.207  0.4581 -0.1440 -0.6090
10928TIP3    H154275   4.675   4.997   1.240  1.5943  1.8271  3.2209
10928TIP3    H254276   4.803   4.919   1.222  0.1617 -0.0470  0.7444
10929TIP3   OH254277   1.181   4.053  16.962  0.2314 -0.2974  0.9890
10929TIP3    H154278   1.123   3.993  16.915 -0.9251  1.6149 -0.0865
10929TIP3    H254279   1.126   4.094  17.027  0.3529  1.5062 -0.0122
10930TIP3   OH254280   0.097   2.728   3.395 -0.1069 -0.2359 -0.5041
10930TIP3    H154281   0.161   2.731   3.324 -0.5192 -0.1386 -0.8683
10930TIP3    H254282   0.138   2.671   3.461  1.2919  1.5210  0.1886
10931TIP3   OH254283   3.500   4.783  13.905  0.6695 -0.5215 -0.4118
10931TIP3    H154284   3.428   4.846  13.902 -0.8108 -2.0960  1.2489
10931TIP3    H254285   3.530   4.776  13.814  0.4105  2.0348 -0.7245
10932TIP3   OH254286   6.034   3.908   6.405 -0.1943 -0.7243 -0.2573
10932TIP3    H154287   6.060   3.917   6.497  0.2493 -1.3361 -0.3224
10932TIP3    H254288   5.964   3.973   6.394 -1.2077 -1.5835  0.8861
10933TIP3   OH254289   4.125   5.284   3.828  0.6063 -0.0323 -0.2225
10933TIP3    H154290   4.125   5.380   3.823  2.1383  0.0121  0.1957
10933TIP3    H254291   4.063   5.263   3.897 -0.1880  0.6189 -0.7176
10934TIP3   OH254292   0.095   0.699  11.947 -0.1769  0.3303  0.6223
10934TIP3    H154293   0.027   0.741  12.000 -0.5147 -1.3026  1.5143
10934TIP3    H254294   0.076   0.605  11.953 -0.9043  0.1479 -3.3545
10935TIP3   OH254295   4.674   4.802   5.380 -0.5929  0.6270 -0.0819
10935TIP3    H154296   4.603   4.863   5.359 -0.5175  1.3591  1.7230
10935TIP3    H254297   4.652   4.722   5.332 -3.2216  0.4726  1.2816
10936TIP3   OH254298   5.010   1.254   2.278  0.4666 -0.4633  0.2187
10936TIP3    H154299   4.927   1.295   2.300  0.3938 -0.6795  0.3524
10936TIP3    H254300   5.041   1.217   2.361  1.1417  0.4093  0.3584
10937TIP3   OH254301   4.761   4.565   5.161  0.0330 -0.0145 -0.1989
10937TIP3    H154302   4.838   4.579   5.216 -0.3200  0.8579  0.0814
10937TIP3    H254303   4.788   4.592   5.074 -0.3863  1.7031  0.1754
10938TIP3   OH254304   0.547   4.525   1.842 -0.6359  1.0640 -0.3116
10938TIP3    H154305   0.557   4.563   1.755 -0.2102  1.3103 -0.1574
10938TIP3    H254306   0.487   4.584   1.888 -1.9446  0.1952 -0.8734
10939TIP3   OH254307   5.668   5.264   5.882  0.1449 -1.1661 -0.4661
10939TIP3    H154308   5.715   5.253   5.965 -0.5622 -0.9447 -0.0330
10939TIP3    H254309   5.577   5.247   5.903 -0.4608  1.6592 -0.5619
10940TIP3   OH254310   0.126   1.018  14.422 -0.3457 -0.1732  0.0608
10940TIP3    H154311   0.167   1.066  14.494 -0.2860 -1.0423  0.6186
10940TIP3    H254312   0.198   0.968  14.383 -0.8723 -1.8145  1.1326
10941TIP3   OH254313   4.707   4.172  11.965 -0.1286 -0.1392 -0.3022
10941TIP3    H154314   4.664   4.087  11.954 -0.9756  0.3705 -1.0524
10941TIP3    H254315   4.671   4.206  12.046 -0.2662 -0.2233 -0.3272
10942TIP3   OH254316   3.467   3.015   4.110 -0.0026 -0.0928 -0.5110
10942TIP3    H154317   3.537   2.952   4.095  0.6681  0.6152 -0.4104
10942TIP3    H254318   3.500   3.097   4.072 -1.2610 -0.0335 -1.5288
10943TIP3   OH254319   4.596   1.150  16.974 -0.1809 -0.1313 -0.2426
10943TIP3    H154320   4.538   1.097  17.029  0.7411  0.2434  1.1063
10943TIP3    H254321   4.586   1.239  17.008  0.2523  0.1369 -0.8130
10944TIP3   OH254322   3.855   3.008   2.145 -0.0333 -0.2810  0.1453
10944TIP3    H154323   3.780   2.990   2.088 -0.2173 -1.5510  0.7797
10944TIP3    H254324   3.902   3.078   2.100  0.2134 -1.7469 -1.9527
10945TIP3   OH254325   6.360   0.728  16.365 -0.5596 -0.0299 -0.4330
10945TIP3    H154326   6.329   0.687  16.446 -1.9397  2.3234  0.2556
10945TIP3    H254327   6.281   0.737  16.311 -0.0557  0.6150 -1.0730
10946TIP3   OH254328   3.206   4.923  16.005 -0.2382  0.0129  0.1864
10946TIP3    H154329   3.122   4.889  16.036  0.5699  0.1939  2.6018
10946TIP3    H254330   3.220   4.878  15.921 -3.1793  0.7060 -0.7499
10947TIP3   OH254331   3.717   0.124   2.158 -0.4674  0.4371 -0.1836
10947TIP3    H154332   3.691   0.046   2.206  0.4941  0.4632  0.4004
10947TIP3    H254333   3.806   0.143   2.189 -0.8801  2.0597  0.0784
10948TIP3   OH254334   1.617   4.109  16.108 -0.5793 -0.1884 -0.1971
10948TIP3    H154335   1.618   4.032  16.051  0.6353 -0.0209 -0.4006
10948TIP3    H254336   1.641   4.075  16.194 -0.8149 -0.1679 -0.1231
10949TIP3   OH254337   0.276   6.372   2.923 -0.1702 -0.0276  0.2855
10949TIP3    H154338   0.344   6.307   2.907  0.2742  0.3319  0.6954
10949TIP3    H254339   0.229   6.378   2.839  0.5249 -0.0170 -0.1101
10950TIP3   OH254340   0.102   4.193  13.683  0.0100  0.0028 -0.0987
10950TIP3    H154341   0.063   4.277  13.658 -1.8366 -1.1218 -1.0987
10950TIP3    H254342   0.147   4.163  13.603  1.2485  0.3329  0.4564
10951TIP3   OH254343   0.812   4.051   2.032 -0.2154 -0.6953 -0.5856
10951TIP3    H154344   0.737   4.007   1.991  0.1646 -1.1017 -0.8500
10951TIP3    H254345   0.876   4.060   1.961  0.1040 -0.6189 -0.2883
10952TIP3   OH254346   3.728   4.139   2.009  0.1455  0.2559 -0.3501
10952TIP3    H154347   3.748   4.066   2.067  0.8678 -0.3338 -1.3279
10952TIP3    H254348   3.724   4.100   1.922 -0.7859  1.1549 -0.7253
10953TIP3   OH254349   5.753   2.153   0.697 -0.0741  0.4155 -0.5923
10953TIP3    H154350   5.729   2.244   0.711  0.6066  0.4560  0.3198
10953TIP3    H254351   5.766   2.146   0.602  0.7004  1.4698 -0.5709
10954TIP3   OH254352   1.845   1.963   0.918 -0.7099 -0.0955 -0.1052
10954TIP3    H154353   1.755   1.994   0.908 -0.7075  0.1560  0.6430
10954TIP3    H254354   1.858   1.904   0.843 -1.6790 -0.5676  0.0925
10955TIP3   OH254355   2.621   3.228   1.945  0.2102  0.0631  0.0377
10955TIP3    H154356   2.656   3.292   1.883  1.6845 -1.2895 -0.5457
10955TIP3    H254357   2.652   3.258   2.031 -0.0919  0.7795 -0.1005
10956TIP3   OH254358   0.387   0.832  12.980 -0.0730  0.2289  0.4318
10956TIP3    H154359   0.468   0.833  13.031  1.1281  3.3242 -1.3891
10956TIP3    H254360   0.328   0.892  13.027  0.0504  0.8907 -0.2340
10957TIP3   OH254361   1.756   2.747  10.451  0.1854  0.6200 -0.1540
10957TIP3    H154362   1.838   2.780  10.414 -0.1254  0.3782 -1.0754
10957TIP3    H254363   1.726   2.681  10.388 -1.4170  1.6792 -0.5437
10958TIP3   OH254364   4.128   3.678   1.115  0.3881 -0.0077 -0.0651
10958TIP3    H154365   4.046   3.689   1.067 -0.6465 -1.9277  1.1676
10958TIP3    H254366   4.160   3.767   1.129 -0.0422  0.6517 -2.9541
10959TIP3   OH254367   1.492   3.090  14.766 -0.0833 -0.1010 -0.3367
10959TIP3    H154368   1.509   2.998  14.787 -0.6507 -0.5224 -1.6759
10959TIP3    H254369   1.443   3.123  14.841 -1.5418 -1.4114 -0.6877
10960TIP3   OH254370   3.974   5.992  14.072  0.3537 -0.4023  0.3576
10960TIP3    H154371   3.952   6.061  14.009 -0.2956 -1.5283 -0.6782
10960TIP3    H254372   3.890   5.965  14.109  0.4447 -1.5789 -0.2648
10961TIP3   OH254373   1.531   4.341   5.997  0.8162 -0.1944 -0.2978
10961TIP3    H154374   1.611   4.362   6.044 -0.0619  2.4839  0.0896
10961TIP3    H254375   1.483   4.283   6.056  2.3587 -1.6232 -0.4381
10962TIP3   OH254376   1.589   0.233   1.684  0.0336 -0.3678 -0.5619
10962TIP3    H154377   1.573   0.178   1.607  1.2146  0.0315 -1.0957
10962TIP3    H254378   1.582   0.323   1.651  0.1363 -0.1948 -0.1179
10963TIP3   OH254379   2.723   0.384  15.897  0.2487  0.1198  0.7070
10963TIP3    H154380   2.693   0.433  15.973  0.7123 -0.1624  1.0754
10963TIP3    H254381   2.722   0.448  15.826 -0.4094  0.3238  0.8963
10964TIP3   OH254382   6.298   1.818  15.973  0.1204 -0.1839 -0.3304
10964TIP3    H154383   6.335   1.852  16.055 -0.0452 -1.3484  0.2282
10964TIP3    H254384   6.307   1.891  15.912 -1.9671  1.5754  1.3657
10965TIP3   OH254385   6.544   6.211  10.680  0.5256 -0.0178  0.3129
10965TIP3    H154386   6.500   6.296  10.681 -0.1812 -0.3859  2.0549
10965TIP3    H254387   6.636   6.232  10.697  0.3814  0.4173  0.5732
10966TIP3   OH254388   1.571   5.763   3.664  0.3648  0.1299 -0.7899
10966TIP3    H154389   1.488   5.749   3.619  1.0964 -1.3899 -1.6849
10966TIP3    H254390   1.546   5.776   3.756 -0.8344 -0.7202 -0.9876
10967TIP3   OH254391   4.770   1.667   3.608  0.2761  0.2170 -0.0096
10967TIP3    H154392   4.722   1.694   3.531 -0.7172  1.2293  0.9497
10967TIP3    H254393   4.859   1.651   3.577 -0.3990 -0.5837 -1.5797
10968TIP3   OH254394   4.157   2.070   3.114 -0.1538  0.9305  0.8103
10968TIP3    H154395   4.162   1.989   3.165  2.2921  0.6374  0.1669
10968TIP3    H254396   4.102   2.128   3.167 -1.1476 -0.7999  1.7301
10969TIP3   OH254397   4.959   6.519  17.219  0.5922 -0.5319  0.0106
10969TIP3    H154398   4.999   6.527  17.306  0.9503 -1.1499 -0.0931
10969TIP3    H254399   4.872   6.557  17.229  0.6928 -0.4448  0.5963
10970TIP3   OH254400   5.594   2.107  11.060 -0.3031  0.1404 -0.0787
10970TIP3    H154401   5.658   2.036  11.068 -0.2102  0.0817 -1.2167
10970TIP3    H254402   5.519   2.076  11.111  0.3188 -0.0785  0.7239
10971TIP3   OH254403   1.817   0.149   6.550 -0.6724  0.9576 -0.2225
10971TIP3    H154404   1.831   0.111   6.637  0.0073 -0.2140 -0.8432
10971TIP3    H254405   1.728   0.183   6.554 -0.0965  2.3693  1.4772
10972TIP3   OH254406   4.265   2.478  13.979 -0.9087 -0.5561 -0.2963
10972TIP3    H154407   4.229   2.448  14.063  1.7528 -1.4171  0.5836
10972TIP3    H254408   4.277   2.572  13.991 -2.3308 -0.3377 -0.4321
10973TIP3   OH254409   4.859   5.226  12.171 -0.7064 -0.2217 -0.1894
10973TIP3    H154410   4.888   5.169  12.099 -0.2781  0.0510 -0.2303
10973TIP3    H254411   4.854   5.313  12.132  2.8870  0.5687  0.9633
10974TIP3   OH254412   0.328   2.057  11.503 -0.0024 -0.3067  0.2029
10974TIP3    H154413   0.372   2.132  11.542 -0.6315  0.2546 -0.1629
10974TIP3    H254414   0.323   1.993  11.574  1.4446 -0.3981  0.2259
10975TIP3   OH254415   0.426   3.771   4.023  0.3087 -0.1521 -0.1235
10975TIP3    H154416   0.363   3.701   4.007  1.1536 -0.8557 -0.3866
10975TIP3    H254417   0.407   3.799   4.112 -1.6011  0.9075 -0.8360
10976TIP3   OH254418   1.301   5.070   4.317  0.0033  0.2315  0.9064
10976TIP3    H154419   1.258   5.018   4.385  0.4837  2.4902  3.0037
10976TIP3    H254420   1.395   5.064   4.337  0.0873  1.6488  1.0213
10977TIP3   OH254421   5.910   4.543   5.507  0.7500 -0.6962  0.6569
10977TIP3    H154422   5.996   4.558   5.467  0.2371  0.9495  0.1484
10977TIP3    H254423   5.925   4.553   5.601  0.7031  1.7003  0.4320
10978TIP3   OH254424   5.843   0.042   2.051  0.1332 -0.1946  0.2527
10978TIP3    H154425   5.807  -0.030   1.998 -0.5808  0.3094  0.0553
10978TIP3    H254426   5.930   0.058   2.013  1.2312 -2.4081  1.6625
10979TIP3   OH254427   1.928   3.779   2.084 -0.7979 -0.7493  0.2009
10979TIP3    H154428   1.943   3.763   2.177 -0.2363  0.0640  0.2499
10979TIP3    H254429   1.858   3.845   2.082  0.3674  0.4993  0.0795
10980TIP3   OH254430   5.979   2.977  16.005  0.0247  0.2851  0.3232
10980TIP3    H154431   6.033   2.903  16.035 -0.2151 -0.2199 -0.4792
10980TIP3    H254432   5.934   2.944  15.928  2.2598  2.2566 -1.9053
10981TIP3   OH254433   5.393   4.351   3.746  0.1681  0.0310 -0.1633
10981TIP3    H154434   5.383   4.395   3.662 -1.1026 -1.2676 -0.7126
10981TIP3    H254435   5.376   4.259   3.727 -1.5639 -0.0740  1.7796
10982TIP3   OH254436   0.798   1.760  13.678  0.2428 -0.7082 -0.3492
10982TIP3    H154437   0.858   1.799  13.741 -0.8130 -0.6662  0.6404
10982TIP3    H254438   0.729   1.720  13.731 -1.5321  0.7307 -1.4980
10983TIP3   OH254439   6.737   5.402  12.430 -0.3785 -0.3793 -0.1797
10983TIP3    H154440   6.711   5.315  12.460 -2.7784  0.2005 -0.4765
10983TIP3    H254441   6.707   5.405  12.339 -0.0601  0.6735 -0.2546
10984TIP3   OH254442   1.125   4.048   3.538  0.0793  0.0774 -0.1900
10984TIP3    H154443   1.183   4.037   3.463 -0.7458 -0.1563 -0.8010
10984TIP3    H254444   1.123   3.961   3.579 -0.8305 -0.2371 -0.8987
10985TIP3   OH254445   1.926   6.492   4.512 -0.3949 -0.2390 -0.0619
10985TIP3    H154446   1.902   6.425   4.448  0.4965 -0.9725  0.3518
10985TIP3    H254447   2.009   6.461   4.548 -0.5248  0.5382  0.9193
10986TIP3   OH254448   5.457   1.082  16.760  0.4045  0.2593 -0.4487
10986TIP3    H154449   5.412   1.167  16.756 -1.1821 -0.5530 -0.4161
10986TIP3    H254450   5.450   1.047  16.671 -0.0001 -0.3585 -0.1780
10987TIP3   OH254451   6.706   2.391   2.433 -0.4519 -0.2978 -0.3122
10987TIP3    H154452   6.746   2.474   2.459  3.0639 -1.9393 -0.1581
10987TIP3    H254453   6.671   2.354   2.514  3.1081 -1.5401  0.7773
10988TIP3   OH254454   3.486   2.510   2.184  0.4648  0.3817  0.6447
10988TIP3    H154455   3.521   2.597   2.168  0.5213  0.2527  0.0273
10988TIP3    H254456   3.396   2.524   2.213  0.7689  0.6812  1.4394
10989TIP3   OH254457   0.672   5.252   1.885 -0.1128  0.0059 -0.3254
10989TIP3    H154458   0.760   5.244   1.849 -0.2878 -1.5177 -0.4501
10989TIP3    H254459   0.644   5.339   1.860  0.0191 -0.7765 -3.3676
10990TIP3   OH254460   4.704   4.432  12.617 -0.3402  0.2153 -0.4014
10990TIP3    H154461   4.667   4.519  12.628 -1.9463 -0.4040 -0.7401
10990TIP3    H254462   4.690   4.388  12.701  1.1193  0.5226  0.0049
10991TIP3   OH254463   1.815   2.333   5.555 -0.1988  0.0517 -0.2317
10991TIP3    H154464   1.827   2.428   5.552  0.8532 -0.0385  0.8265
10991TIP3    H254465   1.901   2.299   5.581 -0.5394 -1.1986 -0.7175
10992TIP3   OH254466   3.423   0.085   0.846  0.3890  0.1414  0.4223
10992TIP3    H154467   3.450  -0.004   0.820 -1.1622  0.5363 -2.8086
10992TIP3    H254468   3.484   0.142   0.800  0.7803  0.8007  1.7410
10993TIP3   OH254469   4.476   0.413   0.972  0.5698  0.2280 -0.0131
10993TIP3    H154470   4.474   0.321   0.945 -1.3352  0.4988 -0.9230
10993TIP3    H254471   4.569   0.431   0.989  1.1902 -1.3932 -1.4670
10994TIP3   OH254472   2.676   1.282  11.682 -0.0355 -0.0186 -0.1595
10994TIP3    H154473   2.768   1.258  11.694  0.3537  2.0648  1.2213
10994TIP3    H254474   2.631   1.248  11.760 -0.5349 -1.3899 -1.0227
10995TIP3   OH254475   4.892   1.571   5.369  0.5778 -0.4644 -0.4565
10995TIP3    H154476   4.915   1.488   5.410 -0.3169 -0.8789 -0.7790
10995TIP3    H254477   4.953   1.579   5.295  0.7321 -0.7884 -0.3624
10996TIP3   OH254478   2.472   5.784   3.561  0.0644 -0.2613  0.3379
10996TIP3    H154479   2.408   5.750   3.499 -1.5280  1.9896  0.7092
10996TIP3    H254480   2.527   5.843   3.509  1.7304 -1.9907  0.0745
10997TIP3   OH254481   0.409   1.085  15.446  0.6690  0.0312  0.9022
10997TIP3    H154482   0.394   0.991  15.441  4.0725 -0.5722  0.3829
10997TIP3    H254483   0.420   1.112  15.354 -0.3057  0.9289  1.0456
10998TIP3   OH254484   1.377   5.030  12.984  0.0377  0.3007  0.0829
10998TIP3    H154485   1.455   4.976  12.973 -0.6169 -0.0855 -3.0380
10998TIP3    H254486   1.308   4.982  12.937 -1.1092  2.6625 -0.6939
10999TIP3   OH254487   3.160   6.636  13.607  0.2191 -0.1557 -0.3150
10999TIP3    H154488   3.235   6.682  13.644  0.7556 -1.6532  0.4950
10999TIP3    H254489   3.144   6.564  13.668 -2.1123  0.3589 -0.2659
11000TIP3   OH254490   6.685   5.603  13.253  0.4181  0.2519  0.1872
11000TIP3    H154491   6.778   5.609  13.230 -0.1099 -0.7241 -2.4570
11000TIP3    H254492   6.647   5.685  13.222  0.0259 -0.2624 -0.7028
11001TIP3   OH254493   6.710   5.812  14.164  0.0673 -0.0811 -0.1292
11001TIP3    H154494   6.655   5.887  14.187 -1.9038 -1.1154 -1.3290
11001TIP3    H254495   6.732   5.825  14.072 -0.6670 -1.1946 -0.4746
11002TIP3   OH254496   4.367   6.343  11.976 -0.2194 -0.1495 -0.4540
11002TIP3    H154497   4.370   6.350  11.881 -0.7272 -1.7487 -0.6110
11002TIP3    H254498   4.274   6.329  11.996  0.0040 -0.7790  0.1898
11003TIP3   OH254499   1.192   0.185   4.358  0.6830  0.4173 -0.1418
11003TIP3    H154500   1.113   0.144   4.322  2.2467 -1.2392 -1.8534
11003TIP3    H254501   1.196   0.271   4.316 -1.5215  1.5738  1.8979
11004TIP3   OH254502   4.953   1.315  15.616 -0.4558  0.3986 -0.0040
11004TIP3    H154503   5.031   1.364  15.591 -1.3792  1.0004 -1.8215
11004TIP3    H254504   4.921   1.277  15.535 -0.9947 -1.4389  1.0301
11005TIP3   OH254505   3.820   4.213   2.806 -0.2652  0.2547  0.4795
11005TIP3    H154506   3.872   4.209   2.887  0.2078  1.1666  0.2355
11005TIP3    H254507   3.731   4.191   2.834  0.0026 -0.0033  1.1457
11006TIP3   OH254508   4.843   2.662  11.919 -0.2909 -0.1380 -0.3636
11006TIP3    H154509   4.879   2.609  11.990  0.5730  1.5133  0.4710
11006TIP3    H254510   4.849   2.607  11.841  0.4073 -1.3114  0.5136
11007TIP3   OH254511   0.125   4.001  14.552 -0.2090 -0.3831  0.1656
11007TIP3    H154512   0.068   4.071  14.586 -1.0621 -0.2383 -1.5085
11007TIP3    H254513   0.064   3.936  14.518  0.6324 -0.4977 -1.1308
11008TIP3   OH254514   4.965   4.255  16.575  0.2343  0.2785 -0.2823
11008TIP3    H154515   4.923   4.179  16.535 -0.0709 -2.1140  4.2201
11008TIP3    H254516   4.893   4.307  16.611  0.6506 -2.2122  4.6788
11009TIP3   OH254517   1.727   0.728  15.805 -0.0944  0.0932  0.0638
11009TIP3    H154518   1.651   0.724  15.747 -0.4037 -0.5195  0.4982
11009TIP3    H254519   1.790   0.783  15.758 -0.2876 -0.4909 -0.9113
11010TIP3   OH254520   6.659   0.965  12.555  0.1700 -0.0359 -0.1989
11010TIP3    H154521   6.669   0.904  12.628  0.1561 -0.8128 -0.8432
11010TIP3    H254522   6.579   1.014  12.575 -0.1324 -0.6205  0.0348
11011TIP3   OH254523   5.928   0.959   3.809  0.0040 -0.2827  0.2521
11011TIP3    H154524   5.860   1.006   3.760 -0.2936  0.9143  1.7829
11011TIP3    H254525   5.882   0.884   3.847  0.0157 -0.6590 -0.4710
11012TIP3   OH254526   0.415   1.593   3.340  0.1066  0.3717  0.3415
11012TIP3    H154527   0.405   1.686   3.324 -0.9468  0.3129  0.5623
11012TIP3    H254528   0.490   1.567   3.288 -1.0220  0.8861 -1.6049
11013TIP3   OH254529   5.848   6.110  16.778  0.2630  0.2383  0.0075
11013TIP3    H154530   5.908   6.036  16.791  0.9298  0.9771  1.3623
11013TIP3    H254531   5.771   6.072  16.737 -0.0173 -1.4910  2.0306
11014TIP3   OH254532   6.235   0.979  16.956  0.5797 -0.1965 -0.2011
11014TIP3    H154533   6.144   0.988  16.927 -0.6902 -1.5158  3.1333
11014TIP3    H254534   6.266   0.899  16.914 -0.7859 -1.3609  0.9902
11015TIP3   OH254535   3.459   4.155  11.251 -0.0542  0.2001  0.4697
11015TIP3    H154536   3.420   4.242  11.247  0.5233  0.4760  0.8189
11015TIP3    H254537   3.529   4.156  11.186 -0.3194 -0.1374  0.1777
11016TIP3   OH254538   6.736   1.372   4.754  0.8390  0.5991 -0.1842
11016TIP3    H154539   6.783   1.325   4.823  0.0645  0.9171  0.5713
11016TIP3    H254540   6.686   1.304   4.708  0.2640  0.5723  0.4663
11017TIP3   OH254541   5.547   3.421   3.728  0.6441  0.5322 -0.6091
11017TIP3    H154542   5.474   3.374   3.767  1.6840 -0.4428  0.1886
11017TIP3    H254543   5.541   3.403   3.635  1.7443 -2.2196 -0.1901
11018TIP3   OH254544   2.348   6.805   5.955  0.5951 -0.2634 -0.4155
11018TIP3    H154545   2.366   6.871   6.023 -0.7930 -0.2884 -0.0130
11018TIP3    H254546   2.341   6.723   6.003  1.8536 -0.6437 -0.8646
11019TIP3   OH254547   0.206   0.773   2.227  0.1227  0.0379  0.0261
11019TIP3    H154548   0.236   0.689   2.260 -1.1712  1.1581  4.4038
11019TIP3    H254549   0.113   0.760   2.208 -0.6794  1.0100  3.0165
11020TIP3   OH254550   3.090   5.070  14.388 -0.4253  0.0166 -0.1328
11020TIP3    H154551   3.129   4.997  14.435 -0.6698  0.4424  0.7566
11020TIP3    H254552   3.116   5.147  14.438 -1.1162  0.4333 -0.4017
11021TIP3   OH254553   4.279   3.206  12.990 -0.4645  0.1037 -0.3251
11021TIP3    H154554   4.202   3.190  12.935  0.5255 -1.1859 -1.3813
11021TIP3    H254555   4.268   3.149  13.066 -0.5784 -0.0455 -0.4537
11022TIP3   OH254556   3.667   0.468   0.163 -0.0878  0.0758 -0.6481
11022TIP3    H154557   3.599   0.427   0.216 -0.0253 -0.4833 -1.0039
11022TIP3    H254558   3.661   0.561   0.185 -0.3987 -0.0836 -0.0402
11023TIP3   OH254559   6.244   5.518   0.399 -0.0707 -0.3213  0.2401
11023TIP3    H154560   6.247   5.564   0.315 -2.2805  0.2184  0.4402
11023TIP3    H254561   6.315   5.556   0.450  0.0532  0.7087 -0.6932
11024TIP3   OH254562   5.540   5.053  13.532 -0.0751  0.1333  0.2907
11024TIP3    H154563   5.554   5.025  13.442 -0.0600  1.9167 -0.2768
11024TIP3    H254564   5.623   5.093  13.558  0.1650 -1.0046  1.3555
11025TIP3   OH254565   5.659   5.153  14.339 -0.2452 -0.4758  0.7039
11025TIP3    H154566   5.646   5.246  14.357 -0.8138 -0.2309 -0.8863
11025TIP3    H254567   5.722   5.124  14.404  0.9359  1.3355  0.3902
11026TIP3   OH254568   1.199   2.158  15.334 -0.1799  0.1947  0.2991
11026TIP3    H154569   1.135   2.117  15.393  0.5991  0.3098  1.2410
11026TIP3    H254570   1.146   2.198  15.266 -1.0882 -0.2113  0.7509
11027TIP3   OH254571   5.935   2.523  11.357  0.1470  0.0735 -0.2484
11027TIP3    H154572   5.929   2.616  11.378 -1.5891 -0.2195  0.6629
11027TIP3    H254573   5.976   2.483  11.434 -2.0011 -0.3503  0.6975
11028TIP3   OH254574   5.823   2.581   2.368 -0.0531 -0.0423  0.0747
11028TIP3    H154575   5.897   2.631   2.403  0.4762 -0.7831  0.0118
11028TIP3    H254576   5.863   2.508   2.321 -0.8137 -0.1367 -0.4253
11029TIP3   OH254577   6.307   2.176   1.311  0.2385 -0.2217 -0.2181
11029TIP3    H154578   6.384   2.229   1.332  1.2202 -0.9488 -1.8412
11029TIP3    H254579   6.233   2.237   1.317  1.2221  1.0664 -0.9507
11030TIP3   OH254580   5.322   3.713   6.113  0.3469 -0.1532 -0.0465
11030TIP3    H154581   5.342   3.770   6.188  2.2877 -0.7038 -0.0968
11030TIP3    H254582   5.395   3.727   6.053  1.2178 -3.1153  0.2167
11031TIP3   OH254583   5.754   3.034  11.745  0.0925 -0.8369 -0.1214
11031TIP3    H154584   5.789   3.091  11.677  0.4779 -1.4259 -0.4258
11031TIP3    H254585   5.777   3.077  11.827 -0.7654  0.1066 -0.3647
11032TIP3   OH254586   2.315   3.433   0.639 -0.0105 -0.3387  0.4732
11032TIP3    H154587   2.313   3.503   0.705 -0.4237  0.0549  0.0462
11032TIP3    H254588   2.268   3.360   0.680  0.2274 -0.2905  0.8328
11033TIP3   OH254589   5.692   3.058  16.188 -0.1824  0.2274 -0.3886
11033TIP3    H154590   5.769   3.110  16.210  0.6131 -1.8419  2.0499
11033TIP3    H254591   5.722   2.999  16.118  0.1106  0.2283 -0.2653
11034TIP3   OH254592   6.558   0.418   5.031 -0.1623 -0.4890 -0.5533
11034TIP3    H154593   6.577   0.363   4.955 -2.5760  0.9319 -2.2741
11034TIP3    H254594   6.467   0.398   5.052  0.3457 -0.5256  1.7003
11035TIP3   OH254595   3.603   5.532  12.098  0.6030  0.0308 -0.0156
11035TIP3    H154596   3.635   5.493  12.179  0.1185 -1.5776 -0.5822
11035TIP3    H254597   3.676   5.587  12.068  0.6372  0.9245  1.6847
11036TIP3   OH254598   2.737   1.949  16.712 -0.1409 -0.2636 -0.0045
11036TIP3    H154599   2.832   1.942  16.705  0.0961  2.1932  0.2408
11036TIP3    H254600   2.714   2.021  16.652 -1.6792  0.0674  0.9510
11037TIP3   OH254601   2.959   5.280   0.767 -0.3114 -0.2322 -0.0039
11037TIP3    H154602   3.019   5.209   0.788 -0.8963 -1.2843 -1.7498
11037TIP3    H254603   3.007   5.335   0.706 -0.5675 -0.2384 -0.2142
11038TIP3   OH254604   0.145   6.316  14.411  0.0243  0.3268 -0.2037
11038TIP3    H154605   0.224   6.367  14.399 -0.9788  1.8373 -0.5049
11038TIP3    H254606   0.132   6.313  14.505  0.1501  0.5375 -0.1790
11039TIP3   OH254607   2.650   3.043  16.357  0.1089 -1.0551 -0.3541
11039TIP3    H154608   2.598   3.045  16.438 -0.2270  2.7844 -0.5594
11039TIP3    H254609   2.732   3.001  16.382 -1.0119 -2.2698  1.3382
11040TIP3   OH254610   2.323   1.742   0.020 -0.0669  0.2162 -0.0769
11040TIP3    H154611   2.398   1.684   0.003  0.1615 -0.2079  2.2914
11040TIP3    H254612   2.361   1.819   0.060 -0.8118  0.3476  0.3797
11041TIP3   OH254613   2.671   4.576   0.695 -0.1218 -0.8269 -0.1535
11041TIP3    H154614   2.641   4.528   0.772  0.1717  0.3093  0.6773
11041TIP3    H254615   2.752   4.619   0.723 -0.5960  0.4917 -0.7604
11042TIP3   OH254616   4.531   5.062  11.619  0.7194  0.6918  0.1941
11042TIP3    H154617   4.531   5.109  11.702 -1.8909  1.5212 -0.2481
11042TIP3    H254618   4.455   5.004  11.623  1.4809 -0.4480 -0.9879
11043TIP3   OH254619   5.312   0.502  13.511  0.6254 -0.0966  0.8071
11043TIP3    H154620   5.325   0.430  13.449  1.4695  1.3436 -0.7035
11043TIP3    H254621   5.374   0.484  13.582  2.5296  0.4059 -0.7083
11044TIP3   OH254622   3.331   3.270   4.884 -0.0294 -0.1049  0.1733
11044TIP3    H154623   3.270   3.242   4.953 -0.1211  0.4057  0.3020
11044TIP3    H254624   3.372   3.349   4.920  0.4266 -0.2268 -0.0753
11045TIP3   OH254625   3.126   6.254  16.969 -0.3873 -0.2847  0.1342
11045TIP3    H154626   3.131   6.347  16.945 -0.2548 -0.8197 -1.9678
11045TIP3    H254627   3.060   6.251  17.039 -2.8623  0.9723 -2.0430
11046TIP3   OH254628   4.922   4.005   3.892 -0.2441  0.4801 -0.0846
11046TIP3    H154629   4.986   4.076   3.895 -0.7740  0.9475  0.2247
11046TIP3    H254630   4.939   3.954   3.972  0.4921 -0.0662 -0.5757
11047TIP3   OH254631   0.430   0.950   1.818  0.0975 -0.0798  0.5905
11047TIP3    H154632   0.512   0.941   1.771 -1.1760  0.3929 -1.7870
11047TIP3    H254633   0.445   0.905   1.901  2.0240 -1.9233 -0.7120
11048TIP3   OH254634   1.251   0.090  13.414  0.4214 -0.0594 -0.1858
11048TIP3    H154635   1.220   0.134  13.493  2.1338 -0.2760  0.6188
11048TIP3    H254636   1.242  -0.003  13.433  0.2497 -0.1026 -0.4787
11049TIP3   OH254637   4.578   2.350  10.840  0.5039 -0.6470  0.1115
11049TIP3    H154638   4.561   2.331  10.932  0.6098 -4.0588 -0.4853
11049TIP3    H254639   4.663   2.308  10.822  1.7587  2.2062 -0.9312
11050TIP3   OH254640   5.140   4.972   3.302  0.1407  0.5067 -0.6533
11050TIP3    H154641   5.078   4.995   3.371 -0.4412 -0.5720 -0.8062
11050TIP3    H254642   5.225   5.003   3.334  0.4174 -2.6884  1.9807
11051TIP3   OH254643   5.274   1.920  11.650  0.3491 -0.3794  0.4267
11051TIP3    H154644   5.357   1.945  11.689 -0.2493  0.7218  1.0314
11051TIP3    H254645   5.239   1.852  11.708  3.3138 -4.9377 -2.7632
11052TIP3   OH254646   6.327   2.091   5.899  0.6729 -0.9096 -1.0834
11052TIP3    H154647   6.301   2.098   5.991 -0.6253  1.5632 -1.6014
11052TIP3    H254648   6.274   2.018   5.866 -2.1800  1.0053 -0.9224
11053TIP3   OH254649   0.147   1.024   0.364 -0.0591 -0.2778  0.0199
11053TIP3    H154650   0.162   0.930   0.356 -1.5203 -0.4367 -0.9208
11053TIP3    H254651   0.070   1.031   0.422 -0.9438  0.2775 -1.2074
11054TIP3   OH254652   0.149   1.052  11.072  0.3355  0.0203  0.0439
11054TIP3    H154653   0.139   1.117  11.002 -0.3531 -0.7781 -0.6121
11054TIP3    H254654   0.060   1.026  11.093  0.6243 -1.0313 -0.0073
11055TIP3   OH254655   5.784   2.033  17.283 -0.0109  0.0258  0.2076
11055TIP3    H154656   5.843   2.043  17.358  0.6421  1.8123 -0.5263
11055TIP3    H254657   5.697   2.027  17.321  0.3294  0.7745  1.1235
11056TIP3   OH254658   4.949   1.369  16.551 -0.4623 -0.4183  0.5533
11056TIP3    H154659   4.854   1.373  16.558 -0.7083 -1.4364 -1.9209
11056TIP3    H254660   4.968   1.275  16.541  0.5162  0.0528 -2.2962
11057TIP3   OH254661   4.869   4.326   5.575  0.0305  0.4685 -0.2310
11057TIP3    H154662   4.963   4.341   5.579  0.0592  0.7075 -1.6748
11057TIP3    H254663   4.852   4.303   5.484 -1.1269 -0.8311  0.2847
11058TIP3   OH254664   0.051   2.356   1.918 -0.0029  0.5258 -0.2308
11058TIP3    H154665   0.001   2.417   1.864  1.4762  0.7130 -1.4283
11058TIP3    H254666   0.059   2.277   1.864 -3.2025 -1.3558  1.8879
11059TIP3   OH254667   1.595   1.223  15.799  0.8825  0.1525  0.4292
11059TIP3    H154668   1.610   1.210  15.705 -0.5577  1.4804 -0.0089
11059TIP3    H254669   1.522   1.164  15.820  1.3655 -0.3263  0.7764
11060TIP3   OH254670   0.028   5.372   0.693  0.2028  0.6378 -0.7101
11060TIP3    H154671   0.014   5.464   0.715  0.4206  0.4158  0.4055
11060TIP3    H254672  -0.031   5.355   0.620 -0.4470  1.4537 -0.3866
11061TIP3   OH254673   4.603   5.252  12.304  0.5801  0.2229 -0.1859
11061TIP3    H154674   4.684   5.271  12.256  1.6981 -2.2429  0.6811
11061TIP3    H254675   4.534   5.286  12.246  2.0077 -0.9131 -2.6513
11062TIP3   OH254676   3.699   1.335   2.789 -0.0605 -0.4283  0.1443
11062TIP3    H154677   3.771   1.272   2.783  0.1620 -0.1156 -0.6345
11062TIP3    H254678   3.620   1.283   2.780  0.1074 -0.6527 -0.0413
11063TIP3   OH254679   2.412   0.378   2.611  0.2330 -0.3219 -0.2506
11063TIP3    H154680   2.383   0.435   2.682 -0.5419 -0.1345 -0.7066
11063TIP3    H254681   2.506   0.369   2.624 -0.0493 -1.0638  1.3540
11064TIP3   OH254682   3.645   1.012   2.414  0.0141 -0.6406 -0.8874
11064TIP3    H154683   3.656   1.103   2.388 -0.8370 -0.3997 -0.4169
11064TIP3    H254684   3.731   0.972   2.400  0.3711  0.2197 -1.1353
11065TIP3   OH254685   0.743   2.576   5.658  0.4034 -0.0776 -0.6653
11065TIP3    H154686   0.781   2.654   5.617  0.9135  0.3670  0.6369
11065TIP3    H254687   0.813   2.511   5.657  0.4485 -0.0311 -0.3818
11066TIP3   OH254688   4.137   2.152  16.400  0.4625 -0.4769  0.6773
11066TIP3    H154689   4.091   2.068  16.406 -0.7626  0.1777  0.5999
11066TIP3    H254690   4.073   2.212  16.362  1.1950  0.6057  1.1223
11067TIP3   OH254691   2.952   5.038   4.487  0.8172  0.6808  0.9533
11067TIP3    H154692   3.019   4.988   4.440  2.2790  2.8003  0.6882
11067TIP3    H254693   2.970   5.129   4.464 -2.8417  1.2495  0.0819
11068TIP3   OH254694   0.189   2.170  13.906  0.2480  0.2126 -0.5390
11068TIP3    H154695   0.133   2.248  13.899 -1.2014 -0.8105 -0.5460
11068TIP3    H254696   0.250   2.191  13.976 -1.9929  0.2442  1.4721
11069TIP3   OH254697   1.360   3.365   4.145  0.3369 -0.5103  0.3707
11069TIP3    H154698   1.413   3.289   4.120  0.5723 -0.5154  0.8889
11069TIP3    H254699   1.423   3.428   4.180  0.0634 -0.3038  0.4953
11070TIP3   OH254700   2.737   3.634  12.268 -0.4493  0.3561  0.8808
11070TIP3    H154701   2.781   3.718  12.254  1.8432 -0.7479  1.3133
11070TIP3    H254702   2.662   3.656  12.323 -0.0782  2.1610  0.7134
11071TIP3   OH254703   4.366   4.117  14.548 -0.9136 -0.0621  0.2761
11071TIP3    H154704   4.401   4.176  14.614  0.0277 -0.2069 -0.0822
11071TIP3    H254705   4.396   4.030  14.574 -0.3105 -0.0855 -0.4835
11072TIP3   OH254706   5.277   1.845  14.342  0.5614 -0.2627 -0.6250
11072TIP3    H154707   5.192   1.885  14.360 -0.9688 -3.4185 -0.4706
11072TIP3    H254708   5.292   1.861  14.249  0.8492  2.1233 -0.2073
11073TIP3   OH254709   6.415   3.987  12.250  0.1621 -0.0345  0.0640
11073TIP3    H154710   6.429   4.081  12.263 -2.0382  0.2899  0.2400
11073TIP3    H254711   6.490   3.959  12.198  0.6236  1.9189 -0.3678
11074TIP3   OH254712   1.068   3.873   1.875 -0.3080  0.0245 -0.1940
11074TIP3    H154713   1.100   3.882   1.965 -1.0256  1.3589 -0.0597
11074TIP3    H254714   1.107   3.947   1.829 -0.7266 -0.1105 -0.7608
11075TIP3   OH254715   0.668   4.388   0.243  0.7297  0.1428  0.2709
11075TIP3    H154716   0.573   4.391   0.256  0.9354  1.7334  1.6010
11075TIP3    H254717   0.679   4.377   0.149 -0.7661 -0.5608  0.1507
11076TIP3   OH254718   0.666   6.584   4.119 -0.0018 -0.5778  0.0051
11076TIP3    H154719   0.654   6.647   4.048 -1.4961 -1.7152 -0.7605
11076TIP3    H254720   0.724   6.629   4.181 -0.4590  1.2638 -0.8732
11077TIP3   OH254721   4.354   5.650  13.586  0.0342 -0.1978 -0.0908
11077TIP3    H154722   4.282   5.644  13.648  0.0945  0.4821  0.0398
11077TIP3    H254723   4.320   5.702  13.513 -1.0984 -3.5642 -2.1228
11078TIP3   OH254724   2.950   3.969  14.266 -0.3337  0.0988 -0.1120
11078TIP3    H154725   2.994   4.023  14.200 -1.5940  2.1034  0.6280
11078TIP3    H254726   2.988   3.882  14.255  2.0109  1.2048 -1.1061
11079TIP3   OH254727   6.188   1.354  14.415 -0.4301 -0.0499 -0.1698
11079TIP3    H154728   6.224   1.330  14.500  1.2718  0.3986 -0.7570
11079TIP3    H254729   6.104   1.395  14.435  0.3776  0.8654  1.3607
11080TIP3   OH254730   3.439   1.679   3.482  0.2980  0.4941  0.8230
11080TIP3    H154731   3.496   1.721   3.418 -2.4702 -0.6168 -2.5261
11080TIP3    H254732   3.386   1.750   3.517 -0.7127  0.6047 -0.8865
11081TIP3   OH254733   5.025   4.324   3.688 -0.7872  0.3414  0.1652
11081TIP3    H154734   5.102   4.307   3.633 -1.6137 -1.4379 -0.4785
11081TIP3    H254735   5.014   4.419   3.686 -0.1016  0.3883 -1.7885
11082TIP3   OH254736   1.779   1.371   2.739  0.0404  0.5192  0.0462
11082TIP3    H154737   1.731   1.418   2.807  0.9048  2.0530 -0.3832
11082TIP3    H254738   1.870   1.398   2.751  0.4269 -0.4116 -0.7340
11083TIP3   OH254739   2.499   3.718  15.700 -0.1100  0.5865 -0.5214
11083TIP3    H154740   2.504   3.663  15.777 -1.5635  1.2271  0.0390
11083TIP3    H254741   2.534   3.663  15.629  0.1982 -0.3777  0.3619
11084TIP3   OH254742   5.416   1.331   2.759 -0.4986 -0.7197 -0.1955
11084TIP3    H154743   5.433   1.283   2.678  1.4650  0.5878 -0.5835
11084TIP3    H254744   5.498   1.326   2.808 -0.7454  0.9690  0.4233
11085TIP3   OH254745   6.404   0.245   0.117  0.2353 -0.2313 -0.1020
11085TIP3    H154746   6.496   0.259   0.143  0.1240  2.5104 -1.0495
11085TIP3    H254747   6.410   0.207   0.029  0.4433 -0.9849  0.2253
11086TIP3   OH254748   4.608   5.401  11.634 -0.0072 -0.5466  0.2461
11086TIP3    H154749   4.596   5.496  11.641  0.2568 -0.3090 -2.1480
11086TIP3    H254750   4.525   5.364  11.662 -1.9568  0.6165 -3.5846
11087TIP3   OH254751   1.844   1.251  16.636 -0.7303  0.0122  0.0279
11087TIP3    H154752   1.843   1.311  16.711  0.6500 -1.1650  1.0198
11087TIP3    H254753   1.884   1.171  16.670 -0.7653 -0.8026 -1.7896
11088TIP3   OH254754   2.496   3.991   1.014 -0.4550 -0.1226 -0.3042
11088TIP3    H154755   2.502   4.046   1.093  1.2919  0.0532 -0.5367
11088TIP3    H254756   2.523   4.049   0.943 -2.6450 -0.0997 -1.1444
11089TIP3   OH254757   5.838   5.807   0.672  0.0211  0.5765 -0.1272
11089TIP3    H154758   5.832   5.810   0.576 -0.9108  1.7435 -0.0479
11089TIP3    H254759   5.763   5.754   0.699  0.1554  0.4369 -0.0214
11090TIP3   OH254760   6.276   3.970  11.698 -0.1473  0.2069 -0.6184
11090TIP3    H154761   6.190   3.947  11.734  0.0089 -0.7483 -0.8512
11090TIP3    H254762   6.304   4.046  11.750 -0.6743 -0.1095  0.1345
11091TIP3   OH254763   6.242   3.415  12.219  0.6051 -0.3573 -0.0201
11091TIP3    H154764   6.171   3.480  12.228  1.3296  0.4944 -0.3479
11091TIP3    H254765   6.252   3.379  12.307 -0.5211 -0.7927 -0.0598
11092TIP3   OH254766   5.892   4.387   1.257 -0.4009 -0.3076 -0.0159
11092TIP3    H154767   5.975   4.414   1.296 -1.2110 -0.0260  1.5817
11092TIP3    H254768   5.875   4.300   1.294  0.6807 -1.7567 -2.7559
11093TIP3   OH254769   4.715   6.458  11.660  0.1779 -0.7059 -0.1742
11093TIP3    H154770   4.647   6.518  11.630  0.4597 -0.3499 -0.1004
11093TIP3    H254771   4.797   6.498  11.631  0.4003 -0.7870  0.3340
11094TIP3   OH254772   5.232   4.780   5.105  0.2396  0.2226 -0.9983
11094TIP3    H154773   5.233   4.826   5.189  1.1067  0.2157 -1.0056
11094TIP3    H254774   5.277   4.697   5.122 -0.6056 -0.2804 -1.1883
11095TIP3   OH254775   5.184   3.192   4.256  0.0794  1.0224 -0.3432
11095TIP3    H154776   5.117   3.249   4.294  0.0789  2.0220 -1.8080
11095TIP3    H254777   5.242   3.251   4.209  0.9018 -0.0454 -0.6873
11096TIP3   OH254778   6.419   5.313   3.840  0.1674 -0.1337 -0.5746
11096TIP3    H154779   6.498   5.287   3.792 -0.2352 -0.5727 -1.0062
11096TIP3    H254780   6.398   5.237   3.894  0.8887  0.5335  0.6627
11097TIP3   OH254781   2.073   0.685   2.943 -0.2447 -0.3873 -0.0514
11097TIP3    H154782   1.981   0.680   2.916 -0.4679  1.3566  0.3533
11097TIP3    H254783   2.077   0.640   3.027 -0.7498 -0.3547 -0.0133
11098TIP3   OH254784   5.691   2.596  16.551 -0.1387 -0.6291  0.4069
11098TIP3    H154785   5.685   2.622  16.459  1.4540  2.3028  1.0527
11098TIP3    H254786   5.759   2.529  16.553  0.6453  0.1264 -0.4109
11099TIP3   OH254787   3.005   1.319   2.136 -0.1686  0.1775  0.0147
11099TIP3    H154788   3.008   1.406   2.176 -3.3471  0.8028 -0.9039
11099TIP3    H254789   3.012   1.336   2.042  0.1744 -0.6294 -0.1044
11100TIP3   OH254790   5.768   1.843   0.951  0.4192  0.4811  0.5392
11100TIP3    H154791   5.689   1.876   0.908  1.3535 -0.9014 -2.3636
11100TIP3    H254792   5.735   1.783   1.019 -1.0357  0.3708 -0.2517
11101TIP3   OH254793   2.023   5.184  14.457 -0.3004 -0.4416  0.3426
11101TIP3    H154794   2.023   5.217  14.546 -1.7731 -0.2494  0.2840
11101TIP3    H254795   2.111   5.150  14.443  0.5850  1.5042  1.1306
11102TIP3   OH254796   2.109   1.567   5.512 -0.1879 -0.6353  0.7971
11102TIP3    H154797   2.062   1.513   5.449 -1.0367 -0.1437  1.0059
11102TIP3    H254798   2.142   1.641   5.461 -1.1086 -0.0965  0.9802
11103TIP3   OH254799   3.065   1.134  11.283 -0.0425  0.2604  0.3490
11103TIP3    H154800   2.980   1.111  11.320  0.0205  0.1124  0.4032
11103TIP3    H254801   3.107   1.189  11.349  0.0484  0.0407  0.4737
11104TIP3   OH254802   4.649   2.843  16.226 -0.1815 -0.3075 -0.0657
11104TIP3    H154803   4.649   2.753  16.258  0.1670 -0.4883 -0.5790
11104TIP3    H254804   4.705   2.891  16.288  1.9366 -1.0085 -1.3906
11105TIP3   OH254805   4.573   1.300   5.735  0.5346  0.3052 -0.0235
11105TIP3    H154806   4.589   1.387   5.697  0.8491 -0.1263 -0.9084
11105TIP3    H254807   4.477   1.291   5.735  0.5325 -0.9000 -3.6649
11106TIP3   OH254808   5.558   1.286   5.895  0.5047 -0.0784  0.5281
11106TIP3    H154809   5.493   1.300   5.964  0.8714 -0.4295  0.9476
11106TIP3    H254810   5.590   1.197   5.910  1.2510  0.1758  0.4607
11107TIP3   OH254811   1.610   2.455   4.392 -0.2494 -0.4163 -0.2620
11107TIP3    H154812   1.641   2.447   4.482  0.5356 -0.4626 -0.5362
11107TIP3    H254813   1.672   2.404   4.340 -0.3071  0.1589 -0.9086
11108TIP3   OH254814   2.548   3.014  11.605  0.5217 -0.1118  0.3039
11108TIP3    H154815   2.482   3.064  11.557  0.7972  2.2429  2.2962
11108TIP3    H254816   2.630   3.061  11.591  1.5860 -2.2653 -1.0388
11109TIP3   OH254817   2.905   4.238  11.787 -0.0595 -0.3066 -0.3948
11109TIP3    H154818   2.944   4.242  11.874  0.5456 -1.7811 -0.5825
11109TIP3    H254819   2.895   4.144  11.769 -1.0172 -0.0025 -1.5423
11110TIP3   OH254820   5.492   1.964  15.809 -0.0212 -0.2866  0.2142
11110TIP3    H154821   5.531   1.924  15.886 -0.5250  0.6678  0.9810
11110TIP3    H254822   5.566   2.003  15.762  0.3251 -1.1339  0.0535
11111TIP3   OH254823   0.100   4.049   1.379 -0.9598  0.6464  0.0652
11111TIP3    H154824   0.035   4.112   1.407 -1.4960  0.2723 -0.3256
11111TIP3    H254825   0.180   4.100   1.366 -1.3308  1.2037 -0.0315
11112TIP3   OH254826   3.644   5.436   2.498 -0.0647  0.0243 -0.3015
11112TIP3    H154827   3.626   5.413   2.407 -0.4507 -0.7733 -0.0310
11112TIP3    H254828   3.725   5.390   2.518  0.7128  1.2388 -0.6273
11113TIP3   OH254829   0.840   1.225   2.514 -0.1249  0.0864 -0.7398
11113TIP3    H154830   0.814   1.160   2.579 -0.1992 -0.5397 -1.3948
11113TIP3    H254831   0.936   1.223   2.515 -0.0925  1.3333  0.6029
11114TIP3   OH254832   5.687   1.157   3.695 -0.4695  0.8245 -0.3094
11114TIP3    H154833   5.645   1.243   3.702 -0.0750  0.9308  0.8311
11114TIP3    H254834   5.617   1.099   3.666 -1.1385  1.2148  0.5147
11115TIP3   OH254835   1.546   2.267   1.636  0.2312 -0.0086 -0.0395
11115TIP3    H154836   1.612   2.305   1.578 -0.1469  1.1785  0.2769
11115TIP3    H254837   1.520   2.340   1.693  0.7294 -1.1861  1.7521
11116TIP3   OH254838   4.254   2.612  12.989  0.4096  0.5108 -0.1010
11116TIP3    H154839   4.191   2.553  12.948 -1.2051  1.6595  0.6526
11116TIP3    H254840   4.237   2.697  12.949 -0.6222  1.4689  2.2718
11117TIP3   OH254841   5.959   1.746   2.235  0.3303  0.2164  0.3834
11117TIP3    H154842   5.932   1.676   2.176  0.6341  0.2136  0.2459
11117TIP3    H254843   5.904   1.735   2.313  1.2618 -0.9691  0.8918
11118TIP3   OH254844   3.321   1.130   1.639 -0.0147 -0.9446 -0.0653
11118TIP3    H154845   3.303   1.163   1.727  2.7554  2.2797 -0.5690
11118TIP3    H254846   3.399   1.076   1.649  1.4705  0.9882 -0.7391
11119TIP3   OH254847   4.513   4.759  13.718  0.0030  0.4197 -0.4446
11119TIP3    H154848   4.542   4.731  13.805  0.1516 -2.7385 -1.4521
11119TIP3    H254849   4.466   4.841  13.734  1.2847  0.6733  2.4142
11120TIP3   OH254850   1.906   4.960   0.898  0.1180  0.3714  0.1264
11120TIP3    H154851   1.866   4.875   0.885 -1.8848  1.5480 -1.7757
11120TIP3    H254852   1.833   5.018   0.919  1.4240  1.6662  1.2141
11121TIP3   OH254853   4.480   4.197   2.428  1.1131  0.2112 -0.1051
11121TIP3    H154854   4.439   4.112   2.416  0.2085  0.5783  0.3413
11121TIP3    H254855   4.449   4.249   2.354 -0.7577  1.0693  1.2710
11122TIP3   OH254856   3.629   4.939   2.832 -0.0609 -0.2253  0.3432
11122TIP3    H154857   3.631   4.892   2.916  0.3654  1.1185  1.0912
11122TIP3    H254858   3.714   4.981   2.826  0.2212 -0.9935 -1.1749
11123TIP3   OH254859   4.654   2.698  12.956 -0.5753  0.5444 -0.6911
11123TIP3    H154860   4.701   2.732  12.880 -0.3672  0.8810 -0.4133
11123TIP3    H254861   4.644   2.604  12.939  1.5346  0.1801 -0.0616
11124TIP3   OH254862   5.190   4.252  12.609 -0.7234  0.4690 -0.0269
11124TIP3    H154863   5.212   4.221  12.521  0.1759 -1.1967  0.7615
11124TIP3    H254864   5.099   4.280  12.602 -1.9960 -3.4768 -0.5487
11125TIP3   OH254865   6.544   0.437  15.510 -0.7269 -0.0883 -0.1364
11125TIP3    H154866   6.560   0.412  15.419  0.9479  0.7302 -0.0728
11125TIP3    H254867   6.448   0.443  15.516 -0.8022  1.7163 -2.3533
11126TIP3   OH254868   6.505   6.688  11.940 -0.0667 -0.1880  0.3753
11126TIP3    H154869   6.585   6.723  11.979 -1.0271  0.5208  1.7198
11126TIP3    H254870   6.509   6.594  11.957  1.9085 -0.6415 -2.1531
11127TIP3   OH254871   3.397   6.297   0.480  0.0219 -0.0749  0.6264
11127TIP3    H154872   3.345   6.231   0.435 -1.0113  0.7739  0.5522
11127TIP3    H254873   3.333   6.350   0.528  0.8812  0.5336  1.1301
11128TIP3   OH254874   3.629   3.799   1.952 -0.5097  0.2593 -0.1730
11128TIP3    H154875   3.645   3.861   1.880 -0.2325  0.6715  0.2415
11128TIP3    H254876   3.702   3.812   2.012 -0.8321  0.0449  0.2709
11129TIP3   OH254877   0.409   0.430  11.224  0.4600 -0.1618 -0.2394
11129TIP3    H154878   0.360   0.361  11.178  0.3774 -0.9606  1.0298
11129TIP3    H254879   0.436   0.490  11.154 -0.8635 -0.6121 -1.1691
11130TIP3   OH254880   0.873   2.103  11.772 -0.0850 -0.0726 -0.4501
11130TIP3    H154881   0.950   2.079  11.721  0.5452 -1.8988  1.2807
11130TIP3    H254882   0.879   2.049  11.852 -2.0369  1.2868  0.6684
11131TIP3   OH254883   2.027   6.529  11.227  0.0287 -0.5165 -0.0294
11131TIP3    H154884   2.109   6.479  11.222 -0.3027 -1.0066 -0.5702
11131TIP3    H254885   2.031   6.588  11.152 -0.1947 -0.6655 -0.1584
11132TIP3   OH254886   0.562   2.832   1.555  0.0923  0.2634 -0.1380
11132TIP3    H154887   0.508   2.812   1.478 -0.9742  0.9626  0.4175
11132TIP3    H254888   0.500   2.837   1.627  0.8184  1.5935  0.4230
11133TIP3   OH254889   0.663   5.562   1.965  0.0947 -0.2194 -0.0725
11133TIP3    H154890   0.668   5.589   1.873  1.1488 -2.9405 -0.8356
11133TIP3    H254891   0.574   5.528   1.974  0.1941 -0.5215 -0.2370
11134TIP3   OH254892   3.400   1.349  15.609  0.3571  0.0252  0.0058
11134TIP3    H154893   3.440   1.376  15.527 -0.0918  0.2813 -0.1307
11134TIP3    H254894   3.339   1.279  15.584  0.4043 -0.0685  0.1526
11135TIP3   OH254895   2.007   1.912  13.373 -0.5470  0.3303  0.3380
11135TIP3    H154896   1.973   1.822  13.377 -1.1782  0.5450 -0.0504
11135TIP3    H254897   1.998   1.945  13.463  0.0080 -0.1075  0.5590
11136TIP3   OH254898   4.110   5.658  11.887 -0.2876  0.2061 -0.1809
11136TIP3    H154899   4.085   5.587  11.945 -0.3018 -0.7080 -1.2747
11136TIP3    H254900   4.044   5.725  11.900 -2.2021 -1.3403 -1.5352
11137TIP3   OH254901   3.882   2.497   5.226 -0.0125  1.1397  0.4300
11137TIP3    H154902   3.831   2.545   5.161  1.3836  1.6452 -0.3152
11137TIP3    H254903   3.857   2.405   5.213 -0.8756  1.3995  0.2173
11138TIP3   OH254904   3.718   5.563  11.671 -0.7505 -0.3665 -0.6128
11138TIP3    H154905   3.810   5.545  11.691 -0.6216  3.3336  2.7802
11138TIP3    H254906   3.675   5.477  11.677  2.1555 -1.8898 -0.5278
11139TIP3   OH254907   0.031   1.392  12.495  0.4218 -0.1594  0.0145
11139TIP3    H154908   0.043   1.307  12.452  0.5442 -0.3930  0.5126
11139TIP3    H254909  -0.039   1.434  12.445  0.9035 -0.2237 -0.7279
11140TIP3   OH254910   4.984   3.015   3.625  0.2233  0.5284 -0.2443
11140TIP3    H154911   4.913   3.001   3.688  0.9350 -3.7845 -0.2277
11140TIP3    H254912   4.956   2.967   3.547  2.3497  0.1729 -0.8081
11141TIP3   OH254913   2.868   1.613  14.957 -0.2394  0.2094  0.2493
11141TIP3    H154914   2.904   1.691  15.000 -0.1326 -0.2595  1.0358
11141TIP3    H254915   2.917   1.540  14.997  0.2640 -0.1999 -1.0915
11142TIP3   OH254916   0.491   5.617  16.210 -0.3404 -0.9042  0.3969
11142TIP3    H154917   0.453   5.679  16.147 -0.8276  0.0751  1.6349
11142TIP3    H254918   0.585   5.635  16.207 -0.1788 -1.9860 -1.2432
11143TIP3   OH254919   3.237   3.815  16.204 -0.0727  0.4508 -0.0255
11143TIP3    H154920   3.232   3.820  16.299 -1.8183 -1.8632  0.0530
11143TIP3    H254921   3.316   3.764  16.186 -1.4049 -1.7812  0.3192
11144TIP3   OH254922   3.798   3.281  15.748  0.3881 -0.0816  0.5530
11144TIP3    H154923   3.705   3.290  15.768  0.1844  0.0586 -0.4123
11144TIP3    H254924   3.843   3.332  15.815 -0.2050 -0.6016  1.3477
11145TIP3   OH254925   4.560   3.825  15.227  0.1134  0.3293  0.2352
11145TIP3    H154926   4.589   3.903  15.179 -0.9338  0.9126  0.5258
11145TIP3    H254927   4.569   3.754  15.164  2.2880  0.4550  0.3626
11146TIP3   OH254928   6.414   6.075   4.536  0.2925  0.3016 -0.1038
11146TIP3    H154929   6.388   5.996   4.582  0.9619  1.3745  2.1644
11146TIP3    H254930   6.332   6.110   4.500 -0.1824 -0.7243 -0.0430
11147TIP3   OH254931   0.980   6.499  15.627 -0.1464  0.0757  0.0649
11147TIP3    H154932   1.062   6.502  15.677 -0.0214 -0.2377 -0.1164
11147TIP3    H254933   0.911   6.503  15.693  0.0186 -0.4922  0.2763
11148TIP3   OH254934   0.450   2.042  15.340  0.8226 -0.0837  0.2611
11148TIP3    H154935   0.540   2.073  15.335  0.4965  0.8291  0.0224
11148TIP3    H254936   0.455   1.949  15.316  1.6141  0.1187 -0.3655
11149TIP3   OH254937   2.420   6.119   6.588 -0.1971 -0.5579  0.1310
11149TIP3    H154938   2.455   6.104   6.675 -0.1379 -1.2896 -0.0177
11149TIP3    H254939   2.497   6.122   6.531 -0.3618 -1.9920 -0.1691
11150TIP3   OH254940   2.444   0.567  15.906  0.0118  0.4008  0.1653
11150TIP3    H154941   2.448   0.663  15.899 -2.7024  0.5316 -0.1597
11150TIP3    H254942   2.435   0.538  15.815  1.0227 -0.1794  0.2526
11151TIP3   OH254943   1.345   5.431  14.885  0.0431  0.3742 -0.1716
11151TIP3    H154944   1.410   5.494  14.853  0.2752  0.3846  0.3064
11151TIP3    H254945   1.345   5.361  14.820 -1.3122  1.5847 -1.4944
11152TIP3   OH254946   1.533   3.768  11.129 -0.1984  0.2884 -0.4430
11152TIP3    H154947   1.489   3.813  11.201  0.3791 -2.2490  1.5704
11152TIP3    H254948   1.465   3.755  11.063 -1.3613  0.3772  0.7240
11153TIP3   OH254949   4.886   6.195   4.866  0.4319  0.4044 -0.5467
11153TIP3    H154950   4.968   6.207   4.818  0.9798  1.1940  0.5531
11153TIP3    H254951   4.896   6.109   4.908  1.2274  1.0139  0.5575
11154TIP3   OH254952   6.119   1.005  14.627  0.6734  0.4816 -0.0700
11154TIP3    H154953   6.083   0.923  14.593 -1.2214  0.5763  1.5703
11154TIP3    H254954   6.065   1.073  14.586  0.4346  0.7585  0.7071
11155TIP3   OH254955   6.322   2.750   2.170  0.4331 -0.6618 -0.1637
11155TIP3    H154956   6.389   2.791   2.116  0.2568  2.1155  1.6496
11155TIP3    H254957   6.357   2.753   2.259 -0.8034 -1.9757  0.4036
11156TIP3   OH254958   3.364   5.312  15.988 -0.1812 -0.2703  0.1693
11156TIP3    H154959   3.305   5.253  16.034 -1.3224  1.3851  0.8831
11156TIP3    H254960   3.413   5.357  16.057 -0.9276  1.2386 -0.2433
11157TIP3   OH254961   5.681   0.144   2.253 -0.2862 -0.3761 -0.1874
11157TIP3    H154962   5.746   0.082   2.219  0.4989  0.2466  0.1673
11157TIP3    H254963   5.623   0.160   2.179  0.9680  0.3710 -1.0319
11158TIP3   OH254964   2.069   3.046  14.220 -0.7691  0.4643  0.5925
11158TIP3    H154965   2.061   3.056  14.125 -3.4176 -1.2150  0.6004
11158TIP3    H254966   2.148   2.993  14.232 -0.7955  0.1282 -0.6926
11159TIP3   OH254967   0.395   2.599  14.893  0.3705  0.0658 -0.5693
11159TIP3    H154968   0.365   2.556  14.813 -0.6102 -1.9816  0.8576
11159TIP3    H254969   0.438   2.529  14.943  0.8883  1.3040  0.7399
11160TIP3   OH254970   1.085   3.530  12.584  0.7790  0.3750 -0.4167
11160TIP3    H154971   1.080   3.609  12.529 -2.5508  1.1995  0.9559
11160TIP3    H254972   1.097   3.458  12.522  2.1649  1.7644 -1.8175
11161TIP3   OH254973   5.232   2.762  14.019 -0.1702 -0.2691 -0.6965
11161TIP3    H154974   5.309   2.721  13.980  1.5420  0.4267  1.8222
11161TIP3    H254975   5.166   2.693  14.019  0.7817 -1.1972 -1.9769
11162TIP3   OH254976   3.317   0.797  14.706  0.1454  1.4061 -0.0983
11162TIP3    H154977   3.243   0.788  14.766  0.9644  1.2967  0.9023
11162TIP3    H254978   3.284   0.854  14.636 -0.6762  1.8952  0.6757
11163TIP3   OH254979   1.660   6.169   6.288  0.3040 -0.0352 -0.0947
11163TIP3    H154980   1.597   6.238   6.306  0.5555  0.5172 -1.3199
11163TIP3    H254981   1.668   6.122   6.371 -1.1261  0.3621  0.2799
11164TIP3   OH254982   4.038   4.342  13.786 -0.9007  0.7321  0.0181
11164TIP3    H154983   3.962   4.288  13.807 -0.7871  0.3721 -0.5133
11164TIP3    H254984   4.049   4.334  13.691 -0.6126  1.3277 -0.0020
11165TIP3   OH254985   1.098   1.202  12.209 -0.5167 -0.1152  0.2938
11165TIP3    H154986   1.084   1.167  12.297  1.4708  1.9793  1.5052
11165TIP3    H254987   1.047   1.145  12.152 -2.4965 -1.0423  2.8875
11166TIP3   OH254988   5.985   5.417   0.099 -0.2242 -0.3663  0.0029
11166TIP3    H154989   6.057   5.477   0.118 -0.5143 -0.5831  1.8124
11166TIP3    H254990   6.026   5.330   0.095 -0.2786 -0.4074  0.3514
11167TIP3   OH254991   1.430   3.705  13.266  0.9662 -0.2800  0.0790
11167TIP3    H154992   1.442   3.721  13.173 -1.9393  2.8012  0.1410
11167TIP3    H254993   1.364   3.635  13.270  1.5776 -0.8758 -0.1522
11168TIP3   OH254994   2.938   0.121   0.050  0.2505 -0.4537 -0.2121
11168TIP3    H154995   2.965   0.112   0.142  0.7007 -1.8316 -0.4719
11168TIP3    H254996   3.020   0.127   0.001  0.0097  0.3410 -0.5219
11169TIP3   OH254997   4.469   6.059  14.881  0.5799  0.2175 -0.2339
11169TIP3    H154998   4.455   6.148  14.850 -2.4082  0.0662  0.5309
11169TIP3    H254999   4.488   6.009  14.801 -0.7452  0.9988 -1.0580
11170TIP3   OH255000   2.109   4.569   4.688 -0.7437 -0.3581 -0.0985
11170TIP3    H155001   2.057   4.551   4.767  1.2410  2.0558  1.8254
11170TIP3    H255002   2.154   4.487   4.670 -1.6229 -1.0900  0.9766
11171TIP3   OH255003   5.245   2.318  14.547 -0.3889 -0.6782  0.0537
11171TIP3    H155004   5.188   2.309  14.471 -1.6556 -2.7212  1.1816
11171TIP3    H255005   5.225   2.241  14.601  0.9060  0.4190  2.1634
11172TIP3   OH255006   1.568   3.015   1.640  0.2273 -0.6241 -0.2637
11172TIP3    H155007   1.510   3.069   1.587  0.9271  0.5411  0.1581
11172TIP3    H255008   1.511   2.945   1.673 -1.2118  1.1302  1.0774
11173TIP3   OH255009   2.925   0.658   2.202  0.2841 -0.3141 -0.8300
11173TIP3    H155010   3.011   0.639   2.238 -0.4504  0.7625  1.6049
11173TIP3    H255011   2.863   0.619   2.264 -1.0230  1.2834 -1.0753
11174TIP3   OH255012   4.561   0.150   0.889  0.0610 -0.8691 -0.0394
11174TIP3    H155013   4.585   0.057   0.893 -0.3837 -0.9755  0.1705
11174TIP3    H255014   4.607   0.189   0.964 -0.8290 -1.1705  0.6797
11175TIP3   OH255015   5.990   0.736   6.460  0.4117  0.1529 -0.1210
11175TIP3    H155016   5.952   0.822   6.446  0.6110  0.3654  0.6095
11175TIP3    H255017   5.926   0.690   6.514  0.5165  0.0080 -0.1197
11176TIP3   OH255018   4.738   1.663   5.935 -0.3570  0.3856 -0.4848
11176TIP3    H155019   4.776   1.628   6.016 -1.3055 -0.8227 -0.5398
11176TIP3    H255020   4.810   1.662   5.872  0.9338  3.2328  0.8534
11177TIP3   OH255021   4.284   2.652   2.754  0.7221 -0.1607  0.0927
11177TIP3    H155022   4.205   2.598   2.756 -0.5394  1.6628  2.2003
11177TIP3    H255023   4.343   2.611   2.817  0.6748 -0.3803 -0.0043
11178TIP3   OH255024   3.915   0.094   4.986  0.0260  0.8590  0.3857
11178TIP3    H155025   3.844   0.031   4.990  0.1011  0.7997  0.8548
11178TIP3    H255026   3.992   0.046   5.017  0.1005  1.1519  0.6632
11179TIP3   OH255027   5.471   4.546  13.580 -0.1372 -0.1493 -0.2314
11179TIP3    H155028   5.518   4.540  13.663 -1.7018 -1.2019  0.6175
11179TIP3    H255029   5.425   4.629  13.585  0.4122  0.1658 -0.3971
11180TIP3   OH255030   2.188   3.356  15.671  0.0641  0.0278 -0.1766
11180TIP3    H155031   2.246   3.415  15.720  0.5751  0.3232 -1.1206
11180TIP3    H255032   2.100   3.385  15.693  0.2893  0.1691  0.5511
11181TIP3   OH255033   0.997   2.474  13.968  0.2140 -0.7465  0.3142
11181TIP3    H155034   1.043   2.421  14.034  1.3036 -1.4111 -0.9673
11181TIP3    H255035   1.007   2.426  13.887 -1.9478 -0.3866 -0.1820
11182TIP3   OH255036   1.209   2.194  10.943  0.4027 -0.1123  0.8789
11182TIP3    H155037   1.291   2.212  10.898  0.9796  0.3125  2.0629
11182TIP3    H255038   1.156   2.146  10.879  1.5629 -0.3793  0.0946
11183TIP3   OH255039   4.459   1.999   3.023  0.4969 -0.1616 -0.0297
11183TIP3    H155040   4.372   2.015   2.985  0.7246 -1.0592 -0.9630
11183TIP3    H255041   4.520   2.045   2.965  0.5555  1.3984  1.2627
11184TIP3   OH255042   5.051   6.491   4.822  0.0361 -0.3951  0.2134
11184TIP3    H155043   5.060   6.586   4.828 -0.2212 -0.4220  1.1547
11184TIP3    H255044   4.991   6.476   4.749  0.7440  0.1220 -0.4879
11185TIP3   OH255045   1.477   2.743  10.826  0.5211  0.2149 -0.1189
11185TIP3    H155046   1.411   2.693  10.779  2.0539 -2.4277  0.3924
11185TIP3    H255047   1.441   2.754  10.914 -0.7702  1.9571 -0.8562
11186TIP3   OH255048   6.097   4.323   1.891  0.4510  0.1965  0.1204
11186TIP3    H155049   6.173   4.289   1.939 -0.3557  1.1482  2.1244
11186TIP3    H255050   6.025   4.265   1.916 -0.1580  1.2058  0.7793
11187TIP3   OH255051   5.384   5.755  15.799 -0.4427  0.3392  0.4800
11187TIP3    H155052   5.383   5.833  15.854  0.0707 -0.5256  1.7410
11187TIP3    H255053   5.458   5.704  15.831 -0.5969 -0.5367 -0.5228
11188TIP3   OH255054   5.727   1.507  14.050  0.1662  0.3212  0.3473
11188TIP3    H155055   5.779   1.481  13.974 -1.1343 -1.1151 -0.0876
11188TIP3    H255056   5.723   1.428  14.104  1.0116  1.2993  1.9039
11189TIP3   OH255057   4.545   3.256  12.948 -0.2982 -0.1305  0.5177
11189TIP3    H155058   4.452   3.242  12.963 -0.2254 -0.1094  0.9958
11189TIP3    H255059   4.588   3.197  13.010  0.0077 -1.4071 -0.8716
11190TIP3   OH255060   1.062   6.191   2.294 -0.0509  0.2776 -0.6204
11190TIP3    H155061   1.092   6.138   2.220  2.2329 -0.3028  0.6586
11190TIP3    H255062   1.030   6.127   2.358  1.9718  0.4163  0.5975
11191TIP3   OH255063   2.216   3.892  13.880  0.3033 -0.4837  0.4033
11191TIP3    H155064   2.127   3.866  13.855  0.1885  0.4655 -0.2105
11191TIP3    H255065   2.273   3.841  13.822  0.0898  0.2772 -0.5091
11192TIP3   OH255066   2.663   0.224  16.273  0.1358  0.2494  0.1824
11192TIP3    H155067   2.754   0.197  16.282 -0.0581 -0.5008 -0.1361
11192TIP3    H255068   2.658   0.265  16.187  0.0047 -0.3757 -0.1085
11193TIP3   OH255069   3.916   2.380  11.244  0.1572 -0.0824 -0.0886
11193TIP3    H155070   3.987   2.320  11.263  0.8153 -0.1150 -2.5237
11193TIP3    H255071   3.899   2.425  11.327  1.8974 -1.2389  0.9051
11194TIP3   OH255072   3.612   3.634  14.772 -0.2340  0.1900 -0.3422
11194TIP3    H155073   3.680   3.591  14.720  1.8610  3.3094 -0.3436
11194TIP3    H255074   3.589   3.712  14.721 -0.7337  1.3903  1.6621
11195TIP3   OH255075   1.120   4.821   1.692 -0.4149 -0.5302  0.3301
11195TIP3    H155076   1.074   4.894   1.651  0.1460 -0.7723 -0.7409
11195TIP3    H255077   1.090   4.822   1.783 -0.5753  0.8978  0.2711
11196TIP3   OH255078   5.114   3.437   0.582  0.2412  0.4431 -0.2462
11196TIP3    H155079   5.051   3.509   0.588  1.4929  1.6441 -1.1310
11196TIP3    H255080   5.156   3.449   0.496  1.8083 -0.1942  0.4062
11197TIP3   OH255081   3.182   0.985   3.822  0.7405 -0.3372 -0.7693
11197TIP3    H155082   3.209   1.044   3.752 -2.2088  0.8288 -1.0044
11197TIP3    H255083   3.142   0.911   3.776 -1.0572  0.3530 -0.3435
11198TIP3   OH255084   3.128   1.600  14.185 -0.1906 -0.3076 -0.1750
11198TIP3    H155085   3.063   1.562  14.245  0.3018 -0.2813  0.3839
11198TIP3    H255086   3.103   1.692  14.177 -0.1684 -0.2730  0.1222
11199TIP3   OH255087   6.318   0.592   3.817 -0.1442 -0.5188 -0.2755
11199TIP3    H155088   6.413   0.604   3.818  0.0019 -1.6440  0.8759
11199TIP3    H255089   6.283   0.677   3.841  0.6581 -0.6816  1.5634
11200TIP3   OH255090   4.614   5.421  14.528 -0.2126 -0.0572  0.3286
11200TIP3    H155091   4.623   5.407  14.434  0.6565 -0.1245  0.4176
11200TIP3    H255092   4.599   5.515  14.537 -3.4856 -0.4635 -0.0909
11201TIP3   OH255093   0.983   1.148  15.685  0.0104 -0.0819  0.7180
11201TIP3    H155094   1.023   1.180  15.766 -1.5201 -1.4285  2.0178
11201TIP3    H255095   0.953   1.060  15.705 -0.2780 -0.4880 -1.3625
11202TIP3   OH255096   5.823   4.444  16.458 -0.8081  0.5009  0.4660
11202TIP3    H155097   5.815   4.399  16.374 -1.7674 -0.5385  1.0928
11202TIP3    H255098   5.888   4.512  16.443 -1.2527  0.5824 -1.2287
11203TIP3   OH255099   5.377   1.723  11.119 -0.5982 -0.1271 -0.3923
11203TIP3    H155100   5.346   1.803  11.163  0.6724  0.6331 -0.8448
11203TIP3    H255101   5.348   1.733  11.029 -0.6675 -0.3040 -0.3891
11204TIP3   OH255102   4.191   1.954   1.674 -0.3238 -0.1574 -0.8097
11204TIP3    H155103   4.176   1.946   1.580 -2.0750  0.6243 -0.6127
11204TIP3    H255104   4.211   2.047   1.687 -2.4074  0.2314 -0.1284
11205TIP3   OH255105   0.763   2.591  12.280 -0.4214  0.5778  0.5339
11205TIP3    H155106   0.842   2.565  12.233 -0.9230  2.1066 -1.2241
11205TIP3    H255107   0.795   2.643  12.354  0.3276 -1.0596  1.3779
11206TIP3   OH255108   1.717   0.988   4.486 -0.5896 -0.6949 -0.5333
11206TIP3    H155109   1.765   0.917   4.443  2.4114  0.8044  0.1998
11206TIP3    H255110   1.755   0.994   4.574 -2.6940  0.0323  0.3594
11207TIP3   OH255111   6.669   6.285  14.604  0.1822  0.7084  0.4771
11207TIP3    H155112   6.637   6.304  14.693  0.4866 -0.6424  0.8829
11207TIP3    H255113   6.692   6.192  14.606  0.8952  0.8480 -0.8085
11208TIP3   OH255114   3.354   3.729   4.090  0.3876  0.6335  0.3790
11208TIP3    H155115   3.307   3.810   4.111  0.9646  0.6031  1.8413
11208TIP3    H255116   3.404   3.751   4.011 -0.7750  1.1710 -0.2235
11209TIP3   OH255117   3.972   6.818  16.786  0.3165 -0.2092  0.3790
11209TIP3    H155118   3.956   6.738  16.837 -0.3402  0.3190  1.0056
11209TIP3    H255119   4.009   6.786  16.703 -0.1504 -1.1796  0.5327
11210TIP3   OH255120   3.853   2.904  17.173 -0.8215 -0.3898 -0.6904
11210TIP3    H155121   3.884   2.909  17.263 -0.6748  0.9669 -0.7977
11210TIP3    H255122   3.919   2.951  17.122 -0.7765 -1.3513 -1.5385
11211TIP3   OH255123   1.764   0.817   0.300 -0.1187 -0.2912  0.6968
11211TIP3    H155124   1.693   0.783   0.245 -0.8171 -0.1349  1.4894
11211TIP3    H255125   1.793   0.896   0.255  0.0365 -0.7273  0.0006
11212TIP3   OH255126   1.195   6.683  11.552  0.0778 -0.1125 -0.3306
11212TIP3    H155127   1.241   6.762  11.522 -0.3124 -0.0811 -0.8486
11212TIP3    H255128   1.234   6.612  11.502  0.3521 -0.2388  0.0569
11213TIP3   OH255129   6.387   6.740   1.891  0.2318  0.1425  0.4026
11213TIP3    H155130   6.305   6.789   1.901 -0.3457 -0.9838  1.4133
11213TIP3    H255131   6.439   6.766   1.967  1.4293  1.9529 -0.9883
11214TIP3   OH255132   2.716   4.076   4.326  0.2253  0.2199 -0.2662
11214TIP3    H155133   2.727   4.118   4.411 -0.0529  1.0815 -0.6511
11214TIP3    H255134   2.803   4.043   4.303  0.3177  0.0664  0.3072
11215TIP3   OH255135   6.771   0.316   2.779 -0.5823 -0.2024  0.0931
11215TIP3    H155136   6.817   0.316   2.695 -0.6508  1.8217  0.0436
11215TIP3    H255137   6.723   0.233   2.779  1.4622 -1.4239 -0.7246
11216TIP3   OH255138   1.041   4.113  17.232 -0.2358  0.1434 -0.3231
11216TIP3    H155139   0.947   4.127  17.249  0.0997 -0.6628  2.4073
11216TIP3    H255140   1.048   4.020  17.210  0.0639 -0.0584  0.6090
11217TIP3   OH255141   1.333   4.644  14.142 -0.2415  0.2943  0.2151
11217TIP3    H155142   1.375   4.562  14.167  0.5808  0.4931 -0.4698
11217TIP3    H255143   1.273   4.664  14.214 -0.5768 -0.9891  0.3007
11218TIP3   OH255144   5.380   2.737  11.361  0.3236  0.1008  0.1279
11218TIP3    H155145   5.387   2.740  11.456 -0.5155  1.0254  0.1678
11218TIP3    H255146   5.359   2.827  11.335  0.5904 -0.1317 -0.9299
11219TIP3   OH255147   3.973   3.485  15.627  0.0025 -0.4034  0.2555
11219TIP3    H155148   4.019   3.453  15.704  0.8888 -0.2166 -0.1953
11219TIP3    H255149   3.886   3.445  15.633 -0.1988  0.2140  1.7605
11220TIP3   OH255150   1.680   3.553  15.963  0.3664  0.2847  0.3406
11220TIP3    H155151   1.730   3.475  15.937  0.0593  0.0725  0.3911
11220TIP3    H255152   1.627   3.574  15.886 -0.0487  0.0497  0.5620
11221TIP3   OH255153   6.404   3.717  13.735 -0.0456  0.2835  0.4263
11221TIP3    H155154   6.465   3.751  13.670 -2.6089  2.4849 -0.9347
11221TIP3    H255155   6.447   3.734  13.819  1.5644  1.0509 -0.5166
11222TIP3   OH255156   6.101   6.155  15.739  0.1780  0.1167 -0.5747
11222TIP3    H155157   6.164   6.090  15.707 -1.9088 -2.4915  0.4572
11222TIP3    H255158   6.103   6.146  15.835  0.3492  2.0981 -0.3527
11223TIP3   OH255159   5.549   1.402   0.363 -0.0668  0.3078  0.2925
11223TIP3    H155160   5.557   1.360   0.277  0.5079 -1.9365  1.3893
11223TIP3    H255161   5.463   1.444   0.361  0.0230  0.4405 -1.4492
11224TIP3   OH255162   2.617   6.475   3.921  0.5038 -0.4290 -0.1367
11224TIP3    H155163   2.609   6.569   3.909  1.6264 -0.6879 -3.6287
11224TIP3    H255164   2.559   6.437   3.855 -1.0289 -2.2537  2.1407
11225TIP3   OH255165   2.961   5.034   0.980 -0.1173  0.2570  0.0996
11225TIP3    H155166   2.916   4.994   1.054  0.4203  2.7123  1.8202
11225TIP3    H255167   2.890   5.062   0.921 -0.5626 -1.4030 -0.1630
11226TIP3   OH255168   1.097   2.292   0.327  0.0795 -0.1850 -0.5788
11226TIP3    H155169   1.012   2.282   0.370 -0.1012 -0.3216 -0.9687
11226TIP3    H255170   1.107   2.386   0.315  0.1628 -0.1414 -0.1677
11227TIP3   OH255171   4.933   4.965   3.461 -0.0338  0.2883 -0.2297
11227TIP3    H155172   4.923   4.878   3.423  1.4914 -0.4292  0.9573
11227TIP3    H255173   4.845   5.001   3.464 -0.7869 -1.5696  0.0974
11228TIP3   OH255174   3.475   1.081   4.000 -0.2470 -0.1899 -0.5849
11228TIP3    H155175   3.437   1.135   3.930  0.6847  1.1934 -0.0295
11228TIP3    H255176   3.402   1.026   4.030 -1.4179  1.3300 -0.6021
11229TIP3   OH255177   2.774   1.533   2.505  0.1629 -0.4846  0.0091
11229TIP3    H155178   2.745   1.528   2.596 -2.5897 -1.0435 -0.8481
11229TIP3    H255179   2.863   1.499   2.506 -0.7014 -2.8120  2.1263
11230TIP3   OH255180   6.411   5.286   1.287  0.2727 -0.0786  0.3325
11230TIP3    H155181   6.454   5.292   1.372  2.2304  0.5429 -0.6687
11230TIP3    H255182   6.377   5.374   1.271 -0.4797 -0.3050  0.6491
11231TIP3   OH255183   2.204   1.048   4.213  0.2660  0.0305  0.3697
11231TIP3    H155184   2.128   0.998   4.240  0.1293  1.4295  2.7515
11231TIP3    H255185   2.279   0.999   4.247  0.3246 -0.2537 -0.1593
11232TIP3   OH255186   1.468   0.810   0.463  0.0282 -0.0039  0.7347
11232TIP3    H155187   1.554   0.773   0.440 -0.5119 -0.1143 -1.1742
11232TIP3    H255188   1.483   0.905   0.463  0.5637 -0.0743  2.1609
11233TIP3   OH255189   3.149   2.622  16.792 -0.3175 -0.5108  0.0949
11233TIP3    H155190   3.179   2.543  16.748 -2.3849 -0.9638 -0.5201
11233TIP3    H255191   3.071   2.595  16.840  0.9057  0.3791  2.6537
11234TIP3   OH255192   5.956   1.478  14.473 -0.4663 -0.3559  0.4693
11234TIP3    H155193   5.946   1.535  14.550 -0.7794 -0.8389  0.7933
11234TIP3    H255194   5.875   1.491  14.423 -1.7319 -2.4389  1.8543
11235TIP3   OH255195   5.782   0.193  11.298 -0.1343  0.5119  0.2969
11235TIP3    H155196   5.725   0.259  11.258  0.5566  0.5740 -0.5909
11235TIP3    H255197   5.812   0.232  11.379 -1.1771  0.5737  0.6605
11236TIP3   OH255198   0.169   6.628  14.560 -0.1474 -0.4541  0.6233
11236TIP3    H155199   0.203   6.718  14.565 -1.3659  0.1122 -1.1214
11236TIP3    H255200   0.242   6.574  14.590  0.6985  1.0924  1.4238
11237TIP3   OH255201   6.432   5.175  12.676  0.2270  0.1825 -0.0362
11237TIP3    H155202   6.391   5.248  12.630 -0.4847 -0.1508  0.0554
11237TIP3    H255203   6.392   5.097  12.637  1.4977 -0.1801 -0.6235
11238TIP3   OH255204   3.382   0.307   5.836  0.4631  0.5737  0.9189
11238TIP3    H155205   3.362   0.378   5.897  1.5743  0.8428  0.9800
11238TIP3    H255206   3.452   0.258   5.879 -1.0471 -1.2439  1.3945
11239TIP3   OH255207   4.419   3.487   3.093  0.3783  0.3876 -0.2969
11239TIP3    H155208   4.495   3.539   3.120  0.1046  0.7790 -0.2648
11239TIP3    H255209   4.421   3.488   2.998  1.6704 -1.4776 -0.2999
11240TIP3   OH255210   1.619   6.671  15.327 -0.2511 -0.1232 -0.1042
11240TIP3    H155211   1.560   6.627  15.388 -0.0620  0.0780  0.2255
11240TIP3    H255212   1.611   6.622  15.246 -1.3317  0.2630 -0.2445
11241TIP3   OH255213   6.229   4.685  14.021 -0.7270  0.0566  0.4823
11241TIP3    H155214   6.194   4.672  13.933 -1.6412  1.6797  0.5831
11241TIP3    H255215   6.318   4.652  14.017 -0.7994  0.0306 -1.0245
11242TIP3   OH255216   0.702   2.140   0.846  0.2799  0.3741  0.0248
11242TIP3    H155217   0.745   2.225   0.849 -0.7006  0.9407 -1.6080
11242TIP3    H255218   0.620   2.154   0.894  0.4556  0.1525  0.3889
11243TIP3   OH255219   5.503   5.275   0.923  0.4393  0.6471 -0.4081
11243TIP3    H155220   5.461   5.278   0.837  0.4314  1.0927 -0.3884
11243TIP3    H255221   5.581   5.329   0.914 -0.1737  1.6558  0.1981
11244TIP3   OH255222   0.733   4.673  14.068 -0.0861  0.0968 -0.4664
11244TIP3    H155223   0.715   4.581  14.047 -0.1956  0.1268 -0.5020
11244TIP3    H255224   0.781   4.669  14.151  1.4206 -0.0964 -1.3124
11245TIP3   OH255225   4.415   3.977   5.938  0.3246 -0.9230  0.6787
11245TIP3    H155226   4.361   3.913   5.892 -0.9674  1.0932 -0.7054
11245TIP3    H255227   4.359   4.010   6.008 -0.3125  1.2155 -0.7922
11246TIP3   OH255228   5.928   5.018   5.636  0.5056 -0.1465  0.3556
11246TIP3    H155229   5.882   5.096   5.604  1.5064  0.3396  0.0895
11246TIP3    H255230   5.927   5.027   5.731  0.0705 -0.1284  0.3513
11247TIP3   OH255231   4.066   1.278   6.491  0.9145 -0.1570 -0.0619
11247TIP3    H155232   4.041   1.358   6.537  1.5719  0.4285 -0.7174
11247TIP3    H255233   4.045   1.207   6.553 -1.4965  0.3682 -0.2503
11248TIP3   OH255234   3.805   5.170  14.205 -0.5109 -0.0386  0.1735
11248TIP3    H155235   3.832   5.125  14.125 -0.8074 -0.1969  0.1631
11248TIP3    H255236   3.714   5.144  14.218  0.0392 -1.4045  1.5093
11249TIP3   OH255237   3.566   4.463   1.366  0.3541 -0.4789  0.1184
11249TIP3    H155238   3.643   4.410   1.347 -0.0099 -1.1738  0.6009
11249TIP3    H255239   3.540   4.499   1.281  0.6680 -0.9737 -0.1876
11250TIP3   OH255240   4.123   4.632   4.750  0.1036  0.3427  0.0141
11250TIP3    H155241   4.102   4.613   4.658  0.8907 -0.2626 -0.0425
11250TIP3    H255242   4.209   4.675   4.746  0.2185  0.1549  0.4750
11251TIP3   OH255243   3.979   6.418   1.484 -0.0200  0.3535 -0.3288
11251TIP3    H155244   4.037   6.476   1.534  0.7135  0.0273 -0.7841
11251TIP3    H255245   4.000   6.330   1.516 -1.8792  0.4072  1.1178
11252TIP3   OH255246   4.444   0.512  15.770  0.1587  0.2929 -0.0065
11252TIP3    H155247   4.415   0.432  15.814  0.0551 -0.4330 -1.3759
11252TIP3    H255248   4.386   0.519  15.694  1.7871  0.3221 -1.2477
11253TIP3   OH255249   3.442   2.566  15.639 -0.2556 -0.5755  0.0935
11253TIP3    H155250   3.534   2.558  15.614  0.2238 -0.0323  1.6252
11253TIP3    H255251   3.398   2.602  15.561  0.4554 -2.6980 -1.3151
11254TIP3   OH255252   0.684   3.556  11.247  0.7322 -0.2355  0.0081
11254TIP3    H155253   0.746   3.605  11.193 -0.4115 -0.5210 -1.5872
11254TIP3    H255254   0.717   3.466  11.247  2.3835  0.3323  2.2707
11255TIP3   OH255255   0.340   0.493   2.778  0.3896 -0.1008 -0.2412
11255TIP3    H155256   0.358   0.558   2.846  1.0100 -0.8825  0.3388
11255TIP3    H255257   0.422   0.446   2.767 -0.2573 -1.2577 -0.1694
11256TIP3   OH255258   1.766   4.933   0.063  0.1757 -0.4054  0.2547
11256TIP3    H155259   1.817   4.957  -0.014 -0.7295 -0.7673 -0.4642
11256TIP3    H255260   1.741   5.016   0.102 -0.5440 -0.2083 -0.6259
11257TIP3   OH255261   1.944   3.830   1.327 -0.1816  0.0757  0.2015
11257TIP3    H155262   1.983   3.744   1.307 -0.1813  0.3483 -1.0075
11257TIP3    H255263   1.985   3.856   1.409 -0.3820 -1.2106  0.7250
11258TIP3   OH255264   5.003   1.841  10.729 -0.2802  0.0437 -1.0428
11258TIP3    H155265   4.953   1.907  10.680  0.8135  1.3653 -0.3835
11258TIP3    H255266   5.094   1.859  10.707  0.0894 -0.5630 -0.0025
11259TIP3   OH255267   5.709   0.662  17.038 -0.1247 -0.6184  0.0946
11259TIP3    H155268   5.775   0.612  16.990 -0.8952 -1.0152 -0.5676
11259TIP3    H255269   5.735   0.654  17.130  0.5433 -1.0673 -0.1311
11260TIP3   OH255270   4.215   1.719   1.825  0.3355 -0.0055  0.7615
11260TIP3    H155271   4.164   1.683   1.753  1.0552 -1.6773  1.0665
11260TIP3    H255272   4.230   1.811   1.801 -2.2925  0.3668  0.3999
11261TIP3   OH255273   3.113   1.246  16.911 -0.1779  0.0899 -0.1009
11261TIP3    H155274   3.124   1.151  16.908 -1.9575 -0.1583  0.7907
11261TIP3    H255275   3.174   1.275  16.979 -0.6195 -0.5688  0.5780
11262TIP3   OH255276   2.111   0.480  12.214  0.5260  0.5881 -0.2142
11262TIP3    H155277   2.062   0.539  12.157 -2.6413 -0.6672  1.1195
11262TIP3    H255278   2.097   0.515  12.302  4.1577  1.6558  0.0282
11263TIP3   OH255279   5.258   6.090   2.728  0.1930  0.2628 -0.1388
11263TIP3    H155280   5.214   6.057   2.806 -0.3388 -0.1503 -0.6155
11263TIP3    H255281   5.269   6.184   2.745  0.9304  0.0075  0.8348
11264TIP3   OH255282   5.070   4.393  13.190  0.5010 -0.1178  0.2133
11264TIP3    H155283   5.096   4.391  13.098  2.4509 -1.9252  0.7599
11264TIP3    H255284   5.009   4.320  13.200 -0.2704  0.5199  0.2124
11265TIP3   OH255285   4.646   5.594  15.873 -0.1376 -0.0303 -0.0732
11265TIP3    H155286   4.584   5.627  15.808 -1.3850  1.6560  1.8958
11265TIP3    H255287   4.592   5.540  15.931  0.6901 -0.4440  0.3050
11266TIP3   OH255288   1.008   6.206  15.780 -0.4584  0.3951 -0.1919
11266TIP3    H155289   1.016   6.269  15.709 -2.1901 -0.0051 -0.7785
11266TIP3    H255290   1.023   6.257  15.859  0.4053  1.0651 -0.7683
11267TIP3   OH255291   3.899   3.894  16.225 -0.1788  0.3404 -0.4613
11267TIP3    H155292   3.868   3.808  16.198  0.6643  0.2612 -1.1731
11267TIP3    H255293   3.992   3.895  16.202 -0.0079  1.1566  0.2399
11268TIP3   OH255294   2.784   4.046   2.290  0.2050  0.3019 -0.4807
11268TIP3    H155295   2.856   4.083   2.342 -2.4325  1.6706  2.3775
11268TIP3    H255296   2.783   4.098   2.210  0.4516  2.4007  0.8384
11269TIP3   OH255297   1.603   0.675  13.147  0.2519 -0.2015  0.3361
11269TIP3    H155298   1.678   0.617  13.161  2.3815  2.2073 -0.5359
11269TIP3    H255299   1.606   0.736  13.221 -0.5015  0.2688 -0.0166
11270TIP3   OH255300   2.803   3.248   4.173  0.0440 -0.4884 -0.1497
11270TIP3    H155301   2.827   3.321   4.116  2.9346 -1.6287 -0.4667
11270TIP3    H255302   2.783   3.289   4.257 -1.8136  0.9673 -1.2571
11271TIP3   OH255303   3.767   4.941   0.275 -0.4519  0.0237 -0.4850
11271TIP3    H155304   3.791   5.033   0.277 -0.1485 -0.0685  0.2899
11271TIP3    H255305   3.847   4.896   0.249 -0.2235 -0.1404  0.4922
11272TIP3   OH255306   3.839   1.652  16.141 -0.4916 -0.1890 -0.5916
11272TIP3    H155307   3.865   1.563  16.119  2.2081  0.2690  0.5536
11272TIP3    H255308   3.785   1.643  16.219 -0.9672 -0.8764 -0.9927
11273TIP3   OH255309   3.053   0.452  13.496 -0.0986  0.0120 -0.5100
11273TIP3    H155310   3.135   0.499  13.486 -0.1316  0.4706  1.2255
11273TIP3    H255311   2.992   0.517  13.532 -0.7165 -0.7925 -0.0704
11274TIP3   OH255312   1.572   2.962   3.019 -0.6365 -0.3461 -0.8360
11274TIP3    H155313   1.568   3.006   3.103  1.1398  0.6655 -1.2542
11274TIP3    H255314   1.513   3.012   2.962  0.6606  0.9464 -1.0600
11275TIP3   OH255315   6.542   2.391  11.422 -0.6374 -0.4338  0.3650
11275TIP3    H155316   6.478   2.462  11.419 -1.3522 -1.0958 -0.7029
11275TIP3    H255317   6.531   2.347  11.337 -0.2415 -1.8402  1.0402
11276TIP3   OH255318   3.924   4.756  12.547  0.1145  0.0515  0.4825
11276TIP3    H155319   3.849   4.814  12.535  0.3289  0.3946  0.7826
11276TIP3    H255320   3.952   4.770  12.638 -0.0371 -0.7690  0.6656
11277TIP3   OH255321   3.140   5.964   2.035  0.2289  0.2319 -0.5975
11277TIP3    H155322   3.213   6.018   2.003  0.5417 -0.1783 -0.5700
11277TIP3    H255323   3.166   5.874   2.017 -0.8319  0.1365 -1.7628
11278TIP3   OH255324   4.598   6.268   1.080 -0.1056  0.3346  0.6581
11278TIP3    H155325   4.511   6.229   1.088  0.7032 -1.9069 -0.7638
11278TIP3    H255326   4.622   6.293   1.170 -2.0380  0.6172  1.1059
11279TIP3   OH255327   4.291   5.808   1.791 -0.1864 -0.1514  0.2992
11279TIP3    H155328   4.310   5.870   1.861 -1.0419 -1.6077  1.8533
11279TIP3    H255329   4.234   5.743   1.831  1.9321 -2.8108 -0.8236
11280TIP3   OH255330   1.048   1.885   1.761 -0.1273 -0.1389 -0.4061
11280TIP3    H155331   1.014   1.804   1.798  0.1318 -0.1468 -0.1879
11280TIP3    H255332   1.137   1.864   1.734  0.3270  0.3707  0.6572
11281TIP3   OH255333   1.614   4.481  13.081 -1.0180  0.2750 -0.2775
11281TIP3    H155334   1.556   4.405  13.082 -1.1824  0.4110  0.7132
11281TIP3    H255335   1.637   4.495  13.173  1.9630 -0.8117 -0.7932
11282TIP3   OH255336   3.854   6.140  15.082 -0.1187  0.0365 -0.6463
11282TIP3    H155337   3.923   6.186  15.130  0.1763 -2.6453  1.6137
11282TIP3    H255338   3.790   6.208  15.062  1.3019  1.8268  0.6781
11283TIP3   OH255339   3.826   1.043   0.448 -0.6632 -0.2227  0.5989
11283TIP3    H155340   3.776   0.984   0.392 -0.9049 -0.0516  0.6322
11283TIP3    H255341   3.807   1.014   0.537  0.9376 -1.4795  0.5622
11284TIP3   OH255342   6.602   5.246  15.885  0.3703  0.1563 -0.3581
11284TIP3    H155343   6.636   5.335  15.890 -1.1534  0.7902 -0.9647
11284TIP3    H255344   6.607   5.224  15.792 -1.6519  0.5886 -0.5925
11285TIP3   OH255345   6.548   0.825   5.932  0.1607 -0.0474  0.0189
11285TIP3    H155346   6.484   0.858   5.994 -0.9089 -0.7950 -0.6753
11285TIP3    H255347   6.629   0.819   5.982 -0.3586  0.7077  0.9532
11286TIP3   OH255348   5.034   3.281  12.927 -0.0942 -0.2406 -0.3960
11286TIP3    H155349   5.053   3.212  12.863 -0.8242  0.1127 -1.0157
11286TIP3    H255350   5.117   3.299  12.970  0.2792 -0.9086 -0.8344
11287TIP3   OH255351   5.175   2.699  16.092  0.1189 -0.2102  0.1876
11287TIP3    H155352   5.088   2.665  16.071  1.3152 -3.0128 -0.3725
11287TIP3    H255353   5.179   2.700  16.187 -0.8266  0.7962  0.2311
11288TIP3   OH255354   0.354   6.119  15.496 -0.9332  0.1362  0.3617
11288TIP3    H155355   0.298   6.086  15.566 -0.8240 -0.6454  0.0858
11288TIP3    H255356   0.372   6.210  15.520  0.0674 -0.4675  1.9363
11289TIP3   OH255357   1.327   3.540  12.397  0.2212 -0.4388 -0.2210
11289TIP3    H155358   1.255   3.591  12.359 -0.6903 -0.6284  1.2064
11289TIP3    H255359   1.304   3.449  12.380  0.0163 -0.5081  0.4013
11290TIP3   OH255360   2.584   3.403   4.303  0.0151 -0.2439 -0.4770
11290TIP3    H155361   2.538   3.384   4.221  0.1507  1.4652 -0.9627
11290TIP3    H255362   2.559   3.493   4.324  1.4911 -0.0186  0.3663
11291TIP3   OH255363   3.832   3.600   3.342  0.3504  0.2236  0.5723
11291TIP3    H155364   3.737   3.608   3.339  0.3806  0.9384  1.3185
11291TIP3    H255365   3.850   3.516   3.300 -0.4221  1.1549 -1.6774
11292TIP3   OH255366   3.516   0.789  12.682 -0.0511 -0.2119 -0.3635
11292TIP3    H155367   3.446   0.767  12.621 -0.8380 -0.8922  0.7687
11292TIP3    H255368   3.504   0.728  12.755  0.0183  1.4894  1.0993
11293TIP3   OH255369   3.373   5.777  11.551 -0.2708 -0.1035 -0.6916
11293TIP3    H155370   3.373   5.869  11.526  1.2152  0.2525  0.5488
11293TIP3    H255371   3.314   5.735  11.488 -1.7881  1.8517 -0.6139
11294TIP3   OH255372   3.794   3.850   2.678  0.4658 -0.2072 -0.4047
11294TIP3    H155373   3.734   3.856   2.753 -0.6400  2.4333 -1.4351
11294TIP3    H255374   3.881   3.844   2.718 -0.2954 -1.8502  1.0928
11295TIP3   OH255375   4.662   3.716   4.918  0.2680 -0.1371  0.1611
11295TIP3    H155376   4.733   3.659   4.947 -1.8605 -1.8184  2.2142
11295TIP3    H255377   4.597   3.657   4.881 -0.4543  1.3144 -0.9804
11296TIP3   OH255378   4.627   5.109  15.605 -0.6941 -0.2873  0.1117
11296TIP3    H155379   4.679   5.061  15.542  0.2869  0.4035  0.3890
11296TIP3    H255380   4.545   5.060  15.611 -0.9624 -0.1291 -1.9794
11297TIP3   OH255381   3.566   4.429   0.115 -0.2673  0.5575 -0.2768
11297TIP3    H155382   3.582   4.519   0.147  0.1687  0.4688 -0.2332
11297TIP3    H255383   3.556   4.439   0.021  1.1900  0.4838 -0.4532
11298TIP3   OH255384   3.278   0.135   1.428 -0.2191 -0.6610 -0.0990
11298TIP3    H155385   3.356   0.080   1.432  1.1661  0.7571 -4.4131
11298TIP3    H255386   3.212   0.079   1.385 -0.6092 -0.8236  0.7042
11299TIP3   OH255387   5.814   0.710  17.285 -0.6283  0.8411 -0.0938
11299TIP3    H155388   5.792   0.668  17.368 -1.3220 -0.4869 -0.9315
11299TIP3    H255389   5.852   0.794  17.310 -1.0417  0.5525  1.5589
11300TIP3   OH255390   2.133   2.923   6.357 -0.2062 -0.2623 -0.0221
11300TIP3    H155391   2.041   2.950   6.357 -0.7357 -1.9376  2.2920
11300TIP3    H255392   2.179   2.994   6.400 -0.3900  0.5913 -1.1996
11301TIP3   OH255393   4.798   3.396   0.599  0.1082  0.6520  0.4409
11301TIP3    H155394   4.813   3.427   0.689  1.7877  2.0225 -0.2944
11301TIP3    H255395   4.823   3.469   0.543 -3.3465  0.7228 -1.1246
11302TIP3   OH255396   0.229   5.801   1.270  0.2067 -0.7393  0.4756
11302TIP3    H155397   0.267   5.886   1.293 -0.3260 -0.5990  0.8373
11302TIP3    H255398   0.139   5.821   1.246  0.3061 -1.0975 -0.2190
11303TIP3   OH255399   1.021   5.663  16.664 -0.3727  0.1075 -0.9225
11303TIP3    H155400   0.989   5.689  16.751  0.6420 -0.6649 -0.3037
11303TIP3    H255401   0.944   5.631  16.618 -0.8037 -0.1086 -0.0590
11304TIP3   OH255402   6.418   4.796  13.787 -0.1020  0.1198  0.7264
11304TIP3    H155403   6.372   4.877  13.809  1.4646  1.2264  0.0398
11304TIP3    H255404   6.491   4.792  13.849  0.5507 -0.0937 -0.0411
11305TIP3   OH255405   3.986   1.914  15.132 -0.5078 -0.4618 -0.1808
11305TIP3    H155406   3.941   1.993  15.103  0.7344 -0.0381 -1.0182
11305TIP3    H255407   4.046   1.893  15.060  0.7027 -0.9467  0.9455
11306TIP3   OH255408   1.362   3.685  14.172  0.7601  0.3701 -0.2171
11306TIP3    H155409   1.327   3.770  14.200 -1.8761 -0.8972  0.4795
11306TIP3    H255410   1.302   3.621  14.209  2.9021 -1.8502 -0.4530
11307TIP3   OH255411   4.195   6.069   5.267 -0.2904 -0.1710  0.8802
11307TIP3    H155412   4.140   6.136   5.227  0.0516  0.0745  0.8137
11307TIP3    H255413   4.156   5.986   5.240  1.6945 -0.0745 -2.5124
11308TIP3   OH255414   1.820   0.895   1.945 -0.6515  0.1984 -0.2948
11308TIP3    H155415   1.864   0.842   2.012  0.8436  0.7971 -0.7626
11308TIP3    H255416   1.733   0.912   1.981  0.2382  0.7907  1.6653
11309TIP3   OH255417   1.638   5.447  15.002  0.1938 -0.1828 -0.4873
11309TIP3    H155418   1.724   5.486  14.985 -0.9328  1.9046 -1.6779
11309TIP3    H255419   1.579   5.522  15.008 -1.6815 -1.6257 -0.4705
11310TIP3   OH255420   6.201   2.499  13.070 -0.2111 -0.0416 -0.4777
11310TIP3    H155421   6.270   2.563  13.055 -0.6393  0.0988 -1.9310
11310TIP3    H255422   6.231   2.420  13.027  0.3710 -0.8756  1.4208
11311TIP3   OH255423   3.882   0.032   3.847  0.2487 -0.0057  0.2205
11311TIP3    H155424   3.826   0.109   3.860 -1.2461 -0.9068 -0.7461
11311TIP3    H255425   3.848  -0.033   3.908 -1.2782 -1.3300 -1.9680
11312TIP3   OH255426   4.190   0.799   4.951 -0.2848 -0.2604 -0.1571
11312TIP3    H155427   4.155   0.888   4.952 -0.0833 -0.1153 -2.4766
11312TIP3    H255428   4.169   0.763   5.037 -1.0366  1.7692  0.5249
11313TIP3   OH255429   1.762   3.953  11.122 -1.1426 -0.0466  0.5348
11313TIP3    H155430   1.693   3.919  11.064 -1.1530 -3.1264  2.2684
11313TIP3    H255431   1.827   3.989  11.062 -2.1867 -1.1435 -1.3200
11314TIP3   OH255432   2.689   2.152   1.526  0.0166 -0.2170 -0.5988
11314TIP3    H155433   2.755   2.174   1.592  1.5550 -0.7038 -1.9239
11314TIP3    H255434   2.619   2.109   1.574  0.0691  1.4766  1.0413
11315TIP3   OH255435   4.332   5.596   4.292 -0.5382  0.0083  0.6490
11315TIP3    H155436   4.324   5.581   4.198  0.8805 -0.8738  0.6496
11315TIP3    H255437   4.277   5.672   4.309 -2.3075 -0.9701 -0.5778
11316TIP3   OH255438   0.820   6.442  12.312 -0.0992 -0.7472  0.2033
11316TIP3    H155439   0.831   6.503  12.385 -0.0632 -0.3447 -0.1354
11316TIP3    H255440   0.733   6.461  12.277  0.3545 -0.1041 -0.6124
11317TIP3   OH255441   3.423   1.672  16.581 -0.8665 -0.5549 -0.0009
11317TIP3    H155442   3.378   1.651  16.662  0.6687 -1.4218  0.6487
11317TIP3    H255443   3.487   1.738  16.605 -0.6951 -0.4999 -0.5910
11318TIP3   OH255444   1.311   6.012   1.705 -0.3907  0.1212 -0.6639
11318TIP3    H155445   1.392   5.962   1.713 -0.4254  0.1829  0.1151
11318TIP3    H255446   1.266   5.999   1.789 -0.2947  1.6390 -0.3695
11319TIP3   OH255447   2.862   3.980  13.520  0.0940  0.4009 -1.4450
11319TIP3    H155448   2.853   3.951  13.610  2.8138  0.7199 -1.0321
11319TIP3    H255449   2.781   3.951  13.477 -0.6604 -0.8675  0.7742
11320TIP3   OH255450   4.836   1.126   3.952  0.2453  0.2426  0.1142
11320TIP3    H155451   4.815   1.203   3.899 -1.1800 -0.4114 -0.3160
11320TIP3    H255452   4.860   1.161   4.038 -0.9823  1.1439  0.1036
11321TIP3   OH255453   4.046   4.376  16.930  0.5357  0.0166 -0.6982
11321TIP3    H155454   3.966   4.334  16.900 -0.9293  1.7186  0.7594
11321TIP3    H255455   4.080   4.318  16.997 -1.1477  0.8125  0.8684
11322TIP3   OH255456   5.647   1.507   4.400 -0.4528  0.0189 -0.3458
11322TIP3    H155457   5.572   1.490   4.456 -1.4059 -0.6804 -1.7975
11322TIP3    H255458   5.704   1.564   4.451 -1.9250  0.4658  0.7991
11323TIP3   OH255459   4.972   5.772  15.157  0.0995 -0.0464  0.0100
11323TIP3    H155460   5.010   5.741  15.075 -0.6648 -1.1011  0.0444
11323TIP3    H255461   4.945   5.692  15.203  0.5337  0.5266  1.2956
11324TIP3   OH255462   2.997   0.012   4.071  0.1479  0.1085 -0.4454
11324TIP3    H155463   3.056   0.070   4.118  0.8525  0.6098 -1.9398
11324TIP3    H255464   2.979  -0.059   4.133  1.1742  0.6787  0.5179
11325TIP3   OH255465   5.943   3.347  14.416  0.0356  0.8646 -0.1885
11325TIP3    H155466   6.037   3.333  14.408  0.0739  0.8643  0.2605
11325TIP3    H255467   5.932   3.442  14.416  0.1359  0.8830  0.8667
11326TIP3   OH255468   2.339   6.382  17.250 -0.1513  0.6282 -0.7180
11326TIP3    H155469   2.351   6.299  17.296  1.6893  0.9403 -0.6116
11326TIP3    H255470   2.367   6.448  17.313  1.6674  1.1046 -1.9973
11327TIP3   OH255471   4.121   2.636  13.315 -0.0637 -0.1986 -0.1177
11327TIP3    H155472   4.148   2.728  13.313 -0.5744 -0.0345  0.2730
11327TIP3    H255473   4.199   2.589  13.346 -0.6414  0.4455  2.4974
11328TIP3   OH255474   2.115   1.936   1.341 -0.2136  0.2096  0.3043
11328TIP3    H155475   2.161   1.872   1.395 -0.2619  0.6419  0.8533
11328TIP3    H255476   2.032   1.950   1.385 -2.0269 -2.4909 -2.0114
11329TIP3   OH255477   0.512   6.332   4.292 -0.7480 -0.2008 -0.1705
11329TIP3    H155478   0.508   6.352   4.198 -3.5958 -0.0677 -0.0591
11329TIP3    H255479   0.551   6.411   4.331  0.1051 -0.1038 -1.1717
11330TIP3   OH255480   2.848   2.594  10.573  0.2763  0.2548  0.8515
11330TIP3    H155481   2.762   2.601  10.613 -1.4683 -1.5565 -2.3294
11330TIP3    H255482   2.891   2.522  10.620 -1.5199 -1.4713 -0.0615
11331TIP3   OH255483   6.133   3.672  16.365  0.2912  0.0075  0.3474
11331TIP3    H155484   6.210   3.715  16.327  0.3604 -0.4131  0.0040
11331TIP3    H255485   6.130   3.587  16.321  1.1136 -0.9975  2.1963
11332TIP3   OH255486   0.198   0.054  16.999  0.0880 -0.8654 -0.1540
11332TIP3    H155487   0.103   0.042  16.995  0.1725 -1.5053 -0.2294
11332TIP3    H255488   0.234  -0.034  16.995  0.7306 -0.5630 -1.2246
11333TIP3   OH255489   1.103   4.592  11.792  0.3969  0.2096  0.6810
11333TIP3    H155490   1.027   4.535  11.807  1.0090 -0.8348 -0.1468
11333TIP3    H255491   1.074   4.678  11.822 -1.2431 -0.1021  0.0521
11334TIP3   OH255492   5.179   4.764  13.894  0.2444 -0.0584  0.3030
11334TIP3    H155493   5.200   4.678  13.857 -0.4028 -1.0557  2.1910
11334TIP3    H255494   5.263   4.806  13.907  0.4855  0.4105 -2.4673
11335TIP3   OH255495   4.387   2.554   0.719 -0.3223 -0.0928 -0.3689
11335TIP3    H155496   4.447   2.498   0.768  0.8594  0.0662 -1.5761
11335TIP3    H255497   4.416   2.643   0.739  0.2779 -0.0313 -1.4480
11336TIP3   OH255498   5.257   3.340  11.576  0.8652 -0.1263  0.0358
11336TIP3    H155499   5.223   3.426  11.553  0.1371 -0.0132  1.4860
11336TIP3    H255500   5.274   3.297  11.492 -2.3303  0.0389 -0.7532
11337TIP3   OH255501   6.489   0.747   4.693  0.2016  0.5679 -0.2592
11337TIP3    H155502   6.406   0.729   4.737 -0.1863  2.2763 -0.2477
11337TIP3    H255503   6.470   0.734   4.600  0.0254  0.5359 -0.2198
11338TIP3   OH255504   2.941   0.698  13.969 -0.2497 -0.2719 -0.1297
11338TIP3    H155505   3.025   0.694  13.923  0.3602  1.7633  0.7553
11338TIP3    H255506   2.949   0.633  14.039  0.6691  0.0736  0.0871
11339TIP3   OH255507   5.299   6.528   4.503 -0.2276  0.2968  0.5521
11339TIP3    H155508   5.305   6.588   4.577 -1.7971 -0.0681  0.9835
11339TIP3    H255509   5.226   6.470   4.524 -0.8977  0.3709 -1.4003
11340TIP3   OH255510   5.263   4.175   5.485 -0.1583  0.2239 -0.1958
11340TIP3    H155511   5.340   4.202   5.434  0.7558 -0.9670  0.5202
11340TIP3    H255512   5.285   4.087   5.517 -0.9903  0.6828  1.6942
11341TIP3   OH255513   6.206   0.706  11.575 -0.8200  0.2918  0.1526
11341TIP3    H155514   6.266   0.774  11.606 -0.0140 -0.7665  0.9558
11341TIP3    H255515   6.219   0.705  11.480  2.2360 -1.5359  0.5237
11342TIP3   OH255516   6.816   0.949   3.490  0.3607  0.2989 -0.3313
11342TIP3    H155517   6.904   0.984   3.505  0.4077  0.2200 -0.4211
11342TIP3    H255518   6.783   0.997   3.414  0.7122 -0.3681 -0.9123
11343TIP3   OH255519   0.405   1.448  10.735  0.4242  0.3587 -0.5376
11343TIP3    H155520   0.353   1.491  10.802 -0.6420 -0.4960 -0.7976
11343TIP3    H255521   0.419   1.359  10.768 -1.8941 -0.7433 -2.3415
11344TIP3   OH255522   6.092   5.440   6.349 -0.8056  0.1331 -0.2883
11344TIP3    H155523   6.036   5.487   6.410  0.0852  0.9288 -0.0664
11344TIP3    H255524   6.161   5.403   6.403 -0.1282  0.6597 -0.7779
11345TIP3   OH255525   2.214   2.450  12.317 -0.3188 -0.3695 -0.0528
11345TIP3    H155526   2.210   2.447  12.412 -1.2468  0.9752 -0.0395
11345TIP3    H255527   2.141   2.394  12.288 -0.9715  0.4402  0.0325
11346TIP3   OH255528   2.021   1.255  16.365  0.5734  0.3319  0.0008
11346TIP3    H155529   2.065   1.188  16.417 -0.2733  0.3209  0.7053
11346TIP3    H255530   1.948   1.285  16.419  0.3849  1.1651 -0.6875
11347TIP3   OH255531   0.489   0.929  13.915  0.3881 -0.2618  0.1825
11347TIP3    H155532   0.562   0.969  13.868  1.3571 -1.4519  0.6192
11347TIP3    H255533   0.442   1.002  13.955 -0.2893  0.7503 -2.3542
11348TIP3   OH255534   4.029   0.555  13.459  0.3406 -0.4481  0.8419
11348TIP3    H155535   3.987   0.575  13.376  0.5506 -3.3458 -0.0260
11348TIP3    H255536   4.053   0.640  13.496 -0.7123  0.9170 -1.5450
11349TIP3   OH255537   4.923   0.760   3.354 -0.3441 -0.1566  0.0826
11349TIP3    H155538   4.870   0.687   3.323 -0.0617 -0.0393 -0.7005
11349TIP3    H255539   4.859   0.822   3.390 -0.7432 -0.0545 -0.7713
11350TIP3   OH255540   4.389   2.848   0.011 -0.3300  0.0851  0.2279
11350TIP3    H155541   4.314   2.789   0.020  0.5883 -1.0303  0.7505
11350TIP3    H255542   4.385   2.880  -0.079 -1.4002 -0.0163  0.2400
11351TIP3   OH255543   5.239   6.707  12.229  0.1290  0.6776  0.5293
11351TIP3    H155544   5.309   6.744  12.176 -2.3445  1.7613 -2.1167
11351TIP3    H255545   5.233   6.616  12.200  1.3429  0.2065  1.7469
11352TIP3   OH255546   2.249   0.294  13.952  0.2322 -0.6147 -0.5468
11352TIP3    H155547   2.238   0.202  13.978 -0.1301 -1.0030 -2.0493
11352TIP3    H255548   2.217   0.297  13.862 -0.8437  1.2345 -0.1078
11353TIP3   OH255549   0.759   3.044  12.266  0.1118 -0.4725 -0.6973
11353TIP3    H155550   0.775   3.138  12.272 -0.3949 -0.5472  3.0854
11353TIP3    H255551   0.682   3.036  12.209 -1.0168  1.5418  0.5048
11354TIP3   OH255552   1.375   3.234   6.089 -0.5297 -0.0785  0.3028
11354TIP3    H155553   1.383   3.191   6.004  2.1074 -0.7475  0.8403
11354TIP3    H255554   1.374   3.163   6.153  1.4553  0.5091  1.0442
11355TIP3   OH255555   4.650   1.939   5.211 -0.7586 -0.0424 -0.1004
11355TIP3    H155556   4.683   1.952   5.300 -0.3769  0.5952 -0.3310
11355TIP3    H255557   4.557   1.921   5.222 -1.0420  1.6329  0.3237
11356TIP3   OH255558   5.917   4.678  10.941 -0.4899 -0.1522 -0.4086
11356TIP3    H155559   5.989   4.718  10.989 -0.5139 -0.7545  0.1347
11356TIP3    H255560   5.959   4.613  10.885 -0.4928  0.3406 -0.9947
11357TIP3   OH255561   6.311   1.591   4.553 -0.7740 -0.3594  0.6285
11357TIP3    H155562   6.364   1.544   4.617  0.0271 -1.3730 -0.7635
11357TIP3    H255563   6.225   1.549   4.558 -1.2344  0.7230  2.2727
11358TIP3   OH255564   4.505   6.612   4.781 -0.0469  0.0207  0.1408
11358TIP3    H155565   4.590   6.591   4.742  0.4617  1.5955  0.3505
11358TIP3    H255566   4.444   6.548   4.743  0.7916  0.3619 -1.8182
11359TIP3   OH255567   6.737   1.843  13.068  0.5467 -0.0205 -0.4511
11359TIP3    H155568   6.805   1.869  13.130  0.4259  1.9946 -1.1065
11359TIP3    H255569   6.657   1.836  13.120  0.7377  0.2551 -0.1206
11360TIP3   OH255570   1.023   5.704  14.751  0.5211 -0.7848 -0.1079
11360TIP3    H155571   1.023   5.789  14.794 -0.3646 -0.0008 -1.6005
11360TIP3    H255572   1.017   5.641  14.823 -0.3965  0.4584  0.9430
11361TIP3   OH255573   4.191   6.698  12.206  0.0559  0.3683 -0.4457
11361TIP3    H155574   4.268   6.697  12.262 -0.8019  0.0896  0.7458
11361TIP3    H255575   4.179   6.791  12.184  0.0899  0.5400  0.2560
11362TIP3   OH255576   1.049   6.572   1.728  0.2447 -0.8593 -0.7569
11362TIP3    H155577   1.124   6.630   1.737 -0.1799 -0.4500  0.2137
11362TIP3    H255578   1.068   6.519   1.651  1.3886 -0.5549 -0.6838
11363TIP3   OH255579   1.572   4.859   4.577 -0.3684  0.1777 -0.0017
11363TIP3    H155580   1.618   4.778   4.598 -1.0488 -0.7899 -2.0923
11363TIP3    H255581   1.481   4.833   4.563 -0.6591  1.3418 -0.3807
11364TIP3   OH255582   2.121   4.580   6.012  0.2994 -0.0321 -0.1496
11364TIP3    H155583   2.153   4.563   6.101  1.1646  1.0872 -0.2308
11364TIP3    H255584   2.034   4.617   6.025  0.3395 -0.0646  0.2312
11365TIP3   OH255585   3.891   5.907   4.870 -0.0733 -0.1530  0.4274
11365TIP3    H155586   3.848   5.872   4.948 -0.1295 -0.6450  0.1786
11365TIP3    H255587   3.821   5.948   4.820 -0.1295 -0.3055  0.3796
11366TIP3   OH255588   6.669   2.007  11.387  0.5754  0.3135  0.0289
11366TIP3    H155589   6.740   2.045  11.439  0.5176  0.5909 -0.0960
11366TIP3    H255590   6.611   1.965  11.451 -1.7573  4.2402  0.6526
11367TIP3   OH255591   4.108   2.617   1.506 -0.6381  0.2685 -0.5905
11367TIP3    H155592   4.078   2.666   1.583  1.3301  0.3453  0.1613
11367TIP3    H255593   4.094   2.526   1.529  2.6786  0.1393  1.1015
11368TIP3   OH255594   0.064   6.783  15.416 -0.4595  0.3230  0.0344
11368TIP3    H155595   0.082   6.730  15.493  0.7859 -0.4896 -0.7967
11368TIP3    H255596   0.123   6.749  15.349 -1.8448  0.7040 -1.4253
11369TIP3   OH255597   3.763   2.331   0.784  1.0426  0.0524 -0.0869
11369TIP3    H155598   3.813   2.361   0.708 -0.0546  1.2356 -0.3710
11369TIP3    H255599   3.708   2.260   0.751  0.1417  0.9505 -0.5567
11370TIP3   OH255600   6.292   3.005  13.960 -0.3909  0.9485  0.2064
11370TIP3    H155601   6.237   3.076  13.993 -0.7924  0.2716  1.0196
11370TIP3    H255602   6.283   2.935  14.025 -0.3304 -0.0109 -0.7900
11371TIP3   OH255603   4.461   4.392  11.846 -0.5949 -0.2473  0.1749
11371TIP3    H155604   4.420   4.434  11.921 -0.3826  0.2620  0.0051
11371TIP3    H255605   4.442   4.299  11.857  0.6322 -0.3433  1.5974
11372TIP3   OH255606   2.088   4.915  11.312 -0.2668  0.1454  0.0401
11372TIP3    H155607   2.097   4.988  11.373  0.3291 -0.3987  0.6039
11372TIP3    H255608   2.092   4.956  11.225 -1.3198  0.9366  0.3500
11373TIP3   OH255609   1.635   1.439  16.780  0.0917  0.0909  0.0187
11373TIP3    H155610   1.549   1.447  16.737 -0.7396  2.2003  1.9927
11373TIP3    H255611   1.620   1.375  16.850  0.2996 -0.0284 -0.0467
11374TIP3   OH255612   0.824   3.795   1.707 -0.4357  0.1235  0.3935
11374TIP3    H155613   0.895   3.827   1.762 -0.1344 -0.5259  0.3994
11374TIP3    H255614   0.839   3.836   1.622  0.5731 -0.8127  0.0954
11375TIP3   OH255615   6.659   0.298   3.081  0.0888  0.0687 -0.1765
11375TIP3    H155616   6.729   0.344   3.035  0.3043 -1.3807 -1.3543
11375TIP3    H255617   6.595   0.365   3.102  1.0198  1.1195 -0.6584
11376TIP3   OH255618   5.195   4.776   1.703  0.1563  0.4834 -0.2514
11376TIP3    H155619   5.153   4.723   1.771  1.5423  1.0030  1.0338
11376TIP3    H255620   5.243   4.713   1.650  0.1148  0.2208  0.0227
11377TIP3   OH255621   5.181   0.815   0.203  0.2336  0.3208  0.3851
11377TIP3    H155622   5.159   0.774   0.119  1.9222 -0.5255  0.3281
11377TIP3    H255623   5.176   0.743   0.266 -1.9358  1.1476  1.1915
11378TIP3   OH255624   6.727   1.912  14.523 -0.7399  0.1828 -0.4322
11378TIP3    H155625   6.807   1.901  14.472 -0.5842 -0.4720 -0.0610
11378TIP3    H255626   6.703   2.004  14.512  0.2870  0.4774 -0.2170
11379TIP3   OH255627   6.342   0.788  13.733 -0.0201  0.2633 -0.1116
11379TIP3    H155628   6.315   0.815  13.820 -2.0012  1.7184 -1.1449
11379TIP3    H255629   6.323   0.694  13.730 -0.4819  0.3213  0.8167
11380TIP3   OH255630   2.440   5.974   3.182  0.1403  0.3268  0.3669
11380TIP3    H155631   2.496   6.009   3.251  0.8695  1.2688 -0.6933
11380TIP3    H255632   2.478   6.007   3.101  0.6880 -2.6990 -0.6546
11381TIP3   OH255633   1.612   2.191   0.924 -0.2464  0.2147  0.2273
11381TIP3    H155634   1.531   2.140   0.916 -0.3476  0.5878 -1.3214
11381TIP3    H255635   1.607   2.255   0.854  0.0432  2.1841  1.9669
11382TIP3   OH255636   3.465   1.614   6.569 -0.2766 -0.2279 -0.1254
11382TIP3    H155637   3.485   1.635   6.478  1.8371 -2.6790 -0.2549
11382TIP3    H255638   3.385   1.562   6.565 -1.0217  0.9223 -0.4349
11383TIP3   OH255639   5.410   4.426  12.754  0.3627  0.4913 -0.3282
11383TIP3    H155640   5.360   4.392  12.679 -0.4680  0.7547  0.1016
11383TIP3    H255641   5.500   4.431  12.722  0.0189  0.5903 -1.3114
11384TIP3   OH255642   4.410   0.992   4.800 -0.4189  0.3010 -0.2473
11384TIP3    H155643   4.394   1.047   4.877 -0.3513  1.4621 -1.0439
11384TIP3    H255644   4.450   0.912   4.834  0.6339  1.2714  0.7995
11385TIP3   OH255645   4.977   0.869  16.667  0.1612  0.6105  0.6291
11385TIP3    H155646   5.039   0.866  16.740 -0.0666  2.9175  0.9596
11385TIP3    H255647   4.900   0.914  16.701  0.5093  2.8020 -1.3114
11386TIP3   OH255648   6.649   5.714   5.824  0.3643  0.2645 -0.1404
11386TIP3    H155649   6.739   5.717   5.790  1.0323  1.5699  1.6814
11386TIP3    H255650   6.598   5.679   5.751  2.5540 -1.8131 -0.7430
11387TIP3   OH255651   6.125   2.823   2.689 -0.5182 -0.5851 -0.3257
11387TIP3    H155652   6.105   2.788   2.776  0.6894  0.1551  0.2598
11387TIP3    H255653   6.175   2.903   2.706 -2.7884  1.1722 -1.6625
11388TIP3   OH255654   4.583   2.612  12.524  0.3745  0.4282  0.0887
11388TIP3    H155655   4.566   2.560  12.445  0.4574  0.4111  0.0830
11388TIP3    H255656   4.526   2.573  12.591  1.1406 -0.2685  0.3335
11389TIP3   OH255657   5.767   6.268  11.748  0.1864 -0.6616 -0.2970
11389TIP3    H155658   5.806   6.355  11.740 -0.3262 -0.3951  0.0543
11389TIP3    H255659   5.746   6.260  11.841 -0.8108 -0.7023 -0.5197
11390TIP3   OH255660   2.071   6.210   3.565 -0.2886 -0.0055 -0.7685
11390TIP3    H155661   2.165   6.196   3.560 -0.1616  0.6333 -0.1633
11390TIP3    H255662   2.036   6.126   3.594  0.2120  0.1011  0.1619
11391TIP3   OH255663   3.269   5.997  15.817  0.1965 -0.0338 -0.0905
11391TIP3    H155664   3.227   5.935  15.878  1.7106 -0.3830  0.6365
11391TIP3    H255665   3.261   5.956  15.731  0.0387 -0.6331  0.2075
11392TIP3   OH255666   2.235   1.708  16.798  0.7390 -0.1178  0.4631
11392TIP3    H155667   2.263   1.630  16.749  0.6215 -0.3152  0.7098
11392TIP3    H255668   2.232   1.679  16.889  0.4415  0.1083  0.5220
11393TIP3   OH255669   4.932   0.637   0.407  0.3704 -0.1931 -0.1624
11393TIP3    H155670   5.024   0.616   0.425  0.0998 -1.5817 -0.3111
11393TIP3    H255671   4.887   0.553   0.415 -0.7114  0.2805 -1.1783
11394TIP3   OH255672   4.237   1.730   5.240 -0.7313  0.4438 -0.0555
11394TIP3    H155673   4.207   1.655   5.291 -0.7687  0.1094 -0.5636
11394TIP3    H255674   4.198   1.806   5.283  1.3250  0.4195  2.0029
11395TIP3   OH255675   4.493   3.285   1.867 -0.3471 -0.1838 -0.5340
11395TIP3    H155676   4.419   3.235   1.901 -0.6673 -0.1347 -1.1452
11395TIP3    H255677   4.514   3.348   1.935 -0.8058 -0.2666 -0.3187
11396TIP3   OH255678   5.129   4.133   0.294 -0.3572  0.2225  0.0860
11396TIP3    H155679   5.168   4.160   0.211 -0.2716 -1.6220 -0.4949
11396TIP3    H255680   5.159   4.043   0.307 -0.0144  0.6156  2.3351
11397TIP3   OH255681   1.710   5.395   2.401 -0.5713 -0.1181 -0.0196
11397TIP3    H155682   1.711   5.439   2.316  0.4579 -1.5020 -0.7413
11397TIP3    H255683   1.683   5.305   2.381  0.4037 -0.6531  1.0115
11398TIP3   OH255684   2.897   3.987   1.539 -0.1991 -0.0459 -0.4486
11398TIP3    H155685   2.947   3.924   1.486  1.4119 -0.4933  1.5518
11398TIP3    H255686   2.819   3.939   1.565  0.5234 -0.8966  0.1925
11399TIP3   OH255687   1.585   1.077   2.748 -0.5611  0.3561 -0.5298
11399TIP3    H155688   1.535   1.011   2.699  0.1858  0.3874 -1.3362
11399TIP3    H255689   1.565   1.160   2.703  0.4882  0.3211 -1.0828
11400TIP3   OH255690   4.213   0.881  12.105  0.3323  0.3563  0.3993
11400TIP3    H155691   4.297   0.843  12.131 -0.1017 -1.5675 -0.8989
11400TIP3    H255692   4.237   0.954  12.048  1.1747  2.0553  2.8360
11401TIP3   OH255693   0.927   1.649  13.434 -0.0949 -0.2648  0.3963
11401TIP3    H155694   0.880   1.568  13.457 -0.3917  0.0868  1.0218
11401TIP3    H255695   0.946   1.639  13.340  0.7398 -1.5050  0.6710
11402TIP3   OH255696   3.682   1.856   0.976 -0.2108 -0.6681  0.6084
11402TIP3    H155697   3.618   1.927   0.976  0.7318  0.2049 -1.0510
11402TIP3    H255698   3.702   1.841   0.884  0.8830 -1.9335  1.0306
11403TIP3   OH255699   1.473   2.929   3.315  0.2227  0.3147 -0.1922
11403TIP3    H155700   1.490   2.837   3.295  0.0770  0.1936  0.2358
11403TIP3    H255701   1.432   2.928   3.401  0.3571  0.7938 -0.1186
11404TIP3   OH255702   5.970   5.836  13.383 -0.0107 -0.3804 -0.0932
11404TIP3    H155703   5.877   5.824  13.401 -0.5916  1.8605 -1.4285
11404TIP3    H255704   5.973   5.875  13.296  2.0167  1.8433  0.8963
11405TIP3   OH255705   1.716   2.964  15.153 -0.3053 -0.1380  0.7523
11405TIP3    H155706   1.633   3.011  15.166  0.3659  0.6590  2.1632
11405TIP3    H255707   1.747   2.994  15.067 -0.4166  1.1871  1.1690
11406TIP3   OH255708   0.874   1.077  11.677  0.4720  0.0733 -0.7329
11406TIP3    H155709   0.860   1.171  11.661 -0.8874 -0.5404 -3.4620
11406TIP3    H255710   0.786   1.043  11.691  0.9247 -0.8839 -0.2328
11407TIP3   OH255711   3.149   4.037   2.123  0.3340  0.2204 -0.8773
11407TIP3    H155712   3.220   4.044   2.059 -0.0480  0.1799 -1.3017
11407TIP3    H255713   3.112   4.125   2.128  0.9379  0.4405 -0.0471
11408TIP3   OH255714   1.472   3.544  12.129  0.6662 -0.0293 -0.0874
11408TIP3    H155715   1.407   3.570  12.196 -0.2103 -1.6021 -0.2942
11408TIP3    H255716   1.528   3.621  12.119 -2.0596  1.9475 -0.9769
11409TIP3   OH255717   3.909   0.844   5.114 -0.0074  0.0484  0.5861
11409TIP3    H155718   3.888   0.868   5.204  0.3480  0.9410  0.4331
11409TIP3    H255719   3.993   0.799   5.121  0.5640  1.1040  0.5716
11410TIP3   OH255720   2.077   3.237  12.133 -0.4499 -0.3324 -0.0797
11410TIP3    H155721   2.093   3.152  12.093 -1.7809 -0.2736 -0.7596
11410TIP3    H255722   2.140   3.295  12.092  0.6650 -1.0350  0.5965
11411TIP3   OH255723   2.312   4.241   5.746 -0.8652 -0.5643  0.3379
11411TIP3    H155724   2.253   4.307   5.783 -0.4067  0.5337 -0.8531
11411TIP3    H255725   2.367   4.290   5.684  0.7430 -1.7235  0.8210
11412TIP3   OH255726   6.135   6.538  16.233  0.2148  0.0261  0.1616
11412TIP3    H155727   6.139   6.484  16.154  0.4254 -0.3112  0.4018
11412TIP3    H255728   6.045   6.530  16.263  0.6010 -1.3476  0.9944
11413TIP3   OH255729   1.217   4.467   4.524  0.0045  0.0065 -0.0375
11413TIP3    H155730   1.174   4.397   4.476 -0.6386  0.0635  0.4472
11413TIP3    H255731   1.285   4.423   4.575  2.4322  0.2416 -2.9338
11414TIP3   OH255732   5.913   2.301  14.325  0.1511 -0.2332  0.5462
11414TIP3    H155733   5.826   2.277  14.291  0.7980  0.5199 -1.7200
11414TIP3    H255734   5.974   2.273  14.257  1.5532  0.8157  1.3484
11415TIP3   OH255735   0.393   3.869   4.483 -0.0963 -0.3930 -0.3118
11415TIP3    H155736   0.349   3.796   4.526  1.9523 -2.3469 -1.4091
11415TIP3    H255737   0.381   3.853   4.390 -0.9443  1.5261 -0.5408
11416TIP3   OH255738   4.277   2.655  15.827  0.1949  0.5527  1.0306
11416TIP3    H155739   4.260   2.618  15.914 -0.9179 -0.7715  0.2611
11416TIP3    H255740   4.191   2.659  15.785  0.8448  0.2800 -0.3571
11417TIP3   OH255741   4.387   4.918   5.796 -0.3089 -0.0840 -0.3254
11417TIP3    H155742   4.339   4.839   5.769 -0.0692  0.4474 -2.3527
11417TIP3    H255743   4.346   4.943   5.879 -1.6633 -1.2458 -0.6168
11418TIP3   OH255744   4.743   2.980   3.263  0.4786 -0.2800  0.3038
11418TIP3    H155745   4.780   2.957   3.348  1.1892 -0.1205  0.0429
11418TIP3    H255746   4.820   2.998   3.208 -0.0058  0.5199 -0.1101
11419TIP3   OH255747   3.054   6.029  12.600  0.3715  0.5475  0.6525
11419TIP3    H155748   3.007   6.102  12.640  0.2797  0.9011 -0.0977
11419TIP3    H255749   3.080   6.061  12.514  1.7533  0.2668  0.9540
11420TIP3   OH255750   3.514   5.787   1.309  0.2930 -0.0847  0.2125
11420TIP3    H155751   3.562   5.718   1.263  0.6515 -0.3685  1.0140
11420TIP3    H255752   3.423   5.756   1.310  0.6056 -0.9667  1.3695
11421TIP3   OH255753   0.856   1.225   4.295 -0.8820 -0.2144 -0.1258
11421TIP3    H155754   0.781   1.242   4.353 -1.2269  0.6937 -0.8346
11421TIP3    H255755   0.925   1.281   4.329 -1.3883  1.0759 -1.1938
11422TIP3   OH255756   3.703   1.692   1.404 -0.4585 -0.1706 -0.1756
11422TIP3    H155757   3.684   1.659   1.492  1.2837 -1.6490 -0.3163
11422TIP3    H255758   3.746   1.775   1.418 -0.4748 -0.2531  0.3590
11423TIP3   OH255759   2.580   4.120   0.743  0.1198 -0.0144 -0.0822
11423TIP3    H155760   2.569   4.140   0.650  2.7219 -0.2913 -0.4859
11423TIP3    H255761   2.672   4.095   0.752 -0.0892 -0.0372  2.5654
11424TIP3   OH255762   1.527   4.629   0.067  0.4243 -0.1379  0.2584
11424TIP3    H155763   1.531   4.711   0.117 -1.1158  0.5715 -0.7448
11424TIP3    H255764   1.561   4.652  -0.019 -0.4292 -0.4402 -0.1649
11425TIP3   OH255765   0.691   3.775   6.113  0.3814 -0.5842  0.3373
11425TIP3    H155766   0.756   3.767   6.183 -0.3353 -2.2754  0.8457
11425TIP3    H255767   0.607   3.771   6.158 -0.1037  1.4616 -0.3292
11426TIP3   OH255768   6.055   2.341   2.733  0.4078 -0.0205 -0.3113
11426TIP3    H155769   6.118   2.289   2.782  2.0339 -0.3376 -2.6172
11426TIP3    H255770   6.058   2.428   2.773  1.1942 -0.4463  0.5529
11427TIP3   OH255771   4.039   2.827   1.703 -0.3755 -0.5642 -0.8238
11427TIP3    H155772   4.057   2.920   1.713  0.9059 -0.8674 -0.1909
11427TIP3    H255773   4.003   2.800   1.788  1.9019 -1.2082 -0.0031
11428TIP3   OH255774   4.461   1.869   0.910 -0.6304  0.3671 -0.3366
11428TIP3    H155775   4.499   1.842   0.827 -1.0895 -1.4903  0.0463
11428TIP3    H255776   4.531   1.916   0.954 -0.1190  0.6350 -1.4045
11429TIP3   OH255777   6.257   2.606  12.205  0.2457  0.1221  0.7044
11429TIP3    H155778   6.202   2.546  12.154  0.5282  0.6164 -0.1895
11429TIP3    H255779   6.327   2.631  12.145  0.7335  0.5049  1.4276
11430TIP3   OH255780   5.594   4.313   1.916  0.0562  0.5747 -0.5170
11430TIP3    H155781   5.533   4.293   1.987  1.3404  0.1853  0.5012
11430TIP3    H255782   5.572   4.402   1.889 -1.9549 -0.1051 -1.1980
11431TIP3   OH255783   6.620   1.143  12.009 -0.6950  0.2020 -0.2598
11431TIP3    H155784   6.651   1.219  12.059  1.3014  0.1269 -1.3283
11431TIP3    H255785   6.564   1.096  12.070  0.0055  1.2261  1.2274
11432TIP3   OH255786   3.253   4.013  17.237 -0.2475  0.5637 -0.3087
11432TIP3    H155787   3.172   3.962  17.242 -1.0422  1.8435 -0.0664
11432TIP3    H255788   3.317   3.961  17.286 -0.8995 -0.4820 -0.5558
11433TIP3   OH255789   0.116   6.125  16.722 -0.4515  0.5515 -0.0172
11433TIP3    H155790   0.064   6.198  16.754  0.1328  0.6803  0.6412
11433TIP3    H255791   0.060   6.049  16.733 -0.6613  0.7492  0.2930
11434TIP3   OH255792   1.146   5.058   5.439  0.4511 -0.1378 -0.2072
11434TIP3    H155793   1.241   5.060   5.426  0.2223 -2.6853 -2.6258
11434TIP3    H255794   1.110   5.101   5.361 -0.4211 -0.4577  0.0096
11435TIP3   OH255795   6.366   0.058  15.280 -0.1830  0.3828 -0.4142
11435TIP3    H155796   6.373   0.026  15.370 -2.7166  1.3320  0.1439
11435TIP3    H255797   6.278   0.034  15.252  0.1110  1.2783 -2.1831
11436TIP3   OH255798   2.688   0.390   2.671  0.8138 -0.0295  0.8675
11436TIP3    H155799   2.705   0.404   2.578 -1.9754 -0.1460  0.2917
11436TIP3    H255800   2.771   0.411   2.714  1.6002  1.8854 -1.4597
11437TIP3   OH255801   3.111   3.426   5.709  0.1141 -0.4801 -0.1514
11437TIP3    H155802   3.170   3.418   5.633 -0.3136 -1.0635 -0.4253
11437TIP3    H255803   3.036   3.370   5.687  0.0782 -0.8110  0.7863
11438TIP3   OH255804   5.475   5.586  16.555 -0.0477 -0.5091  0.2012
11438TIP3    H155805   5.447   5.558  16.467  2.0278 -0.0250 -0.6510
11438TIP3    H255806   5.545   5.525  16.578  1.1293  0.9091  0.4389
11439TIP3   OH255807   6.577   1.764  16.926 -0.4376  0.0726 -0.1338
11439TIP3    H155808   6.558   1.818  17.003  0.1340  1.4928 -0.9652
11439TIP3    H255809   6.667   1.734  16.939 -1.5173 -2.6243  1.4428
11440TIP3   OH255810   3.222   4.189   3.721 -0.2041  0.3476 -0.2278
11440TIP3    H155811   3.252   4.228   3.803 -0.5036 -0.7148  0.3965
11440TIP3    H255812   3.294   4.131   3.694 -0.1406  0.6303 -0.6804
11441TIP3   OH255813   2.012   3.155  13.450 -0.0240 -0.3694 -0.8344
11441TIP3    H155814   1.971   3.241  13.459  1.8244  0.6137 -1.3880
11441TIP3    H255815   2.046   3.154  13.361  1.6104 -0.9104 -0.2217
11442TIP3   OH255816   6.508   0.423   1.885  0.1878  0.0406 -0.0245
11442TIP3    H155817   6.421   0.416   1.846  0.4672  1.1328 -0.8783
11442TIP3    H255818   6.524   0.337   1.924  0.2081 -1.3348 -2.9507
11443TIP3   OH255819   1.956   6.265   4.833  0.3490 -0.1378 -0.1127
11443TIP3    H155820   1.879   6.253   4.777  0.8185 -0.6663 -0.6515
11443TIP3    H255821   1.931   6.335   4.893 -0.1089  0.5174 -1.0645
11444TIP3   OH255822   6.504   2.593  13.054  0.5772 -0.6402  0.1295
11444TIP3    H155823   6.560   2.610  12.978  0.5795 -1.0965  0.0256
11444TIP3    H255824   6.553   2.628  13.128  0.2047  0.5377 -0.1850
11445TIP3   OH255825   5.931   0.411  17.238  0.0820  0.0540 -0.1982
11445TIP3    H155826   6.007   0.387  17.290 -0.7626  1.3359  1.7150
11445TIP3    H255827   5.922   0.505  17.251 -1.5028  0.0084 -0.8417
11446TIP3   OH255828   4.638   5.145  14.754 -0.0370 -0.2341 -0.2163
11446TIP3    H155829   4.610   5.230  14.789  0.7722 -0.3819  0.8303
11446TIP3    H255830   4.607   5.144  14.664 -2.5157  0.0179  0.5974
11447TIP3   OH255831   5.119   3.316   5.780  0.0856  0.0026  0.5106
11447TIP3    H155832   5.130   3.380   5.850 -0.1213 -0.0059  0.5506
11447TIP3    H255833   5.113   3.368   5.700  1.9413 -0.0512  0.3061
11448TIP3   OH255834   6.244   4.451   2.270  0.2742  0.4516  0.1375
11448TIP3    H155835   6.304   4.519   2.301  0.1842  0.9449 -0.7569
11448TIP3    H255836   6.215   4.482   2.185 -1.0631  0.0879  0.4543
11449TIP3   OH255837   4.144   1.652   6.677  0.5407  0.4038 -0.1019
11449TIP3    H155838   4.214   1.588   6.687  1.3601  1.6031  2.0562
11449TIP3    H255839   4.066   1.598   6.662  1.6594 -0.9866 -1.1533
11450TIP3   OH255840   0.711   0.191   4.440  0.9002  0.2082 -0.8466
11450TIP3    H155841   0.666   0.152   4.366  0.8012 -0.0228 -0.6672
11450TIP3    H255842   0.675   0.280   4.447 -0.1010 -0.2398 -0.2217
11451TIP3   OH255843   2.916   2.479  11.178 -0.6168 -0.3100 -0.0943
11451TIP3    H155844   2.998   2.438  11.150 -0.9504 -1.2574  0.2801
11451TIP3    H255845   2.866   2.491  11.097  0.6774  2.0837 -0.5750
11452TIP3   OH255846   2.288   4.399  17.045  0.0748 -0.3150 -0.0937
11452TIP3    H155847   2.324   4.469  16.990 -1.6892  1.1429  0.5742
11452TIP3    H255848   2.254   4.444  17.122 -2.5342 -1.7021 -0.3786
11453TIP3   OH255849   2.961   1.800  13.960  0.0188 -0.3521  0.0686
11453TIP3    H155850   3.016   1.761  13.892 -1.0091 -0.6861 -0.5811
11453TIP3    H255851   3.024   1.836  14.023  0.9834 -1.3149 -0.3155
11454TIP3   OH255852   4.393   2.820  11.923  0.1381  0.2218 -0.1156
11454TIP3    H155853   4.360   2.908  11.940 -1.5870  0.1225 -2.7116
11454TIP3    H255854   4.473   2.814  11.976 -0.1162  3.0663  0.6702
11455TIP3   OH255855   0.411   2.110   1.477 -0.4354 -0.5589 -0.1741
11455TIP3    H155856   0.477   2.044   1.498 -0.8988 -0.4992  1.5041
11455TIP3    H255857   0.389   2.150   1.561 -2.8715 -0.8140 -0.6641
11456TIP3   OH255858   0.620   1.156  17.116 -1.1829  0.1789  0.5132
11456TIP3    H155859   0.705   1.128  17.150  0.0883  2.2256 -0.7871
11456TIP3    H255860   0.567   1.077  17.115  1.3521 -1.5988 -0.5234
11457TIP3   OH255861   2.412   5.566  16.963  0.1183 -0.3089  0.2576
11457TIP3    H155862   2.367   5.543  16.882 -0.7448  2.2019 -0.0178
11457TIP3    H255863   2.343   5.569  17.029  0.8455 -2.5196  1.1819
11458TIP3   OH255864   0.134   0.823  15.300 -0.1354  0.4927  0.4532
11458TIP3    H155865   0.113   0.730  15.291 -1.1316  0.7853 -0.3105
11458TIP3    H255866   0.050   0.867  15.311 -0.1505  1.7901 -3.8778
11459TIP3   OH255867   3.615   3.966   1.154 -0.1667 -0.1465  0.5599
11459TIP3    H155868   3.577   3.945   1.239 -0.4954  0.0933  0.4738
11459TIP3    H255869   3.578   3.902   1.094  2.5133 -2.3429  1.1694
11460TIP3   OH255870   5.474   0.649   3.520 -0.1928  0.0472  0.1586
11460TIP3    H155871   5.494   0.686   3.434  1.2777 -0.3858  0.3011
11460TIP3    H255872   5.379   0.661   3.530 -0.3947  0.0042 -1.5639
11461TIP3   OH255873   0.467   5.835  14.528 -0.0469  0.3624  0.2874
11461TIP3    H155874   0.518   5.760  14.497 -0.3377  1.0168 -1.7794
11461TIP3    H255875   0.530   5.887  14.579  0.3421 -0.8889  1.1050
11462TIP3   OH255876   3.602   1.914  16.275  0.4245  0.3832 -0.3437
11462TIP3    H155877   3.589   1.919  16.180  2.2297 -2.1492 -0.7759
11462TIP3    H255878   3.552   1.988  16.310 -0.7137  1.0437 -3.2109
11463TIP3   OH255879   0.476   5.193  16.134 -0.0635 -0.0790 -0.5289
11463TIP3    H155880   0.397   5.202  16.187 -0.1152  1.5819 -0.8639
11463TIP3    H255881   0.546   5.225  16.190  0.4163 -1.7629 -0.1491
11464TIP3   OH255882   3.253   0.542  15.051 -0.1605  0.2831  0.4801
11464TIP3    H155883   3.322   0.607  15.061 -1.4428  1.5059  1.4649
11464TIP3    H255884   3.249   0.526  14.956  0.5829  1.1634  0.2953
11465TIP3   OH255885   4.437   5.119  13.734  0.7898  0.1507  0.3589
11465TIP3    H155886   4.494   5.148  13.662  0.8403 -1.0143 -0.0840
11465TIP3    H255887   4.369   5.186  13.738  0.4242 -0.0974 -1.2139
11466TIP3   OH255888   0.620   1.483  15.000 -0.7234 -0.0869  0.3748
11466TIP3    H155889   0.583   1.411  14.949 -0.1850  0.6527 -1.1022
11466TIP3    H255890   0.565   1.558  14.978  0.6257  0.6519 -0.5622
11467TIP3   OH255891   2.611   2.502  17.121 -0.1218 -0.1313 -0.1672
11467TIP3    H155892   2.523   2.537  17.136  0.0997  0.4000 -0.0775
11467TIP3    H255893   2.662   2.533  17.196  0.4857  0.7695 -0.9310
11468TIP3   OH255894   0.295   4.303  14.597 -0.2255 -0.3773 -0.0290
11468TIP3    H155895   0.235   4.361  14.644  0.0391 -0.2553  0.1594
11468TIP3    H255896   0.339   4.253  14.666 -0.3385 -0.6909 -0.1821
11469TIP3   OH255897   2.389   0.263   2.981  0.2500 -0.4512 -0.0958
11469TIP3    H155898   2.361   0.179   3.016 -0.1707  0.0828  0.8542
11469TIP3    H255899   2.478   0.246   2.948  0.4689 -1.0791  0.7825
11470TIP3   OH255900   3.680   1.767  12.910  0.6830 -0.1920  0.5004
11470TIP3    H155901   3.734   1.705  12.958 -0.9389 -2.3794 -0.3982
11470TIP3    H255902   3.618   1.713  12.861 -0.3039  2.1090 -0.9244
11471TIP3   OH255903   4.641   5.907   5.512 -0.1475  0.3815  0.7444
11471TIP3    H155904   4.586   5.955   5.450  1.6529  0.0382 -1.1840
11471TIP3    H255905   4.617   5.815   5.501  0.0531  0.3371  0.6620
11472TIP3   OH255906   6.337   0.286   3.760  0.0136 -0.4590 -0.3336
11472TIP3    H155907   6.270   0.308   3.825  0.3294 -1.8795  0.4957
11472TIP3    H255908   6.321   0.194   3.739  0.0696 -0.0732 -2.1022
11473TIP3   OH255909   5.488   1.896  13.433 -0.1515 -0.1231 -0.0601
11473TIP3    H155910   5.555   1.830  13.446  0.1933  0.3892  0.8673
11473TIP3    H255911   5.405   1.847  13.431  0.1879 -0.6784 -0.4542
11474TIP3   OH255912   6.352   2.565  15.514  0.0026 -0.3740  0.2550
11474TIP3    H155913   6.290   2.537  15.582  0.5253  0.0632  0.9119
11474TIP3    H255914   6.310   2.641  15.474 -0.5959 -1.0067 -0.3373
11475TIP3   OH255915   5.403   2.989  17.215  0.2058 -0.6901  0.0340
11475TIP3    H155916   5.483   2.990  17.163 -1.0815 -0.5154 -2.0055
11475TIP3    H255917   5.432   2.969  17.304  2.7261  1.4845 -0.2493
11476TIP3   OH255918   2.926   6.178  10.912 -0.2836 -0.0121 -0.3519
11476TIP3    H155919   2.992   6.247  10.916  0.2891 -0.6186  1.0986
11476TIP3    H255920   2.977   6.097  10.904 -0.9024 -0.3938 -0.4243
11477TIP3   OH255921   3.555   2.595  14.963  0.1695 -0.5580 -0.1204
11477TIP3    H155922   3.621   2.539  14.922  0.8261 -0.2941  0.5622
11477TIP3    H255923   3.509   2.636  14.890  0.4894 -1.0577 -0.6065
11478TIP3   OH255924   4.075   1.123  14.922  0.5276 -0.1473  0.1447
11478TIP3    H155925   4.162   1.132  14.883  0.0300 -0.2949 -1.0177
11478TIP3    H255926   4.024   1.194  14.885 -0.5825 -1.6332 -1.2351
11479TIP3   OH255927   0.561   5.340  13.758 -0.6009 -0.2709  0.3524
11479TIP3    H155928   0.644   5.366  13.798 -1.0042  1.4918  0.1118
11479TIP3    H255929   0.494   5.376  13.816 -1.1891 -0.1843 -0.3714
11480TIP3   OH255930   3.018   3.360   2.252  0.0878  0.0969  0.6470
11480TIP3    H155931   3.062   3.283   2.217 -0.1777 -0.0098  0.5506
11480TIP3    H255932   3.088   3.424   2.263  0.2967 -0.1335  0.6606
11481TIP3   OH255933   5.299   0.666  17.069 -0.0254  0.6678  0.2184
11481TIP3    H155934   5.326   0.649  16.979  0.5187 -0.9266  0.6786
11481TIP3    H255935   5.368   0.722  17.104  1.9252 -2.0319  0.8750
11482TIP3   OH255936   1.434   1.186  14.595  0.2857 -0.1967 -0.4881
11482TIP3    H155937   1.435   1.281  14.579 -1.5482 -0.1112 -0.1788
11482TIP3    H255938   1.502   1.151  14.537  1.0573  1.3168 -0.5249
11483TIP3   OH255939   2.361   0.556  12.458  0.4684 -0.0120  0.1814
11483TIP3    H155940   2.409   0.491  12.407  0.4055 -0.7622  1.0657
11483TIP3    H255941   2.286   0.508  12.493  1.6347 -0.0382  2.6880
11484TIP3   OH255942   6.151   1.279   1.019 -0.5434 -0.3592 -0.3434
11484TIP3    H155943   6.130   1.222   0.945 -0.1305 -0.9852  0.0054
11484TIP3    H255944   6.171   1.363   0.980  2.6601 -1.4660 -1.2459
11485TIP3   OH255945   3.161   2.991  13.055  0.2070  0.5286 -0.3108
11485TIP3    H155946   3.095   3.039  13.004  0.3351  2.3632  1.1840
11485TIP3    H255947   3.244   3.011  13.012  0.0202 -0.0607 -0.9422
11486TIP3   OH255948   4.600   3.958   5.393  0.4919 -0.1564 -0.4052
11486TIP3    H155949   4.600   3.897   5.319  1.0661 -0.7751  0.0932
11486TIP3    H255950   4.513   3.949   5.432  0.5216 -0.5329 -0.4280
11487TIP3   OH255951   4.731   3.960   4.529 -0.1878  0.4296  0.2585
11487TIP3    H155952   4.717   3.952   4.624 -0.0399  0.9410  0.3232
11487TIP3    H255953   4.685   3.884   4.492  1.2792 -0.7880  0.8665
11488TIP3   OH255954   1.358   5.334  17.092 -0.5363 -0.6842  0.4335
11488TIP3    H155955   1.451   5.355  17.089 -0.7870  1.4651  4.1317
11488TIP3    H255956   1.322   5.370  17.011  1.5797 -0.0128 -0.2358
11489TIP3   OH255957   6.190   1.849   0.195 -0.2403 -0.5253  0.2072
11489TIP3    H155958   6.122   1.793   0.231  0.9162 -3.1388 -1.5227
11489TIP3    H255959   6.245   1.791   0.143  2.4436  1.7847  0.2892
11490TIP3   OH255960   4.362   2.982  14.255  0.2016  0.2177  0.0850
11490TIP3    H155961   4.415   2.929  14.314 -0.4684  1.6152  1.9861
11490TIP3    H255962   4.423   3.046  14.218  0.5730 -0.5087 -0.5654
11491TIP3   OH255963   1.591   1.571   4.883  0.1994  0.3289  0.0902
11491TIP3    H155964   1.508   1.539   4.847  0.0939  0.3442  0.3200
11491TIP3    H255965   1.566   1.619   4.962  0.4469  0.1434  0.2809
11492TIP3   OH255966   3.106   3.509  14.543 -0.2317 -0.2986 -0.3180
11492TIP3    H155967   3.129   3.482  14.632  1.0194  0.8121 -0.3009
11492TIP3    H255968   3.165   3.581  14.523 -0.6518 -0.3888 -1.9750
11493TIP3   OH255969   6.337   0.437   3.526 -0.1577  0.1751 -0.0756
11493TIP3    H155970   6.352   0.506   3.591  1.9966 -0.2516 -0.0887
11493TIP3    H255971   6.328   0.357   3.578  0.1332  0.0544 -0.2079
11494TIP3   OH255972   4.758   0.736   4.783  0.2837  0.4886  0.1605
11494TIP3    H155973   4.816   0.759   4.856 -0.5013  1.6271  0.4416
11494TIP3    H255974   4.726   0.648   4.804  1.4255  0.0978  0.3056
11495TIP3   OH255975   1.204   2.940  10.637  1.0552 -0.2879  0.0831
11495TIP3    H155976   1.236   2.871  10.578  0.5695 -0.9928  0.6307
11495TIP3    H255977   1.177   3.011  10.579  0.0312 -1.2057 -0.5860
11496TIP3   OH255978   6.136   3.167  16.140 -0.4881  0.1826  0.1409
11496TIP3    H155979   6.230   3.156  16.124 -0.6000 -1.6619  0.5946
11496TIP3    H255980   6.094   3.117  16.070 -1.0882 -0.8793  1.2408
11497TIP3   OH255981   4.198   0.626   1.429 -0.8667  0.2881  0.4500
11497TIP3    H155982   4.266   0.563   1.405 -1.4080  0.0093 -0.3842
11497TIP3    H255983   4.234   0.711   1.407 -1.0421  0.0935 -0.6311
11498TIP3   OH255984   0.889   2.021   0.692  0.3125 -0.1208 -0.3688
11498TIP3    H155985   0.839   1.951   0.650 -0.1732 -1.7122  2.6996
11498TIP3    H255986   0.824   2.070   0.742  1.0714  0.9400 -0.4082
11499TIP3   OH255987   5.296   1.462  15.745 -0.0076  0.3825 -0.0906
11499TIP3    H155988   5.332   1.550  15.732  1.0386  0.1777  1.3399
11499TIP3    H255989   5.244   1.469  15.825 -0.3571 -0.1732 -0.2664
11500TIP3   OH255990   6.419   2.822  13.386 -0.1795  0.0963 -0.1294
11500TIP3    H155991   6.353   2.753  13.379  0.3797 -0.5195  0.5369
11500TIP3    H255992   6.371   2.904  13.372 -1.3467 -0.2502  1.6823
11501TIP3   OH255993   3.029   0.812   4.108 -0.0211  0.0189  0.0684
11501TIP3    H155994   3.104   0.847   4.061  0.1637 -0.0973  0.2731
11501TIP3    H255995   3.003   0.883   4.167 -0.8225  0.4990 -0.8534
11502TIP3   OH255996   3.485   1.534   2.609  0.3832 -0.0053  0.0382
11502TIP3    H155997   3.514   1.523   2.700  1.1316  1.4304 -0.0177
11502TIP3    H255998   3.474   1.628   2.599  0.0601 -0.1809 -1.3033
11503TIP3   OH255999   6.597   4.527   1.647  0.3570  0.0875  0.4241
11503TIP3    H156000   6.546   4.463   1.696 -2.4321  0.8105 -1.4101
11503TIP3    H256001   6.687   4.495   1.650 -0.1723 -1.1838  3.8207
11504TIP3   OH256002   6.227   5.629   1.438  0.1889  0.4371 -1.0262
11504TIP3    H156003   6.253   5.633   1.346  0.4579 -0.4389 -0.9869
11504TIP3    H256004   6.310   5.635   1.486  0.2198 -1.1363 -0.8775
11505TIP3   OH256005   1.918   1.567   4.705  0.3049 -0.1272 -0.4581
11505TIP3    H156006   1.863   1.631   4.751 -0.7527 -1.3467  0.0247
11505TIP3    H256007   1.855   1.507   4.665  1.2807 -1.5423  0.1065
11506TIP3   OH256008   2.089   5.168   5.848 -0.2043 -0.0521  0.3805
11506TIP3    H156009   2.122   5.182   5.937  3.4924  1.3097 -1.0927
11506TIP3    H256010   2.153   5.109   5.808 -1.3184  0.0545 -1.6539
11507TIP3   OH256011   4.191   1.770   0.499  0.3709 -0.5607 -0.0295
11507TIP3    H156012   4.135   1.716   0.554 -2.3394 -1.6670 -3.7304
11507TIP3    H256013   4.265   1.714   0.476  1.4842 -0.1189  2.2464
11508TIP3   OH256014   4.753   2.240   1.182  0.0111 -0.5781 -0.3571
11508TIP3    H156015   4.764   2.211   1.273  1.2903  0.0859 -0.2941
11508TIP3    H256016   4.659   2.232   1.166  0.1351 -3.4564  0.0840
11509TIP3   OH256017   4.909   5.989  14.252  0.1066  0.5100  0.2956
11509TIP3    H156018   4.895   5.945  14.168 -0.8495 -0.4991  0.9679
11509TIP3    H256019   4.986   6.044  14.238  1.2554 -1.3083 -0.5901
11510TIP3   OH256020   1.371   1.805  13.818  0.6701  0.0231  0.1085
11510TIP3    H156021   1.350   1.814  13.911 -0.3987 -0.1284 -0.1151
11510TIP3    H256022   1.455   1.759  13.817 -0.2856 -1.8259  0.9798
11511TIP3   OH256023   6.568   0.330   0.988 -0.3992 -0.5918  0.0661
11511TIP3    H156024   6.550   0.289   0.904  0.9708  0.6835 -0.8841
11511TIP3    H256025   6.601   0.417   0.966 -0.2374 -0.1478  1.9334
11512TIP3   OH256026   5.326   3.923  11.963  0.4076  0.4995 -0.8418
11512TIP3    H156027   5.253   3.947  11.906  0.8461  1.6982 -0.9220
11512TIP3    H256028   5.400   3.910  11.903  0.9110  1.9297 -0.5492
11513TIP3   OH256029   4.700   4.264   0.980 -0.0595  0.3456  0.0507
11513TIP3    H156030   4.787   4.255   1.018  0.5026  1.6477 -0.8850
11513TIP3    H256031   4.702   4.209   0.901 -0.1617  0.2162  0.1365
11514TIP3   OH256032   2.041   3.737   0.561  0.1930  0.4424  0.1225
11514TIP3    H156033   2.123   3.782   0.538  0.3618 -0.0941 -0.3462
11514TIP3    H256034   2.047   3.653   0.516 -1.6461  1.3047 -1.7969
11515TIP3   OH256035   3.541   4.367   4.630 -0.4461 -0.3825 -0.0281
11515TIP3    H156036   3.611   4.359   4.694 -1.4639  0.1654  1.1799
11515TIP3    H256037   3.463   4.336   4.676 -1.3928  1.0358 -0.6343
11516TIP3   OH256038   5.055   3.003  16.606  0.8080  0.3975 -0.5829
11516TIP3    H156039   5.005   2.924  16.628 -0.7653  2.1389  2.4335
11516TIP3    H256040   5.000   3.050  16.544  0.9897 -0.0769 -1.1025
11517TIP3   OH256041   1.566   6.792   2.683  0.5415 -0.0758 -0.6677
11517TIP3    H156042   1.630   6.757   2.621  0.9447 -0.2227 -0.1764
11517TIP3    H256043   1.613   6.797   2.766  1.1637  3.6866 -1.1636
11518TIP3   OH256044   6.723   0.114   1.006  1.1371  0.1417 -0.3444
11518TIP3    H156045   6.680   0.054   0.945  0.7720  0.0450  0.0034
11518TIP3    H256046   6.661   0.187   1.014  0.1456 -0.8909  1.6508
11519TIP3   OH256047   2.319   4.009  10.637  0.2154 -0.6197  0.3123
11519TIP3    H156048   2.397   4.023  10.584 -0.1900 -0.9693 -0.3936
11519TIP3    H256049   2.246   4.026  10.578 -0.2486 -1.5251  0.6051
11520TIP3   OH256050   5.605   0.269   1.496 -0.3423  0.0857 -0.0582
11520TIP3    H156051   5.554   0.343   1.464  1.6823  1.6856  0.2735
11520TIP3    H256052   5.624   0.217   1.418 -1.4096  0.1291 -0.3582
11521TIP3   OH256053   5.665   3.674  13.290  0.6365 -0.0565 -0.4059
11521TIP3    H156054   5.645   3.602  13.350  1.9500  0.1984  0.3573
11521TIP3    H256055   5.619   3.652  13.209 -0.5522 -0.7782  0.4549
11522TIP3   OH256056   0.020   3.830  15.220  0.0952 -0.1514  0.7567
11522TIP3    H156057  -0.002   3.769  15.151 -1.8027  0.4450  0.8138
11522TIP3    H256058   0.115   3.844  15.211  0.1860 -1.5384 -0.4961
11523TIP3   OH256059   6.445   4.648   5.210  0.1212 -0.8779 -0.4036
11523TIP3    H156060   6.465   4.734   5.248 -0.2863 -0.7608 -0.4480
11523TIP3    H256061   6.426   4.592   5.285 -0.2530 -0.7594 -0.4077
11524TIP3   OH256062   0.033   6.223  13.207  0.7670  0.0862  0.1708
11524TIP3    H156063   0.058   6.252  13.295 -2.2298 -0.1501  1.1818
11524TIP3    H256064  -0.062   6.232  13.206  0.4490 -2.9856 -1.9599
11525TIP3   OH256065   5.674   3.847   6.358  0.3067 -0.5859  0.2215
11525TIP3    H156066   5.741   3.781   6.379  0.4038 -0.5541  0.0200
11525TIP3    H256067   5.605   3.832   6.422 -0.5308 -2.1390 -0.9988
11526TIP3   OH256068   0.613   4.284   4.273 -0.2028 -0.2526  0.0322
11526TIP3    H156069   0.527   4.262   4.238  0.3697 -0.9768 -0.9570
11526TIP3    H256070   0.596   4.320   4.360 -1.5407  0.2297 -0.4321
11527TIP3   OH256071   3.370   1.435   1.078 -0.6474  0.5298 -0.4768
11527TIP3    H156072   3.354   1.529   1.076 -2.0718  0.3270  0.5394
11527TIP3    H256073   3.406   1.414   0.992 -2.3120  1.6573 -1.4533
11528TIP3   OH256074   1.962   5.014   4.516 -0.4954  0.2911  0.3228
11528TIP3    H156075   1.916   5.029   4.434 -1.9372 -0.5738  0.9572
11528TIP3    H256076   1.898   5.032   4.584  1.1613  2.6166  1.3325
11529TIP3   OH256077   6.748   1.482  14.583  0.5407  0.1566  0.2911
11529TIP3    H156078   6.712   1.545  14.520  0.6977  0.5092  0.5542
11529TIP3    H256079   6.804   1.426  14.531 -1.0667 -0.9488 -0.2911
11530TIP3   OH256080   3.644   1.281  10.549 -0.0987  0.3586  0.6289
11530TIP3    H156081   3.630   1.368  10.513  0.1704 -0.1892 -0.8292
11530TIP3    H256082   3.560   1.257  10.588 -0.4784  0.8317  0.1006
11531TIP3   OH256083   4.259   1.681   2.616  0.3015  0.1546 -0.4487
11531TIP3    H156084   4.208   1.650   2.691  0.8237  1.1014  0.3094
11531TIP3    H256085   4.194   1.695   2.547 -0.0668 -1.6469 -0.5002
11532TIP3   OH256086   2.004   4.110   2.473  0.2763 -0.5939  0.0603
11532TIP3    H156087   2.028   4.177   2.537 -0.5021  0.8221 -1.1038
11532TIP3    H256088   1.939   4.152   2.417  1.9646 -1.3177 -2.5375
11533TIP3   OH256089   5.025   2.168   1.706 -0.5500 -0.0827 -0.3952
11533TIP3    H156090   4.967   2.218   1.764 -1.0111  1.6241 -2.2825
11533TIP3    H256091   5.113   2.185   1.740 -0.5311  3.4264 -1.9606
11534TIP3   OH256092   6.007   0.501  13.836  0.1697  0.2605  0.3770
11534TIP3    H156093   6.093   0.460  13.836 -0.0095 -0.1113  0.6356
11534TIP3    H256094   5.980   0.499  13.744  0.3770  0.2554  0.3161
11535TIP3   OH256095   6.317   5.438  16.595  0.5983 -0.1966  0.1770
11535TIP3    H156096   6.314   5.469  16.504  0.6768 -1.9758 -0.4604
11535TIP3    H256097   6.410   5.436  16.616  0.5753  0.2896  0.3215
11536TIP3   OH256098   3.018   0.592  16.849  0.5074  0.2047 -0.1102
11536TIP3    H156099   2.957   0.529  16.887  1.8293  0.0162  1.7636
11536TIP3    H256100   3.050   0.643  16.924  1.1022  1.6565 -1.3197
11537TIP3   OH256101   3.473   3.862   1.600 -0.1873  0.5981 -0.2173
11537TIP3    H156102   3.467   3.842   1.506 -0.6759 -0.1161 -0.0435
11537TIP3    H256103   3.383   3.884   1.625  0.1555  1.9576 -0.1658
11538TIP3   OH256104   1.530   6.427   2.389 -0.1206 -0.2986 -0.0363
11538TIP3    H156105   1.467   6.380   2.334  1.2340 -2.4949  0.2394
11538TIP3    H256106   1.587   6.473   2.327 -0.3762 -0.4201 -0.3640
11539TIP3   OH256107   2.394   4.916   6.279  0.1784  0.0186  0.3861
11539TIP3    H156108   2.366   4.980   6.344 -1.2089 -1.4007  1.2067
11539TIP3    H256109   2.362   4.950   6.196  0.9718  1.2562  0.5707
11540TIP3   OH256110   1.257   3.414   0.492 -0.5369 -0.6511 -0.0683
11540TIP3    H156111   1.247   3.499   0.534 -1.4162 -0.2987 -0.9641
11540TIP3    H256112   1.171   3.372   0.503 -0.2860 -1.1834 -0.1369
11541TIP3   OH256113   2.093   2.390   1.014  0.4468 -0.5036 -0.4611
11541TIP3    H156114   2.048   2.305   1.011  0.3405 -0.3969 -2.5781
11541TIP3    H256115   2.167   2.380   0.953 -0.8346  1.6181 -2.4120
11542TIP3   OH256116   0.300   0.029  11.404  0.4690  0.3374 -0.0500
11542TIP3    H156117   0.395   0.020  11.403  0.3557 -0.9848  0.4893
11542TIP3    H256118   0.281   0.073  11.487  0.7181  2.1462 -0.9193
11543TIP3   OH256119   3.279   1.238  14.031  0.1063  0.4960  0.1361
11543TIP3    H156120   3.280   1.323  13.987 -1.9756  1.3025  1.5644
11543TIP3    H256121   3.347   1.188  13.986 -0.1704  2.1374 -2.2692
11544TIP3   OH256122   6.056   6.310   1.914 -0.1161  0.0304 -0.6743
11544TIP3    H156123   5.986   6.375   1.906  0.5376  0.8869  0.5262
11544TIP3    H256124   6.137   6.360   1.907  0.3991 -0.5946  0.6610
11545TIP3   OH256125   4.504   4.331   4.149  0.6191 -0.1179  0.1326
11545TIP3    H156126   4.579   4.276   4.127  2.2032  3.1189 -3.0248
11545TIP3    H256127   4.542   4.409   4.189 -1.0877  1.1511 -0.6203
11546TIP3   OH256128   0.115   1.667   3.860  0.4374  0.2975 -0.2339
11546TIP3    H156129   0.172   1.646   3.787  1.1640  1.4806 -0.0188
11546TIP3    H256130   0.026   1.662   3.823  0.6660 -1.6102 -0.5429
11547TIP3   OH256131   2.296   4.481   0.946 -0.1096  0.4896  0.1686
11547TIP3    H156132   2.262   4.392   0.956 -0.3855  0.0687 -3.5918
11547TIP3    H256133   2.383   4.470   0.909 -0.0312  1.7784 -0.0597
11548TIP3   OH256134   3.981   5.486  16.462  0.2394 -0.0961 -0.5586
11548TIP3    H156135   4.029   5.542  16.401  0.0147 -1.1778 -1.7348
11548TIP3    H256136   3.993   5.397  16.428 -0.2510 -0.6658  0.7283
11549TIP3   OH256137   6.113   0.718  17.119  0.2650 -0.4577  0.1754
11549TIP3    H156138   6.200   0.737  17.157 -0.1649  0.1907  0.8701
11549TIP3    H256139   6.057   0.787  17.155 -0.2847 -0.1673 -1.2196
11550TIP3   OH256140   0.004   4.186   0.806 -0.5339 -0.4272 -0.0301
11550TIP3    H156141   0.011   4.107   0.859 -1.3162 -1.0370 -0.8212
11550TIP3    H256142  -0.088   4.190   0.781 -0.6477  1.1225  0.5845
11551TIP3   OH256143   3.130   4.680  11.397 -0.1526  0.0899 -0.0408
11551TIP3    H156144   3.035   4.685  11.409 -0.1343  1.0770 -0.2292
11551TIP3    H256145   3.166   4.729  11.471  0.3119 -2.3473  1.3978
11552TIP3   OH256146   4.911   2.194   3.536  0.3522 -0.0080  0.1236
11552TIP3    H156147   4.879   2.210   3.625 -0.1649 -2.4814  0.4173
11552TIP3    H256148   4.969   2.268   3.518  0.0842  0.7868  2.3185
11553TIP3   OH256149   3.429   1.278  13.720 -0.0938 -0.3473  0.1404
11553TIP3    H156150   3.357   1.227  13.758  0.7540 -0.1096  2.0710
11553TIP3    H256151   3.389   1.362  13.696 -0.7049 -0.6250  0.1662
11554TIP3   OH256152   4.328   4.894   2.720 -0.4098 -0.2411 -0.4712
11554TIP3    H156153   4.257   4.835   2.744 -0.8201  0.5597  0.3172
11554TIP3    H256154   4.284   4.970   2.681 -0.0974  0.9514  1.4599
11555TIP3   OH256155   3.170   2.488  12.411  0.2874 -0.2180  0.2029
11555TIP3    H156156   3.216   2.417  12.457 -1.0794 -0.3143  1.4721
11555TIP3    H256157   3.115   2.443  12.347  3.0714 -0.0291 -2.4335
11556TIP3   OH256158   3.890   2.140  13.954  0.2263 -0.2126 -0.1759
11556TIP3    H156159   3.941   2.061  13.939  1.1180  0.1806  0.7692
11556TIP3    H256160   3.847   2.126  14.038  1.3100  0.7899  0.5515
11557TIP3   OH256161   4.078   3.410   1.118 -0.2690  0.0826 -0.1378
11557TIP3    H156162   4.104   3.497   1.148 -0.1489  0.4733 -1.3841
11557TIP3    H256163   4.093   3.354   1.194 -1.1522  1.2902  0.9641
11558TIP3   OH256164   3.643   4.915  15.969  0.1625  0.1716  0.0263
11558TIP3    H156165   3.554   4.914  16.004  0.4579 -0.9156  0.7737
11558TIP3    H256166   3.638   4.862  15.890  0.0962  0.3157 -0.0658
11559TIP3   OH256167   1.858   0.984   2.828  0.0209 -0.6434  0.2173
11559TIP3    H156168   1.769   1.015   2.814 -0.0040 -0.8462 -0.0818
11559TIP3    H256169   1.905   1.060   2.863  0.0709 -0.1195 -0.9404
11560TIP3   OH256170   0.002   4.561  14.111  0.1810  0.2969 -0.6646
11560TIP3    H156171  -0.019   4.468  14.118 -2.4072  0.8616 -0.3931
11560TIP3    H256172   0.032   4.573  14.021 -0.8582 -0.5374 -1.1249
11561TIP3   OH256173   0.808   0.791  15.635  0.3451 -0.2805 -0.3954
11561TIP3    H156174   0.740   0.858  15.640 -0.6760 -1.3221 -0.1066
11561TIP3    H256175   0.814   0.768  15.543 -2.4404 -2.9333  0.0207
11562TIP3   OH256176   1.812   6.731  12.422 -0.6402  0.4311 -0.3059
11562TIP3    H156177   1.872   6.667  12.385  2.7009  2.6360  1.0497
11562TIP3    H256178   1.815   6.805  12.361 -0.6367  1.2534  0.6811
11563TIP3   OH256179   3.159   4.223  14.447  0.2814  0.8125  0.2669
11563TIP3    H156180   3.232   4.227  14.386  0.9834  1.5902  1.1381
11563TIP3    H256181   3.149   4.130  14.468 -0.4845  0.4527 -1.6359
11564TIP3   OH256182   0.201   2.752   0.540  0.2241  0.4062 -0.2892
11564TIP3    H156183   0.270   2.746   0.607  1.2760  1.0549 -1.2937
11564TIP3    H256184   0.242   2.800   0.468 -1.2671  0.7390 -0.9351
11565TIP3   OH256185   3.597   2.687   3.445  0.2515  0.3090 -1.0708
11565TIP3    H156186   3.614   2.777   3.473 -1.0801  0.2788 -0.1126
11565TIP3    H256187   3.522   2.694   3.386  0.0748 -0.1849 -0.9066
11566TIP3   OH256188   1.514   2.206  17.173 -0.1960  0.1910 -0.0116
11566TIP3    H156189   1.563   2.143  17.119  0.6789  0.7773  0.0883
11566TIP3    H256190   1.497   2.159  17.255 -1.1166 -0.5378 -0.5980
11567TIP3   OH256191   0.411   4.642  12.929 -0.3344  0.1927 -0.0591
11567TIP3    H156192   0.377   4.603  13.010  0.2963  0.2494  0.2344
11567TIP3    H256193   0.346   4.619  12.863 -0.0067 -1.2864  0.1296
11568TIP3   OH256194   4.517   3.881  14.647  0.3714 -0.3859 -0.0737
11568TIP3    H156195   4.563   3.806  14.683  2.6350  0.7932 -0.4368
11568TIP3    H256196   4.545   3.884  14.555  2.0661  2.1666  0.4733
11569TIP3   OH256197   2.806   4.291   0.887  0.1886  0.1935  0.0371
11569TIP3    H156198   2.847   4.207   0.907  1.0578  0.5114 -0.3667
11569TIP3    H256199   2.834   4.310   0.797  0.8810  1.4239  0.5044
11570TIP3   OH256200   1.478   0.782   3.508  0.0128 -0.2332 -0.3835
11570TIP3    H156201   1.465   0.698   3.465 -0.1658 -0.3207 -0.1589
11570TIP3    H256202   1.546   0.825   3.457  0.4438 -0.7125 -0.2197
11571TIP3   OH256203   2.244   6.791  13.940 -0.2044 -0.1337 -0.0428
11571TIP3    H156204   2.240   6.754  14.029  0.1480  0.6183  0.2927
11571TIP3    H256205   2.232   6.716  13.882 -2.4986 -0.3651  0.6627
11572TIP3   OH256206   1.517   6.393  16.769 -0.1492  0.3714  0.1115
11572TIP3    H156207   1.453   6.445  16.720 -0.6175 -1.6224 -1.4457
11572TIP3    H256208   1.464   6.328  16.815  0.4862  0.8781  1.5802
11573TIP3   OH256209   4.422   4.704  12.203 -0.5739 -0.3856  0.4953
11573TIP3    H156210   4.374   4.721  12.285  1.0971  0.9231  1.2450
11573TIP3    H256211   4.490   4.642  12.228 -0.5774 -0.6259 -0.0980
11574TIP3   OH256212   4.521   2.596   3.490 -0.4930  0.3110 -0.5605
11574TIP3    H156213   4.429   2.594   3.519 -0.8053 -1.0020 -1.5881
11574TIP3    H256214   4.521   2.656   3.415 -0.0674  2.1123  0.8621
11575TIP3   OH256215   5.431   4.196   6.206 -0.1942 -0.2278 -0.3007
11575TIP3    H156216   5.452   4.284   6.174  0.0227 -0.4431 -0.7567
11575TIP3    H256217   5.408   4.209   6.297 -0.8165  0.3976 -0.5436
11576TIP3   OH256218   2.219   4.460   0.208 -0.1704 -0.0078  0.4574
11576TIP3    H156219   2.196   4.428   0.296  0.5066 -0.8958  0.3281
11576TIP3    H256220   2.178   4.398   0.148 -0.1580  0.2703  0.1600
11577TIP3   OH256221   2.054   3.469   2.208 -0.4290  0.1173  0.1659
11577TIP3    H156222   1.999   3.416   2.266 -0.6801 -0.5501 -0.6831
11577TIP3    H256223   2.138   3.473   2.253 -0.7147 -0.1418  0.7301
11578TIP3   OH256224   1.870   4.774  15.615 -0.7148 -0.1214 -0.2938
11578TIP3    H156225   1.858   4.833  15.540  0.2441 -0.5309 -0.7821
11578TIP3    H256226   1.865   4.686  15.578  1.2240 -0.3251 -0.1360
11579TIP3   OH256227   6.697   0.839   5.261 -0.1282 -0.2640 -0.2703
11579TIP3    H156228   6.630   0.802   5.204 -1.0851  0.3268  0.4419
11579TIP3    H256229   6.779   0.830   5.212 -0.7688 -0.7193 -1.2744
11580TIP3   OH256230   6.693   5.558   4.962  0.1361 -0.0809 -0.7449
11580TIP3    H156231   6.760   5.513   5.014 -1.0574 -0.2922  0.6245
11580TIP3    H256232   6.699   5.518   4.876  1.1404 -0.7445 -0.3827
11581TIP3   OH256233   4.549   3.101  13.913  0.1877 -0.0740 -0.2004
11581TIP3    H156234   4.562   3.031  13.849 -3.1934 -0.8994 -0.0913
11581TIP3    H256235   4.594   3.070  13.991  2.8311  0.1323 -1.5897
11582TIP3   OH256236   2.385   6.509   2.502 -0.1812  0.0036 -0.1519
11582TIP3    H156237   2.421   6.502   2.590  0.4599  0.6948 -0.3580
11582TIP3    H256238   2.439   6.574   2.458 -2.2045  1.7316 -0.1858
11583TIP3   OH256239   5.224   3.370   2.511  0.2786  0.7906 -0.5106
11583TIP3    H156240   5.285   3.299   2.491  0.5678 -0.1873  3.3504
11583TIP3    H256241   5.239   3.435   2.443  2.3724 -1.4053 -2.2292
11584TIP3   OH256242   0.046   5.309   6.615 -0.0100  0.4914  0.3262
11584TIP3    H156243  -0.033   5.362   6.623 -0.5777 -0.1438 -1.0875
11584TIP3    H256244   0.054   5.291   6.522  1.1172 -0.4981  0.6071
11585TIP3   OH256245   5.325   6.247  15.372 -1.0430 -0.4982  0.0430
11585TIP3    H156246   5.339   6.193  15.449 -0.4047 -0.0595  0.2396
11585TIP3    H256247   5.351   6.192  15.298  0.2185 -0.2470  0.2861
11586TIP3   OH256248   1.152   1.129   1.528  0.3641 -0.3021  0.7090
11586TIP3    H156249   1.191   1.182   1.596  1.4289 -0.9254  0.5909
11586TIP3    H256250   1.208   1.142   1.452 -0.1265 -0.5583  0.2980
11587TIP3   OH256251   3.130   0.874  14.195  0.1938 -0.2389 -0.3779
11587TIP3    H156252   3.084   0.795  14.170 -1.0266  0.9976 -2.1184
11587TIP3    H256253   3.177   0.902  14.116  1.0441  0.4923  0.3565
11588TIP3   OH256254   6.053   5.347  14.610  0.3885  0.3030 -0.2858
11588TIP3    H156255   6.105   5.374  14.534  0.2796 -0.6918 -0.7206
11588TIP3    H256256   5.997   5.422  14.629  1.0236  0.8697 -0.6665
11589TIP3   OH256257   3.750   2.532  16.626 -0.0141 -0.1858 -0.5209
11589TIP3    H156258   3.728   2.455  16.679 -1.1714  0.6071  0.1816
11589TIP3    H256259   3.845   2.529  16.619 -0.0289 -1.5979 -0.3774
11590TIP3   OH256260   0.795   4.984  16.559  0.5100 -0.8347  0.5607
11590TIP3    H156261   0.741   4.927  16.613 -0.7515 -2.6928 -2.5051
11590TIP3    H256262   0.885   4.957  16.577  0.0961 -1.5110  1.6376
11591TIP3   OH256263   3.880   5.970   3.928 -0.4078  0.4507 -0.3965
11591TIP3    H156264   3.948   5.929   3.876  1.2108 -2.2158  3.5309
11591TIP3    H256265   3.798   5.933   3.896  0.5605 -1.1921 -0.9771
11592TIP3   OH256266   0.917   1.736   4.041 -0.0688  0.2999 -0.7737
11592TIP3    H156267   0.893   1.670   3.975 -0.0781  0.6289 -1.1011
11592TIP3    H256268   0.976   1.690   4.101  0.0938  0.0515 -1.1231
11593TIP3   OH256269   1.918   3.440   0.837 -0.0909  0.1406  0.5678
11593TIP3    H156270   1.933   3.478   0.750  0.7201 -1.0708  0.1620
11593TIP3    H256271   1.826   3.415   0.836  0.0475 -0.3777 -0.1630
11594TIP3   OH256272   1.501   6.252   0.808 -0.4880 -0.7777  0.1509
11594TIP3    H156273   1.593   6.232   0.824 -0.2678  0.4237  0.4188
11594TIP3    H256274   1.460   6.167   0.795  0.8393 -1.2669 -0.9663
11595TIP3   OH256275   5.510   3.205  15.953 -0.2600  0.3547 -0.1529
11595TIP3    H156276   5.464   3.288  15.940  0.4717  0.6116 -1.1619
11595TIP3    H256277   5.514   3.194  16.048 -3.6758 -0.3778 -0.0367
11596TIP3   OH256278   4.328   3.426  15.306  0.1067  0.2931 -0.1890
11596TIP3    H156279   4.369   3.347  15.342  0.6993 -0.8515 -3.1816
11596TIP3    H256280   4.249   3.438  15.358  0.8851 -1.2831  1.4204
11597TIP3   OH256281   6.170   5.540  15.270 -0.4002  0.4393 -0.4343
11597TIP3    H156282   6.117   5.481  15.323  0.8041 -0.3322 -0.0719
11597TIP3    H256283   6.193   5.612  15.330 -0.2369  0.2807 -0.3016
11598TIP3   OH256284   1.527   4.816  12.862 -0.2795  0.1214  0.0223
11598TIP3    H156285   1.486   4.730  12.863 -0.3281  0.0263 -3.8414
11598TIP3    H256286   1.620   4.798  12.878 -0.1416 -0.7897 -1.6608
11599TIP3   OH256287   0.742   3.823  12.408  0.0248  0.6932 -0.1884
11599TIP3    H156288   0.782   3.770  12.477 -2.1690 -0.4219  0.2691
11599TIP3    H256289   0.785   3.908  12.416  0.7254  0.1881  1.7139
11600TIP3   OH256290   4.359   0.482  14.495 -0.1483  0.1658 -0.4706
11600TIP3    H156291   4.360   0.549  14.426  0.8408  0.0059 -0.6078
11600TIP3    H256292   4.267   0.478  14.522 -0.6205 -0.0713 -2.0731
11601TIP3   OH256293   6.413   6.111   6.487  0.0911  0.1553 -0.5368
11601TIP3    H156294   6.349   6.166   6.532  0.1874  2.2340 -2.8158
11601TIP3    H256295   6.397   6.023   6.521 -1.2052  1.3023  1.9590
11602TIP3   OH256296   4.285   5.356   2.817 -0.1713  0.3421 -0.6918
11602TIP3    H156297   4.263   5.429   2.875  0.6136  1.2067 -1.4693
11602TIP3    H256298   4.221   5.288   2.838 -1.5830  1.6431 -0.7061
11603TIP3   OH256299   3.042   5.760  16.871 -0.4783  0.3288 -0.1659
11603TIP3    H156300   3.097   5.804  16.936 -3.1591 -0.5422  2.8322
11603TIP3    H256301   3.063   5.804  16.788  1.4386  2.9757  1.6412
11604TIP3   OH256302   3.109   0.147  11.567  0.2869 -0.2002 -0.6827
11604TIP3    H156303   3.135   0.214  11.504 -0.3977  2.1371  1.4437
11604TIP3    H256304   3.189   0.124  11.613  0.1964  0.4993 -0.1746
11605TIP3   OH256305   4.867   2.379   2.550 -0.1736  0.0723 -0.0669
11605TIP3    H156306   4.849   2.430   2.629  1.9640  0.0684  0.4578
11605TIP3    H256307   4.786   2.383   2.500 -0.4616  2.9048  0.5614
11606TIP3   OH256308   2.591   2.990   2.897  0.2250 -0.3216 -0.2680
11606TIP3    H156309   2.622   2.912   2.850  0.3544 -1.5305  1.7977
11606TIP3    H256310   2.499   2.998   2.872 -0.2808 -2.2035  0.9191
11607TIP3   OH256311   0.032   0.705  16.300 -0.1706 -0.2487 -0.4285
11607TIP3    H156312  -0.042   0.747  16.257 -0.4749 -0.9155 -0.5657
11607TIP3    H256313  -0.003   0.621  16.331  0.4292 -0.4056 -0.1737
11608TIP3   OH256314   2.833   3.999   0.776 -0.0685  0.1010  0.1781
11608TIP3    H156315   2.869   3.955   0.853 -2.0733 -1.4489  0.2986
11608TIP3    H256316   2.870   3.952   0.701  0.7386  0.6616  0.2238
11609TIP3   OH256317   2.353   6.604  13.519 -0.0153  0.0087 -0.1361
11609TIP3    H156318   2.277   6.619  13.463  0.1149  1.0964 -0.0390
11609TIP3    H256319   2.410   6.547  13.468 -0.1116  0.6069 -0.9108
11610TIP3   OH256320   1.542   3.733   4.533  0.0810  0.4572  0.2632
11610TIP3    H156321   1.622   3.708   4.487  0.1044 -0.8454  0.9764
11610TIP3    H256322   1.533   3.668   4.603 -1.3665  0.8338  0.4538
11611TIP3   OH256323   5.262   4.644  11.844 -0.1468  0.2885 -0.6175
11611TIP3    H156324   5.339   4.695  11.819  0.0109  0.3076 -0.1128
11611TIP3    H256325   5.197   4.663  11.777  0.8207 -0.9997 -1.9605
11612TIP3   OH256326   2.288   3.838  15.963  0.3871  0.4989 -0.3526
11612TIP3    H156327   2.321   3.858  16.051 -1.7293 -1.0456  0.8277
11612TIP3    H256328   2.214   3.898  15.951  0.1178  0.0846 -0.7367
11613TIP3   OH256329   1.378   4.096  14.525  0.6512 -0.6057  0.1946
11613TIP3    H156330   1.467   4.117  14.553  0.4465 -2.7297  2.6916
11613TIP3    H256331   1.376   4.001  14.520 -1.9396 -0.7180  2.0258
11614TIP3   OH256332   3.744   3.152  15.159  0.2796  0.1058  0.4307
11614TIP3    H156333   3.692   3.184  15.085 -0.4860  0.0502  0.9434
11614TIP3    H256334   3.681   3.140  15.230  0.7008 -1.6174  0.5396
11615TIP3   OH256335   4.232   4.095  13.532 -0.1861  1.2889 -0.0711
11615TIP3    H156336   4.310   4.148  13.519 -1.5402  3.2203 -0.4533
11615TIP3    H256337   4.159   4.157  13.529 -1.8446 -0.6210 -0.9389
11616TIP3   OH256338   4.652   5.853  14.747  0.0697  0.0377  0.3074
11616TIP3    H156339   4.673   5.941  14.718  1.2047 -0.2069  0.3669
11616TIP3    H256340   4.613   5.810  14.671 -1.7544  0.9903  0.6588
11617TIP3   OH256341   0.400   6.479   5.235 -0.1854 -0.3200  0.8983
11617TIP3    H156342   0.424   6.386   5.239  0.7344 -0.1567 -0.2796
11617TIP3    H256343   0.318   6.481   5.186  0.0115 -0.4822  0.5601
11618TIP3   OH256344   5.196   4.472  16.592 -0.7876 -0.4666  0.3876
11618TIP3    H156345   5.177   4.556  16.550 -2.8296 -0.2735  1.6774
11618TIP3    H256346   5.125   4.414  16.565 -1.4166 -0.7115  2.4796
11619TIP3   OH256347   4.381   2.424   5.363  0.3372 -0.2506  0.0615
11619TIP3    H156348   4.429   2.503   5.339 -0.3951  0.6526  1.4999
11619TIP3    H256349   4.449   2.362   5.390  0.9964 -0.5361 -2.1902
11620TIP3   OH256350   1.336   2.806   3.567  0.4453  0.1109 -0.8112
11620TIP3    H156351   1.257   2.858   3.556 -0.9770 -2.0706 -1.0161
11620TIP3    H256352   1.335   2.779   3.659  0.2317 -1.0597 -1.1509
11621TIP3   OH256353   1.219   6.367   4.493  0.2009  0.3614 -0.0475
11621TIP3    H156354   1.312   6.387   4.487  0.1122  1.0075  0.6740
11621TIP3    H256355   1.185   6.427   4.559 -0.4891 -0.7108  0.6024
11622TIP3   OH256356   4.925   1.927   2.275 -0.0481 -0.3984 -0.1987
11622TIP3    H156357   5.008   1.939   2.229  0.4685  0.1018  0.8439
11622TIP3    H256358   4.861   1.916   2.205  1.0665 -2.0491 -1.0242
11623TIP3   OH256359   5.796   1.714   3.200  0.4086 -0.6301 -0.0430
11623TIP3    H156360   5.877   1.702   3.250 -0.1662 -0.3029  0.9797
11623TIP3    H256361   5.787   1.633   3.150  1.0077 -0.9636  0.3822
11624TIP3   OH256362   1.122   3.290   3.171 -0.0702 -0.3936  0.0372
11624TIP3    H156363   1.099   3.304   3.079 -1.9048 -1.3528  0.3172
11624TIP3    H256364   1.167   3.205   3.172  0.9300  0.1345 -0.1236
11625TIP3   OH256365   6.410   2.137  10.822 -0.6029 -0.4477  0.0752
11625TIP3    H156366   6.402   2.091  10.739  0.9658  0.0653 -0.3768
11625TIP3    H256367   6.388   2.072  10.888  0.4173 -1.5267 -0.6316
11626TIP3   OH256368   3.989   0.130   3.603 -0.1037  0.4933 -0.0187
11626TIP3    H156369   3.912   0.085   3.570  0.9901 -0.7103 -1.0097
11626TIP3    H256370   3.978   0.132   3.698 -0.6877 -0.9031 -0.0529
11627TIP3   OH256371   5.023   1.702   0.911 -0.7333 -0.2564  0.0063
11627TIP3    H156372   4.941   1.698   0.960 -0.0061 -0.3712  1.2470
11627TIP3    H256373   5.091   1.707   0.979  0.3256 -0.9311 -0.9796
11628TIP3   OH256374   1.951   4.733   3.677  0.6753  0.2912  0.1273
11628TIP3    H156375   1.866   4.694   3.696  1.5769 -1.2677  1.0201
11628TIP3    H256376   1.951   4.747   3.583 -0.4156 -0.0571  0.0712
11629TIP3   OH256377   5.610   4.717   3.819 -0.4636 -0.0357 -0.2477
11629TIP3    H156378   5.585   4.652   3.753  1.6367  0.0335 -1.1712
11629TIP3    H256379   5.618   4.799   3.771  0.8096  0.0752  0.1321
11630TIP3   OH256380   0.891   1.299  16.249  0.1828 -0.2087 -0.0441
11630TIP3    H156381   0.801   1.272  16.268 -0.0381 -0.4702 -1.4014
11630TIP3    H256382   0.942   1.219  16.253  0.1714 -0.2307 -0.3740
11631TIP3   OH256383   1.638   3.865   1.845  0.0076 -0.8861 -0.0178
11631TIP3    H156384   1.690   3.809   1.788 -0.5410  0.1401 -1.5630
11631TIP3    H256385   1.549   3.829   1.841  0.4870 -2.4520  2.3739
11632TIP3   OH256386   3.586   0.554  16.308 -0.1035  0.6786  0.6420
11632TIP3    H156387   3.495   0.528  16.325  0.1904 -2.2086 -1.7203
11632TIP3    H256388   3.628   0.550  16.394 -1.5851 -0.6622  1.3378
11633TIP3   OH256389   5.616   4.598   4.641  0.0541  0.1575 -0.1603
11633TIP3    H156390   5.545   4.614   4.578  0.2221  1.3171 -0.0614
11633TIP3    H256391   5.681   4.547   4.592 -0.8789 -0.9926 -0.2264
11634TIP3   OH256392   1.641   6.435  11.003 -0.3669 -0.5711  1.0584
11634TIP3    H156393   1.696   6.463  11.076  1.8054 -1.7540 -0.0524
11634TIP3    H256394   1.640   6.509  10.943  1.6210 -1.2045  0.2104
11635TIP3   OH256395   1.819   6.397   3.698  0.2850 -0.0095 -0.5351
11635TIP3    H156396   1.861   6.312   3.692  0.8963  0.1563  1.1885
11635TIP3    H256397   1.872   6.446   3.760 -0.5850  1.3129 -0.8146
11636TIP3   OH256398   3.032   5.050  17.179  0.4908 -0.3265  0.5369
11636TIP3    H156399   3.092   5.097  17.237  0.4593  0.5665 -0.1469
11636TIP3    H256400   3.084   5.033  17.100  0.3172 -0.9324  0.5465
11637TIP3   OH256401   5.485   3.110  14.572  0.0383 -0.4666 -0.6915
11637TIP3    H156402   5.578   3.117  14.549  0.0201  1.4952 -0.1818
11637TIP3    H256403   5.471   3.015  14.581  1.7958 -0.8386 -1.5234
11638TIP3   OH256404   2.356   6.613   4.308  0.3105 -0.5317  0.1582
11638TIP3    H156405   2.316   6.648   4.228  1.5375 -1.6326 -0.9752
11638TIP3    H256406   2.415   6.544   4.276  2.7625  0.7483  1.8016
11639TIP3   OH256407   1.788   4.037  12.915 -0.1907 -0.2121  0.1421
11639TIP3    H156408   1.753   4.042  13.005 -2.5552  1.7899 -0.8106
11639TIP3    H256409   1.882   4.027  12.927 -0.4466  0.0506  2.8757
11640TIP3   OH256410   3.999   5.483  14.900 -0.6467 -0.4144 -0.1895
11640TIP3    H156411   4.020   5.393  14.876  1.2310  0.2704 -1.1697
11640TIP3    H256412   4.073   5.512  14.953 -1.5028  0.3792  0.5913
11641TIP3   OH256413   1.971   4.743  15.065  0.1399  0.9972 -0.6225
11641TIP3    H156414   1.954   4.704  15.151  0.2588  0.8236 -0.6772
11641TIP3    H256415   1.901   4.808  15.054 -0.9241 -0.2205 -1.1571
11642TIP3   OH256416   5.167   3.833  13.282 -0.2697 -0.1599 -0.6691
11642TIP3    H156417   5.141   3.922  13.260  1.0563 -0.1284 -2.1708
11642TIP3    H256418   5.109   3.809  13.355 -2.9829  0.6798 -2.4410
11643TIP3   OH256419   2.459   2.651  13.776  0.0203 -0.5006  0.7525
11643TIP3    H156420   2.427   2.594  13.845  1.2681 -0.7339  1.1529
11643TIP3    H256421   2.515   2.595  13.722 -0.2318 -0.1039  0.0629
11644TIP3   OH256422   0.665   5.047   1.497 -0.0951  0.0336 -0.2445
11644TIP3    H156423   0.603   5.078   1.431  0.2199  1.7356  0.2353
11644TIP3    H256424   0.711   5.125   1.526  0.4175 -0.8157  1.3392
11645TIP3   OH256425   6.801   6.371   4.700 -0.1723  0.4308  0.4310
11645TIP3    H156426   6.721   6.423   4.700 -1.0170 -0.6777 -4.0019
11645TIP3    H256427   6.772   6.280   4.697  1.3010 -0.1258  1.8957
11646TIP3   OH256428   2.274   2.398   3.851 -0.4775  0.5112 -0.5568
11646TIP3    H156429   2.282   2.427   3.761 -0.5425  1.2751 -0.3233
11646TIP3    H256430   2.292   2.304   3.848 -2.1559  0.2032 -1.6223
11647TIP3   OH256431   4.634   6.103  14.632 -0.2032  0.1281 -0.0403
11647TIP3    H156432   4.713   6.129  14.586 -1.1409  0.7517 -1.3522
11647TIP3    H256433   4.568   6.094  14.563 -0.6938 -2.7218  0.7388
11648TIP3   OH256434   3.070   6.137   5.017  0.4568 -0.0026  0.0899
11648TIP3    H156435   3.045   6.071   5.081  0.4220 -1.1678 -1.1173
11648TIP3    H256436   3.163   6.119   4.999  0.5390  0.4922  0.0021
11649TIP3   OH256437   4.307   4.817   2.189 -0.1515 -0.1453 -0.1720
11649TIP3    H156438   4.395   4.811   2.228  0.9777  1.8487 -2.2956
11649TIP3    H256439   4.289   4.728   2.157  0.7565 -0.7624  0.9755
11650TIP3   OH256440   3.775   1.091   4.308  0.2244  0.4499 -0.4678
11650TIP3    H156441   3.687   1.123   4.327  0.9480  2.0962  0.2635
11650TIP3    H256442   3.791   1.115   4.217 -0.6073 -1.1138 -1.0286
11651TIP3   OH256443   2.579   2.579  16.152  0.3099  0.0292 -0.2471
11651TIP3    H156444   2.534   2.599  16.070 -1.7059 -1.4300  0.4736
11651TIP3    H256445   2.639   2.652  16.165 -1.0469  1.4526 -1.7870
11652TIP3   OH256446   1.176   6.425   6.519 -0.0374  0.1881 -0.6339
11652TIP3    H156447   1.193   6.482   6.444  1.8954 -1.4684 -1.5142
11652TIP3    H256448   1.164   6.338   6.480 -1.9236 -0.2243  0.7592
11653TIP3   OH256449   5.660   2.846  17.183  0.2755 -0.2790 -0.6423
11653TIP3    H156450   5.728   2.785  17.154 -0.1210  0.1027 -2.4314
11653TIP3    H256451   5.656   2.833  17.278  2.8022 -0.3634 -0.4902
11654TIP3   OH256452   3.159   4.137   5.551  0.5527 -0.1304 -0.1881
11654TIP3    H156453   3.241   4.088   5.552  1.1881  0.9148 -0.8194
11654TIP3    H256454   3.091   4.069   5.549  1.2286 -1.1408  4.3950
11655TIP3   OH256455   3.480   1.251  11.091  0.9629 -0.0606 -0.2261
11655TIP3    H156456   3.455   1.159  11.104  1.3518 -0.1882 -0.3783
11655TIP3    H256457   3.525   1.275  11.172 -0.0790  0.3169  0.2480
11656TIP3   OH256458   0.482   5.220  15.526  0.6121 -0.6580 -0.0490
11656TIP3    H156459   0.550   5.163  15.560  1.6726 -0.7433 -2.2408
11656TIP3    H256460   0.427   5.240  15.602  1.8891 -2.2360  1.3213
11657TIP3   OH256461   6.219   3.819   3.422 -0.1762  0.1891  0.0923
11657TIP3    H156462   6.289   3.754   3.408  1.1016  1.2242  1.4919
11657TIP3    H256463   6.229   3.880   3.348 -0.2432 -0.2187 -0.2576
11658TIP3   OH256464   4.030   1.369   4.307 -0.1568 -0.6662  0.4477
11658TIP3    H156465   4.004   1.279   4.291  0.7291 -0.4832 -2.2295
11658TIP3    H256466   3.959   1.406   4.360 -1.2567 -2.4868  0.2677
11659TIP3   OH256467   1.168   0.751   2.997 -0.4909  0.4926  0.6498
11659TIP3    H156468   1.165   0.773   2.904 -0.0105  0.4586  0.6235
11659TIP3    H256469   1.194   0.659   3.000  2.6882  1.3405  0.8831
11660TIP3   OH256470   3.777   6.594   1.020  0.5365 -0.0804 -0.8786
11660TIP3    H156471   3.788   6.620   1.112  0.0144 -2.4376 -0.1275
11660TIP3    H256472   3.685   6.614   1.001  0.4560 -0.2530 -0.6735
11661TIP3   OH256473   6.497   1.355   4.273  0.2132  0.2723  0.1520
11661TIP3    H156474   6.407   1.324   4.275  0.1114  0.5805  3.2252
11661TIP3    H256475   6.550   1.277   4.260 -0.3830 -0.2978  1.1125
11662TIP3   OH256476   4.307   1.294   5.724  0.3185  0.1181 -0.0328
11662TIP3    H156477   4.229   1.260   5.768  0.4694 -0.8131 -0.4690
11662TIP3    H256478   4.285   1.385   5.703 -0.4906 -0.0184  0.2104
11663TIP3   OH256479   1.135   5.541   6.598 -0.4260 -0.3042 -0.2709
11663TIP3    H156480   1.179   5.591   6.667 -0.8303  0.2512 -0.4114
11663TIP3    H256481   1.140   5.450   6.628  0.6764 -0.2316 -0.2150
11664TIP3   OH256482   2.565   3.185  10.460 -0.2510  0.1474 -0.3751
11664TIP3    H156483   2.505   3.187  10.535 -0.5592 -2.9037 -0.4706
11664TIP3    H256484   2.514   3.220  10.387 -0.3573  1.9401  0.5282
11665TIP3   OH256485   3.029   3.765  10.499 -0.2699  0.2169  0.0326
11665TIP3    H156486   3.050   3.672  10.509 -1.5855 -0.0316  0.5252
11665TIP3    H256487   3.115   3.809  10.499  0.2714 -0.7609  2.2160
11666TIP3   OH256488   4.575   6.580   5.538  0.3700  0.6381 -0.3929
11666TIP3    H156489   4.646   6.620   5.488  0.6869  0.7084  0.1230
11666TIP3    H256490   4.495   6.620   5.501  0.5135 -0.2468 -1.7237
11667TIP3   OH256491   4.642   1.707  16.885  0.7005  0.1261 -0.2245
11667TIP3    H156492   4.709   1.744  16.941 -0.3951 -0.5975  1.6057
11667TIP3    H256493   4.581   1.779  16.868  0.8332  0.2508 -0.1660
11668TIP3   OH256494   0.383   1.471   5.678  0.0187  0.4011  0.2282
11668TIP3    H156495   0.388   1.514   5.764  1.3295 -1.2459  0.9810
11668TIP3    H256496   0.299   1.501   5.642 -0.0827  1.8959  1.6458
11669TIP3   OH256497   0.724   1.349   2.280  0.4261  0.6052  0.5046
11669TIP3    H156498   0.662   1.407   2.324 -1.1376 -0.6844  0.0541
11669TIP3    H256499   0.772   1.307   2.351 -1.3954 -0.7144  1.0023
11670TIP3   OH256500   4.308   4.074   3.772 -0.1107 -0.0718 -0.4082
11670TIP3    H156501   4.331   4.027   3.852 -0.2502 -2.4242 -1.7027
11670TIP3    H256502   4.286   4.162   3.801 -3.3267 -1.7277  2.5656
11671TIP3   OH256503   0.966   3.457   1.298  0.0396 -0.2765  0.2555
11671TIP3    H156504   0.875   3.439   1.273  0.4124 -0.5908 -0.9458
11671TIP3    H256505   1.016   3.387   1.256  1.1581  1.5553 -1.5621
11672TIP3   OH256506   4.907   1.062  15.162  0.8857  0.0256  0.2610
11672TIP3    H156507   4.995   1.087  15.137  0.4206  0.9488 -0.4867
11672TIP3    H256508   4.900   1.085  15.255  1.1044  0.8949  0.0662
11673TIP3   OH256509   3.955   1.700  10.955 -0.0857  0.4905 -0.4756
11673TIP3    H156510   3.942   1.767  10.888  1.2624  1.5905  0.3427
11673TIP3    H256511   4.035   1.727  11.000  0.6296 -1.8340 -0.3226
11674TIP3   OH256512   5.211   2.749   1.375 -0.2154 -0.0596 -0.0432
11674TIP3    H156513   5.290   2.791   1.343 -0.4193  0.3568  0.0002
11674TIP3    H256514   5.175   2.810   1.439 -0.2922 -0.4817  0.3227
11675TIP3   OH256515   1.417   1.898   5.062  0.0178  0.5072  0.0788
11675TIP3    H156516   1.486   1.946   5.107  1.6562 -2.8751  1.3625
11675TIP3    H256517   1.336   1.937   5.094  1.2363  0.9748  2.7556
11676TIP3   OH256518   4.798   5.523  11.820  0.3776 -0.2326 -0.1364
11676TIP3    H156519   4.795   5.475  11.737  2.2519 -0.8339  0.1399
11676TIP3    H256520   4.851   5.601  11.801  0.3933 -0.1211  0.3700
11677TIP3   OH256521   3.254   2.133   2.877  0.2578 -0.9637  0.2816
11677TIP3    H156522   3.306   2.196   2.928  1.4563 -0.3297 -1.6565
11677TIP3    H256523   3.202   2.187   2.818 -1.3030 -1.6807  0.9888
11678TIP3   OH256524   3.452   3.251  10.426 -0.2341  0.4883 -1.2477
11678TIP3    H156525   3.537   3.293  10.443 -0.2384  0.7085 -1.7423
11678TIP3    H256526   3.404   3.259  10.508  0.0726  0.7288 -1.0893
11679TIP3   OH256527   1.194   1.030  17.210 -0.1125  0.2841  0.2752
11679TIP3    H156528   1.221   1.109  17.162  0.5465  0.2467  0.5770
11679TIP3    H256529   1.276   0.992  17.240 -0.3017 -1.3975 -1.2482
11680TIP3   OH256530   0.415   5.656  15.578 -0.5927  0.0809 -0.0670
11680TIP3    H156531   0.490   5.705  15.545 -0.2438 -0.9533 -0.8464
11680TIP3    H256532   0.452   5.590  15.637 -1.1089  1.1177  1.4489
11681TIP3   OH256533   3.612   6.477  14.597  0.4704 -0.0724 -0.4371
11681TIP3    H156534   3.567   6.553  14.560  0.3029  0.7909  1.4802
11681TIP3    H256535   3.705   6.494  14.579  0.3997  0.3795 -0.4013
11682TIP3   OH256536   0.781   5.056  16.942  0.6026  0.3120 -0.4438
11682TIP3    H156537   0.775   5.015  16.855 -1.4224 -1.0986  0.3189
11682TIP3    H256538   0.727   5.135  16.934 -0.0132 -0.0925 -0.3274
11683TIP3   OH256539   1.585   6.743  13.029 -0.1078 -0.0758  0.8542
11683TIP3    H156540   1.508   6.783  13.071 -0.7327 -0.7731  0.3965
11683TIP3    H256541   1.628   6.816  12.984 -1.3403  0.0744 -0.1218
11684TIP3   OH256542   3.994   2.784  14.597  0.6171 -0.6664 -0.1279
11684TIP3    H156543   4.021   2.743  14.679  1.9157 -0.7609 -0.5902
11684TIP3    H256544   4.076   2.816  14.558 -0.0896  0.1518 -0.9612
11685TIP3   OH256545   6.460   4.047   2.518  0.7952  0.5720 -0.1146
11685TIP3    H156546   6.517   4.103   2.464 -0.5660  2.4397  0.3294
11685TIP3    H256547   6.401   4.109   2.562 -0.2319 -1.1800  1.0045
11686TIP3   OH256548   5.510   3.410  14.424 -0.6652 -0.4350 -0.2751
11686TIP3    H156549   5.494   3.368  14.340 -1.2117 -1.4761  0.3290
11686TIP3    H256550   5.546   3.340  14.479 -1.6081 -0.1326  0.7537
11687TIP3   OH256551   5.518   0.760   4.933 -0.1059  0.1453  0.4393
11687TIP3    H156552   5.555   0.741   5.019 -0.2501  2.9037  1.1390
11687TIP3    H256553   5.562   0.840   4.904 -2.4565  1.1298 -0.5518
11688TIP3   OH256554   6.319   6.082   1.838 -1.0772 -0.3515  0.3386
11688TIP3    H156555   6.271   6.053   1.760  0.2926 -0.6378 -0.4028
11688TIP3    H256556   6.310   6.177   1.838 -1.1249 -0.3550 -0.1362
11689TIP3   OH256557   5.195   1.331  16.172 -0.1790  0.4398  0.6227
11689TIP3    H156558   5.152   1.362  16.092  0.3969 -1.4879 -0.4939
11689TIP3    H256559   5.141   1.257  16.200 -0.1553  0.8704  1.8104
11690TIP3   OH256560   1.696   0.367  16.935 -0.2231 -0.2085  0.7048
11690TIP3    H156561   1.682   0.448  16.983  2.4887  0.6337  0.2013
11690TIP3    H256562   1.686   0.298  17.001 -0.0231  0.7054  1.7072
11691TIP3   OH256563   2.415   3.495  13.999 -0.2683 -0.1358  0.3028
11691TIP3    H156564   2.500   3.455  13.979 -0.0926  0.3750  0.0191
11691TIP3    H256565   2.437   3.581  14.036 -0.6921  0.7338 -1.4111
11692TIP3   OH256566   6.524   1.815  12.296  0.0592  0.1955 -0.4882
11692TIP3    H156567   6.437   1.776  12.296 -1.0377  2.5299 -0.1239
11692TIP3    H256568   6.533   1.853  12.208  0.7498 -0.0784 -0.5411
11693TIP3   OH256569   3.589   4.481  17.114  0.3347 -0.1032  0.0430
11693TIP3    H156570   3.680   4.484  17.084  0.0660  2.6214 -0.6330
11693TIP3    H256571   3.556   4.569  17.099 -2.9412 -1.4728 -1.2295
11694TIP3   OH256572   6.183   2.330  11.289 -0.1877 -1.0963  0.4715
11694TIP3    H156573   6.115   2.312  11.224 -1.8214  1.2560  1.4834
11694TIP3    H256574   6.136   2.345  11.371  1.4969  0.7538  1.1542
11695TIP3   OH256575   2.062   4.029   2.909 -0.0617  0.0765 -0.6556
11695TIP3    H156576   2.117   4.101   2.939  0.2177 -0.3516 -0.1453
11695TIP3    H256577   1.980   4.071   2.883 -0.6844  0.3467  1.6357
11696TIP3   OH256578   6.162   4.080   4.320 -0.4408  0.2350  0.2455
11696TIP3    H156579   6.166   4.139   4.395 -0.0151  0.6045 -0.0733
11696TIP3    H256580   6.158   4.137   4.244  1.9041 -0.1191 -0.1866
11697TIP3   OH256581   4.959   2.148  16.287 -0.2764 -0.2319  0.0349
11697TIP3    H156582   4.903   2.127  16.361 -0.5141 -0.5756 -0.2428
11697TIP3    H256583   5.011   2.069  16.273 -0.4559 -0.2755 -0.3721
11698TIP3   OH256584   6.260   2.361  17.159  0.0630  0.6088 -0.3374
11698TIP3    H156585   6.194   2.314  17.211  1.9254  0.6428  2.1298
11698TIP3    H256586   6.266   2.310  17.078 -1.5957 -0.5032  0.1974
11699TIP3   OH256587   6.022   4.837  12.874 -0.0672 -0.1408  0.5160
11699TIP3    H156588   5.954   4.795  12.820  0.7180  0.4980 -1.0068
11699TIP3    H256589   5.994   4.928  12.881  0.7787  0.2006 -0.3911
11700TIP3   OH256590   2.183   0.007  12.604 -0.0042  0.4035  0.3407
11700TIP3    H156591   2.172   0.017  12.510  2.5700  1.8236  0.1557
11700TIP3    H256592   2.270  -0.033  12.614 -0.2501  0.2604  2.1209
11701TIP3   OH256593   2.978   0.659  13.310  0.2435  0.2436  0.0243
11701TIP3    H156594   2.908   0.642  13.248  1.5843 -3.3848 -0.6263
11701TIP3    H256595   2.938   0.646  13.396 -0.2182 -0.4144 -0.2940
11702TIP3   OH256596   4.800   1.180   0.366 -0.6914 -0.1146 -0.0309
11702TIP3    H156597   4.878   1.128   0.385  0.1816  0.8888 -0.7858
11702TIP3    H256598   4.744   1.169   0.443  0.1776 -0.8824  0.4962
11703TIP3   OH256599   1.902   0.176   2.919  0.3345  0.4504 -0.2076
11703TIP3    H156600   1.986   0.166   2.874  0.7586  0.0747  0.6593
11703TIP3    H256601   1.909   0.259   2.966  0.5218  0.0314  0.5056
11704TIP3   OH256602   0.851   4.462  13.644  0.4294  0.0429 -0.4788
11704TIP3    H156603   0.899   4.535  13.604 -0.9396  1.7632  0.9106
11704TIP3    H256604   0.860   4.477  13.739 -0.1584 -1.3979 -0.1897
11705TIP3   OH256605   1.391   6.467   6.893 -0.3977  0.0449 -0.0629
11705TIP3    H156606   1.477   6.460   6.852  0.0244 -1.6840  1.0744
11705TIP3    H256607   1.347   6.385   6.868 -1.0490  0.1232  0.8408
11706TIP3   OH256608   0.540   0.559   0.692 -0.2157  0.0822 -0.4826
11706TIP3    H156609   0.501   0.607   0.765 -0.8948 -0.0144 -0.7793
11706TIP3    H256610   0.508   0.605   0.614 -0.0555 -0.2387 -0.7370
11707TIP3   OH256611   5.701   5.842   1.257 -0.4102  0.2930 -0.2394
11707TIP3    H156612   5.629   5.872   1.202  0.6866  1.4870 -1.0361
11707TIP3    H256613   5.731   5.762   1.214 -0.9648  0.0271 -0.1445
11708TIP3   OH256614   4.662   0.933   4.600 -0.0461  0.4476 -0.2250
11708TIP3    H156615   4.594   0.991   4.635  0.2497  0.7655 -0.1748
11708TIP3    H256616   4.692   0.883   4.676 -0.2256  0.3029 -0.2481
11709TIP3   OH256617   5.019   4.418  14.679  0.2734 -0.2416  0.3630
11709TIP3    H156618   4.989   4.333  14.711  0.4510  0.1317  1.5454
11709TIP3    H256619   5.114   4.413  14.684  0.2820  0.0384  0.4802
11710TIP3   OH256620   2.345   4.029   5.906 -0.0948  0.2915  0.8004
11710TIP3    H156621   2.427   4.037   5.954 -0.5953  1.1896  1.5099
11710TIP3    H256622   2.344   4.104   5.846 -0.7794  0.7438  1.3726
11711TIP3   OH256623   1.532   6.415   6.619 -0.7374  0.4146 -0.1028
11711TIP3    H156624   1.594   6.484   6.592 -0.1165  0.0526  0.3818
11711TIP3    H256625   1.526   6.357   6.543 -0.6322  0.5595 -0.2222
11712TIP3   OH256626   2.158   0.262  10.933 -0.2531  0.4345  0.1479
11712TIP3    H156627   2.070   0.251  10.970  0.9881 -1.4077  2.6864
11712TIP3    H256628   2.194   0.174  10.930  1.4965  1.1592 -0.9056
11713TIP3   OH256629   4.219   5.120   2.515  0.3679  0.5376 -0.4103
11713TIP3    H156630   4.154   5.051   2.501  0.4964  0.5523 -1.0969
11713TIP3    H256631   4.193   5.191   2.456  2.1591 -0.2595 -2.2212
11714TIP3   OH256632   2.773   0.502   1.766 -0.5539  0.4102 -0.9816
11714TIP3    H156633   2.865   0.502   1.743  0.0663 -2.0361  1.1804
11714TIP3    H256634   2.727   0.480   1.685  0.8359  0.6994 -1.8490
11715TIP3   OH256635   5.139   0.774   4.252 -0.2573  0.8933  0.0924
11715TIP3    H156636   5.212   0.751   4.194 -0.4853  0.2879  0.0424
11715TIP3    H256637   5.065   0.725   4.217 -0.9131  2.2334 -0.4191
11716TIP3   OH256638   2.114   1.772  14.661  0.1950 -0.4037  0.4919
11716TIP3    H156639   2.025   1.786  14.629  0.2884  0.2506  0.5129
11716TIP3    H256640   2.130   1.846  14.720  0.4566 -0.9552  1.1188
11717TIP3   OH256641   0.506   3.411   6.403 -0.1948  0.4693  0.1016
11717TIP3    H156642   0.565   3.392   6.330  1.3555  1.0494  1.1860
11717TIP3    H256643   0.556   3.391   6.482 -2.2477 -1.2587  1.0281
11718TIP3   OH256644   3.157   1.184  12.642  0.2013  0.1320 -0.1478
11718TIP3    H156645   3.078   1.237  12.636  1.2049  2.1400  2.8917
11718TIP3    H256646   3.158   1.153  12.733  2.2961 -0.7648 -0.4541
11719TIP3   OH256647   0.602   5.758   4.246  0.1329 -0.1417 -0.6431
11719TIP3    H156648   0.667   5.828   4.243 -0.3081  0.2796 -0.5099
11719TIP3    H256649   0.538   5.782   4.178 -1.1420  0.7244  0.8209
11720TIP3   OH256650   4.284   5.607  16.997 -0.3473  0.4199  0.0518
11720TIP3    H156651   4.231   5.652  16.930 -0.0486 -0.0747 -0.5233
11720TIP3    H256652   4.367   5.590  16.953  0.3260  1.2526  0.9722
11721TIP3   OH256653   0.474   1.596   1.190  0.0433 -0.3336 -0.2958
11721TIP3    H156654   0.484   1.570   1.281  0.6984 -0.2109 -0.3279
11721TIP3    H256655   0.488   1.516   1.139 -0.3838 -0.4150 -0.2901
11722TIP3   OH256656   6.210   1.838   2.825 -0.2840  0.4841  0.5158
11722TIP3    H156657   6.155   1.780   2.773  0.9983  0.4070 -0.7943
11722TIP3    H256658   6.286   1.785   2.847  0.5530  1.4106 -0.0603
11723TIP3   OH256659   0.556   6.466   3.558  0.0427  0.2711  0.0532
11723TIP3    H156660   0.539   6.391   3.615  1.4322 -0.1933 -0.1196
11723TIP3    H256661   0.638   6.503   3.592 -0.2134  1.2359 -0.3649
11724TIP3   OH256662   5.802   5.952   4.263 -0.0571  0.0001 -0.0357
11724TIP3    H156663   5.715   5.990   4.250  0.7546  1.8846 -0.1335
11724TIP3    H256664   5.862   6.019   4.230  1.4418 -1.1080  0.4259
11725TIP3   OH256665   3.825   5.504  16.160  0.2783 -0.0116 -0.1370
11725TIP3    H156666   3.775   5.508  16.078  1.2090 -1.8559 -0.8030
11725TIP3    H256667   3.816   5.592  16.197 -0.5375  0.7118 -1.9820
11726TIP3   OH256668   2.881   5.973  13.539 -0.1221 -0.2681  0.2205
11726TIP3    H156669   2.887   5.999  13.447 -0.8947 -3.7324 -0.8761
11726TIP3    H256670   2.957   5.916  13.553  1.7176  2.5919  2.6463
11727TIP3   OH256671   0.277   4.017   3.433  0.1087 -0.0054  0.3884
11727TIP3    H156672   0.235   3.991   3.351  0.7112 -1.6466  0.5677
11727TIP3    H256673   0.357   3.964   3.436 -0.6122 -1.0213  2.7161
11728TIP3   OH256674   6.686   0.949   3.229 -0.1709 -0.1223 -0.1420
11728TIP3    H156675   6.746   0.878   3.204  0.5213 -0.0221  1.1940
11728TIP3    H256676   6.734   1.029   3.209  0.3182 -0.0431  1.3381
11729TIP3   OH256677   5.696   5.657   6.685  0.1167  0.5212 -0.9877
11729TIP3    H156678   5.784   5.662   6.723 -1.2055  1.1756  2.1132
11729TIP3    H256679   5.657   5.578   6.722 -1.0961  0.9966 -1.2121
11730TIP3   OH256680   3.367   5.938  12.246  0.2849  0.1718 -0.4173
11730TIP3    H156681   3.302   5.961  12.313 -1.4402 -2.5470 -1.0742
11730TIP3    H256682   3.317   5.890  12.180  3.1609 -2.7905 -0.5321
11731TIP3   OH256683   4.734   1.611  10.814  0.4618 -0.6183 -0.4728
11731TIP3    H156684   4.821   1.588  10.781  0.6072  0.3465 -0.7753
11731TIP3    H256685   4.716   1.696  10.776 -0.0632 -0.2177  0.6577
11732TIP3   OH256686   6.145   5.873   0.128 -0.4740 -0.2800  0.4718
11732TIP3    H156687   6.164   5.953   0.079  1.3339 -1.7586 -1.3852
11732TIP3    H256688   6.114   5.811   0.062  1.7119 -2.2341  1.1995
11733TIP3   OH256689   4.760   5.697   6.527  0.0600 -0.3206 -0.3154
11733TIP3    H156690   4.787   5.612   6.562 -0.2572 -0.3670 -0.1894
11733TIP3    H256691   4.836   5.726   6.476  0.0400 -0.8417 -0.6515
11734TIP3   OH256692   6.814   0.592  16.952  0.0530  0.0376 -0.0774
11734TIP3    H156693   6.827   0.591  16.858 -1.3438 -0.1533 -0.2750
11734TIP3    H256694   6.750   0.523  16.969  0.4448 -0.0676  1.0343
11735TIP3   OH256695   0.347   0.950   3.801  0.4866  0.0098 -0.1352
11735TIP3    H156696   0.266   0.927   3.757  0.2460 -0.6303  0.6393
11735TIP3    H256697   0.321   1.011   3.870  0.7508  0.3528 -0.3371
11736TIP3   OH256698   2.706   0.124  14.341 -0.4889  0.2704 -0.4899
11736TIP3    H156699   2.689   0.149  14.432  1.0611  1.9771 -0.6488
11736TIP3    H256700   2.801   0.129  14.332 -0.6483  0.3281 -2.2638
11737TIP3   OH256701   5.454   1.689   0.742  0.3936 -0.0035  0.1132
11737TIP3    H156702   5.408   1.625   0.687  0.6275 -0.3156  0.2780
11737TIP3    H256703   5.438   1.773   0.699 -0.2207 -0.1246  0.0986
11738TIP3   OH256704   3.654   4.511  14.563  0.2850  0.1291  0.0732
11738TIP3    H156705   3.742   4.542  14.580  0.0345  0.7608  0.2193
11738TIP3    H256706   3.612   4.581  14.513 -0.5466  0.4054  1.1302
11739TIP3   OH256707   3.473   4.327  13.062 -0.2756  0.2448 -0.1573
11739TIP3    H156708   3.566   4.342  13.044 -0.3544 -0.5943 -1.2902
11739TIP3    H256709   3.431   4.411  13.040  0.4350  1.2815  2.2303
11740TIP3   OH256710   4.809   4.728  10.960  0.7512  0.6815 -0.1259
11740TIP3    H156711   4.797   4.739  11.054  0.8068 -2.1550  0.2508
11740TIP3    H256712   4.903   4.729  10.947  0.8076 -0.7454  0.1112
11741TIP3   OH256713   6.131   2.981   1.190  0.6547 -0.5759  0.5332
11741TIP3    H156714   6.188   2.977   1.113 -0.9253 -0.7546 -0.6489
11741TIP3    H256715   6.148   3.068   1.227  0.2586  0.1369 -0.9347
11742TIP3   OH256716   4.171   0.584   2.969  0.0742  0.5743  0.8788
11742TIP3    H156717   4.254   0.631   2.958  0.6091 -0.1034  1.9096
11742TIP3    H256718   4.188   0.522   3.040 -1.1132 -0.0482  0.6325
11743TIP3   OH256719   0.904   0.473  14.827  0.1785 -0.5346  0.1668
11743TIP3    H156720   0.951   0.390  14.816 -0.4419 -0.7111 -1.3208
11743TIP3    H256721   0.970   0.533  14.863  0.5507 -1.7431  1.5379
11744TIP3   OH256722   5.430   2.384   2.198 -0.4628 -0.2690 -0.1396
11744TIP3    H156723   5.442   2.477   2.218  1.2178 -0.5755  0.4278
11744TIP3    H256724   5.519   2.353   2.178 -0.9985 -1.7552 -0.2650
11745TIP3   OH256725   2.530   0.776  15.318 -0.1859 -0.3525 -0.5970
11745TIP3    H156726   2.493   0.829  15.388  3.0016  0.8221  0.2740
11745TIP3    H256727   2.579   0.706  15.363  0.6889 -0.4317 -1.6368
11746TIP3   OH256728   4.091   5.176   2.968  0.2944 -0.4305  0.4489
11746TIP3    H156729   4.082   5.212   3.056  0.9263 -2.2261  1.2611
11746TIP3    H256730   4.162   5.113   2.974  0.9609  0.0831 -1.5742
11747TIP3   OH256731   6.171   3.831  11.140  0.1515 -0.1368  0.4516
11747TIP3    H156732   6.114   3.779  11.082  0.0412 -0.1086  0.5353
11747TIP3    H256733   6.147   3.803  11.228  0.0310  0.1180  0.5009
11748TIP3   OH256734   4.350   4.783   1.548  0.1553  0.6226 -0.5521
11748TIP3    H156735   4.266   4.798   1.591  0.8343  0.3712  0.8797
11748TIP3    H256736   4.396   4.866   1.558  0.9116  0.0848  0.5947
11749TIP3   OH256737   3.534   3.826   3.136 -0.5307  0.6557 -0.7610
11749TIP3    H156738   3.542   3.910   3.182  1.1866  1.0954 -1.7973
11749TIP3    H256739   3.460   3.783   3.177  1.4005  0.6821  2.9671
11750TIP3   OH256740   1.786   2.442   0.123 -0.7992  0.3619 -0.0260
11750TIP3    H156741   1.758   2.350   0.118 -0.8561  0.2224  2.4061
11750TIP3    H256742   1.881   2.438   0.122 -0.8008  0.3226 -0.2982
11751TIP3   OH256743   6.537   0.201  13.595 -0.0635 -0.2258 -0.2317
11751TIP3    H156744   6.631   0.186  13.592 -0.4800 -2.8499 -2.2648
11751TIP3    H256745   6.519   0.229  13.684  2.5588 -0.2394  0.3184
11752TIP3   OH256746   5.842   3.017   1.145  0.0229 -0.5962 -0.2643
11752TIP3    H156747   5.930   3.001   1.179  0.0361  0.0749  0.0317
11752TIP3    H256748   5.855   3.036   1.052  0.5508  2.6215  0.4120
11753TIP3   OH256749   0.477   4.022  17.290 -0.5409  0.5728 -0.2176
11753TIP3    H156750   0.439   4.092  17.343 -1.4065 -0.2045  0.2169
11753TIP3    H256751   0.407   3.957  17.283  0.0971 -0.0427 -0.9963
11754TIP3   OH256752   0.219   0.784  12.670  0.2848  0.0340  0.2064
11754TIP3    H156753   0.225   0.865  12.621 -1.3256  0.1504  0.1673
11754TIP3    H256754   0.125   0.773  12.688  0.5744 -1.3177  1.0312
11755TIP3   OH256755   3.311   4.293   3.956  0.0043 -0.5037  0.1485
11755TIP3    H156756   3.245   4.333   4.014 -1.4149 -2.7083  0.1306
11755TIP3    H256757   3.358   4.232   4.013  2.0837  1.0654  0.1567
11756TIP3   OH256758   1.716   1.245  13.743 -0.2418  0.2971  0.9122
11756TIP3    H156759   1.675   1.327  13.717  0.3074 -0.2257 -1.7400
11756TIP3    H256760   1.799   1.270  13.782  0.0226  1.0071 -0.0899
11757TIP3   OH256761   3.897   6.024   2.470 -0.3914  0.1152 -0.1265
11757TIP3    H156762   3.975   5.968   2.470 -0.5074 -0.1085 -2.1692
11757TIP3    H256763   3.835   5.978   2.414 -0.4743  2.2736 -1.8926
11758TIP3   OH256764   4.590   1.666   5.223  0.3756  0.6597 -0.0138
11758TIP3    H156765   4.585   1.643   5.316 -0.2345  0.0775 -0.1831
11758TIP3    H256766   4.641   1.747   5.221 -1.8999  2.1864  1.0984
11759TIP3   OH256767   1.036   3.993  15.044  0.2045 -0.1295 -0.1816
11759TIP3    H156768   0.948   3.992  15.007 -0.5896 -0.6562  1.6427
11759TIP3    H256769   1.053   4.085  15.064 -0.3536 -0.1380  0.3709
11760TIP3   OH256770   1.203   4.298   3.869  0.4381 -0.6655 -0.4342
11760TIP3    H156771   1.183   4.296   3.963  0.2240  1.0917 -0.4090
11760TIP3    H256772   1.279   4.242   3.859 -0.2293 -1.7824  0.6087
11761TIP3   OH256773   4.022   1.299  10.890  0.1812  0.3768 -0.1941
11761TIP3    H156774   4.034   1.286  10.796 -0.3236  0.7040 -0.3052
11761TIP3    H256775   3.927   1.305  10.902  0.2019 -0.5567  0.4542
11762TIP3   OH256776   0.386   0.668   3.802  0.3991  0.0052  0.2341
11762TIP3    H156777   0.352   0.757   3.794  0.5207 -0.0748 -1.3394
11762TIP3    H256778   0.479   0.675   3.781  0.9770 -0.0881  2.6540
11763TIP3   OH256779   0.339   0.573  12.347 -0.5576  0.2392  0.2871
11763TIP3    H156780   0.434   0.558  12.349 -0.5382  0.4340  2.1290
11763TIP3    H256781   0.307   0.518  12.276  0.7367 -1.0635  0.6882
11764TIP3   OH256782   0.253   3.302   4.239 -0.5074 -0.2773  0.2857
11764TIP3    H156783   0.188   3.289   4.308 -1.0723  1.9136  0.1996
11764TIP3    H256784   0.203   3.302   4.158 -0.4633  1.7337  0.2446
11765TIP3   OH256785   1.905   1.122   5.358 -0.4392 -0.0744 -0.2537
11765TIP3    H156786   1.868   1.046   5.403  1.3651 -0.2681  0.9785
11765TIP3    H256787   1.946   1.086   5.279 -0.6927 -0.2073 -0.3238
11766TIP3   OH256788   3.335   6.728  16.759 -0.5677 -0.2321  0.1616
11766TIP3    H156789   3.371   6.801  16.708 -1.7420  1.1472  1.2927
11766TIP3    H256790   3.411   6.692  16.805  0.1236 -0.1247 -0.8730
11767TIP3   OH256791   5.130   6.019   0.444  0.4586  0.3833 -0.5875
11767TIP3    H156792   5.102   6.106   0.472  0.2086  0.6525 -1.6388
11767TIP3    H256793   5.150   6.029   0.351  0.5347 -0.6560 -0.6902
11768TIP3   OH256794   6.563   2.367   5.115 -0.3812 -0.0447 -0.6626
11768TIP3    H156795   6.517   2.408   5.041  0.5794 -3.2758 -3.1594
11768TIP3    H256796   6.511   2.290   5.136  1.2788 -1.0850 -0.3183
11769TIP3   OH256797   6.659   2.659   2.696 -0.3094 -0.0143 -0.4177
11769TIP3    H156798   6.599   2.686   2.627  0.0912 -1.2344 -1.2424
11769TIP3    H256799   6.603   2.620   2.763 -0.6444  0.7263 -0.2618
11770TIP3   OH256800   0.029   2.851   2.024  0.0142  0.3939  0.0365
11770TIP3    H156801   0.071   2.936   2.010 -0.1352  0.1368 -2.1627
11770TIP3    H256802   0.010   2.849   2.118  0.3057  2.6559  0.1752
11771TIP3   OH256803   2.050   2.469   4.088  0.1045  0.1446 -0.3610
11771TIP3    H156804   2.057   2.517   4.170 -1.9243 -0.8811  0.4467
11771TIP3    H256805   2.086   2.529   4.022 -0.6256  2.0083  0.8980
11772TIP3   OH256806   4.185   1.991   4.602  0.2309 -0.2325 -0.7092
11772TIP3    H156807   4.141   2.016   4.684 -1.1414 -2.6245 -0.6628
11772TIP3    H256808   4.278   1.985   4.626  0.2636  2.0100 -0.0967
11773TIP3   OH256809   0.739   5.563  16.143  0.3103  0.0055 -0.3484
11773TIP3    H156810   0.738   5.560  16.047 -2.8501  0.5485 -0.3568
11773TIP3    H256811   0.743   5.471  16.169  1.1958 -0.1452 -0.9826
11774TIP3   OH256812   3.293   1.976  13.642 -0.0410  0.1057  0.3450
11774TIP3    H156813   3.364   2.041  13.639 -0.9399  1.0867  0.1655
11774TIP3    H256814   3.224   2.014  13.588 -0.0395 -1.6493 -0.9117
11775TIP3   OH256815   6.800   5.521  17.115  0.1348  0.0653  0.4942
11775TIP3    H156816   6.738   5.512  17.187  0.2413  0.9758  0.7125
11775TIP3    H256817   6.866   5.454  17.131 -1.8680 -2.3012 -0.8902
11776TIP3   OH256818   6.285   0.238  11.543  0.7901  0.0804  0.0345
11776TIP3    H156819   6.379   0.220  11.542  0.4279 -1.9058 -0.5864
11776TIP3    H256820   6.249   0.173  11.604 -0.4811 -0.7953 -1.6104
11777TIP3   OH256821   3.446   6.616  17.292 -0.3600  0.0977 -0.5633
11777TIP3    H156822   3.386   6.541  17.300 -1.3923  0.7709 -1.6873
11777TIP3    H256823   3.426   6.670  17.368 -1.1391  0.2698 -0.8771
11778TIP3   OH256824   5.119   5.018  15.061 -0.7891 -0.5451  0.2846
11778TIP3    H156825   5.201   5.058  15.033 -1.1290 -0.1139 -0.1010
11778TIP3    H256826   5.120   5.026  15.157  0.3246 -1.9373  0.4191
11779TIP3   OH256827   0.500   5.480   5.908  0.1070  0.5701  0.2983
11779TIP3    H156828   0.470   5.560   5.866 -0.4256  0.6459  0.8095
11779TIP3    H256829   0.475   5.490   6.000 -1.4029 -0.8441  0.0847
11780TIP3   OH256830   2.819   3.540  10.698  0.0119  0.2095  0.5946
11780TIP3    H156831   2.830   3.458  10.747 -1.0825 -0.8393 -0.8703
11780TIP3    H256832   2.891   3.539  10.634 -0.7544 -0.2663 -0.2814
11781TIP3   OH256833   6.031   4.001  13.572 -0.2875  0.2081 -0.1605
11781TIP3    H156834   5.952   3.962  13.536 -1.0684  0.6628  1.0465
11781TIP3    H256835   6.074   3.930  13.618  0.5419 -0.2904 -1.6514
11782TIP3   OH256836   6.695   3.221   4.859  0.0987  0.3013  0.5651
11782TIP3    H156837   6.790   3.214   4.848 -0.1870 -1.1630 -1.3799
11782TIP3    H256838   6.684   3.281   4.932  2.5068  2.1194 -0.4673
11783TIP3   OH256839   0.983   4.839   5.460 -0.0091  0.3510  0.0437
11783TIP3    H156840   0.924   4.839   5.385 -0.2412 -1.3314  0.2165
11783TIP3    H256841   1.040   4.915   5.446 -1.3472  1.2208 -0.7848
11784TIP3   OH256842   2.017   6.595   5.001  0.3368 -0.4892  0.2084
11784TIP3    H156843   1.990   6.555   5.084 -0.4789  1.1412  0.7549
11784TIP3    H256844   1.935   6.603   4.951  0.8062 -1.3519 -0.7189
11785TIP3   OH256845   0.312   1.782  10.614 -0.2160 -0.5721  0.5613
11785TIP3    H156846   0.272   1.787  10.701 -2.1536 -4.3122 -0.0356
11785TIP3    H256847   0.240   1.796  10.553  0.9403  0.9091 -0.5355
11786TIP3   OH256848   5.164   4.480  14.146 -0.3435 -0.0725 -0.9052
11786TIP3    H156849   5.125   4.539  14.211  1.2313  1.0068 -0.8847
11786TIP3    H256850   5.209   4.413  14.198 -1.1710 -0.6316 -0.9120
11787TIP3   OH256851   0.794   0.571  17.276  0.8880 -0.2724 -0.0285
11787TIP3    H156852   0.832   0.647  17.320 -0.3812  0.1746  0.3154
11787TIP3    H256853   0.846   0.497  17.308  1.1870  0.2710  0.7829
11788TIP3   OH256854   0.272   6.225  12.902  0.1258  0.0625 -0.3399
11788TIP3    H156855   0.248   6.132  12.897 -0.2197  0.1557 -0.4325
11788TIP3    H256856   0.295   6.239  12.994 -0.6720  0.0915 -0.1440
11789TIP3   OH256857   0.893   4.679   3.004  0.7525  0.1624  0.0881
11789TIP3    H156858   0.931   4.708   2.921 -0.1405 -0.0195 -0.3863
11789TIP3    H256859   0.933   4.593   3.020  2.7265  1.2219  1.0545
11790TIP3   OH256860   6.587   4.567   6.273  0.0072  0.4027  0.3158
11790TIP3    H156861   6.662   4.593   6.219  0.3152 -0.4749  0.3139
11790TIP3    H256862   6.625   4.547   6.359 -0.1552 -0.5550  0.1631
11791TIP3   OH256863   5.364   3.518  16.666 -0.0918 -0.0860  0.2233
11791TIP3    H156864   5.416   3.581  16.616 -0.6797  1.2487  1.2440
11791TIP3    H256865   5.341   3.450  16.603 -0.6667  1.4560 -1.2703
11792TIP3   OH256866   0.380   0.494   3.443  0.1239  0.0916  0.0312
11792TIP3    H156867   0.445   0.554   3.480  0.7497 -1.5893  1.6945
11792TIP3    H256868   0.327   0.468   3.518  0.0350 -1.6602 -0.6357
11793TIP3   OH256869   6.118   6.813   6.036  0.0519 -0.3680 -0.0821
11793TIP3    H156870   6.206   6.846   6.053  2.0702 -4.2945 -2.1557
11793TIP3    H256871   6.069   6.833   6.116  3.2159  0.7220  1.6596
11794TIP3   OH256872   3.742   6.060   4.673 -0.0556 -0.1861  0.0561
11794TIP3    H156873   3.683   6.076   4.599  1.1741  1.5211 -0.5758
11794TIP3    H256874   3.695   6.096   4.749  0.2514  1.3748 -0.4782
11795TIP3   OH256875   1.440   0.705   5.815  0.6892 -0.3628 -0.1985
11795TIP3    H156876   1.428   0.788   5.770 -0.3880 -1.0993 -1.2976
11795TIP3    H256877   1.472   0.645   5.748 -0.0571 -1.2425  0.2124
11796TIP3   OH256878   0.123   4.770  12.389 -0.6291  0.0707  0.2940
11796TIP3    H156879   0.169   4.842  12.431 -0.8120  0.6903 -0.5533
11796TIP3    H256880   0.165   4.760  12.304  0.1387 -1.5772  0.8449
11797TIP3   OH256881   0.896   1.190   0.189  0.2760  0.1868  0.2957
11797TIP3    H156882   0.834   1.263   0.181  1.5803  1.2300 -0.6130
11797TIP3    H256883   0.977   1.232   0.220  0.4047 -1.2174  1.9054
11798TIP3   OH256884   2.916   5.579  11.832 -0.2425 -0.4231  0.0230
11798TIP3    H156885   2.935   5.638  11.906  0.9707 -1.5268  0.6155
11798TIP3    H256886   2.853   5.517  11.867 -0.7232 -0.1218 -0.2957
11799TIP3   OH256887   5.288   5.188  15.575  0.6423  0.7025  0.0902
11799TIP3    H156888   5.207   5.191  15.523  1.5557  0.2474 -1.3826
11799TIP3    H256889   5.262   5.219  15.661 -1.4529 -0.8771  0.0676
11800TIP3   OH256890   1.520   6.004   4.296 -0.8460 -0.2477 -0.1427
11800TIP3    H156891   1.517   5.978   4.204 -0.1045  1.2082 -0.5868
11800TIP3    H256892   1.606   5.977   4.326 -0.6623  0.2818 -0.1860
11801TIP3   OH256893   4.642   4.522  11.208 -0.1709 -0.3016  0.1719
11801TIP3    H156894   4.572   4.586  11.198  1.1282  0.8798 -1.5820
11801TIP3    H256895   4.607   4.442  11.169 -1.3088 -0.3385  1.2164
11802TIP3   OH256896   0.213   6.191   1.124 -0.0590  0.1617 -0.5481
11802TIP3    H156897   0.267   6.219   1.199  1.0828  1.6360 -1.8906
11802TIP3    H256898   0.130   6.164   1.164  1.1073 -0.6953  1.4170
11803TIP3   OH256899   1.419   1.950  11.843  0.1325  0.1264 -0.3581
11803TIP3    H156900   1.480   1.878  11.858  0.7253  1.0219  1.6645
11803TIP3    H256901   1.354   1.913  11.783  1.0506 -1.7382 -0.2650
11804TIP3   OH256902   0.951   2.624   3.835  0.1860 -0.2283  0.2885
11804TIP3    H156903   0.983   2.561   3.900 -0.3664 -0.4901  0.3069
11804TIP3    H256904   0.985   2.709   3.865  1.6205 -0.6227 -0.1866
11805TIP3   OH256905   4.771   2.341   4.072 -0.1698 -0.3651  0.8084
11805TIP3    H156906   4.850   2.294   4.101  1.4349  1.7460 -0.0104
11805TIP3    H256907   4.792   2.433   4.087 -0.9335  0.5139 -3.1765
11806TIP3   OH256908   4.189   4.594   1.128  0.2954 -0.0741  0.0346
11806TIP3    H156909   4.148   4.644   1.199  0.2361  1.3144 -0.9539
11806TIP3    H256910   4.281   4.621   1.130  0.1972  0.3198 -0.7078
11807TIP3   OH256911   5.963   0.770  15.897  0.0700  0.2585 -0.7034
11807TIP3    H156912   5.963   0.685  15.941  1.4743  0.6879  0.1807
11807TIP3    H256913   5.924   0.753  15.811 -3.7365 -0.4053  1.0229
11808TIP3   OH256914   3.583   4.064   3.901 -0.5509 -0.1074 -0.0988
11808TIP3    H156915   3.614   4.149   3.870 -0.0190 -0.5014 -0.6740
11808TIP3    H256916   3.553   4.080   3.990 -1.4285  0.8988 -0.5662
11809TIP3   OH256917   3.279   4.371  12.055  0.2348 -0.3523 -0.3979
11809TIP3    H156918   3.271   4.447  12.114  0.0583 -0.9501  0.3590
11809TIP3    H256919   3.368   4.376  12.022  2.2666 -3.0227  4.1411
11810TIP3   OH256920   4.272   5.571  12.373 -0.0909 -0.2972 -0.0540
11810TIP3    H156921   4.297   5.508  12.305 -0.4033 -0.5528  0.0660
11810TIP3    H256922   4.354   5.594  12.416  0.5452  2.2177 -2.5194
11811TIP3   OH256923   5.839   1.842   5.500 -0.4363  0.4097  0.2241
11811TIP3    H156924   5.799   1.812   5.418  0.3569 -0.2099  0.0512
11811TIP3    H256925   5.921   1.883   5.473 -0.2646  0.3764  0.6821
11812TIP3   OH256926   4.454   0.606  13.502  0.0264  0.1165  0.0030
11812TIP3    H156927   4.455   0.525  13.552 -1.0278 -0.1140 -0.3190
11812TIP3    H256928   4.413   0.581  13.419 -2.0343  1.3707  0.6187
11813TIP3   OH256929   1.635   0.426  14.691  0.3410 -0.2963  0.4972
11813TIP3    H156930   1.541   0.427  14.669  0.3754 -0.7173  0.3248
11813TIP3    H256931   1.641   0.370  14.768  0.3502  0.3850  0.9989
11814TIP3   OH256932   5.846   1.360   1.484  0.3734  0.3527  0.5073
11814TIP3    H156933   5.783   1.297   1.521 -0.5227  0.9935  0.0977
11814TIP3    H256934   5.846   1.341   1.390  1.4118 -0.1843  0.6111
11815TIP3   OH256935   4.567   4.792   2.530 -0.4055  0.4343 -0.0642
11815TIP3    H156936   4.482   4.791   2.575  0.7232 -1.2592  2.0976
11815TIP3    H256937   4.626   4.837   2.591  1.4660 -3.1045  0.8448
11816TIP3   OH256938   4.248   6.706  11.674 -0.4975  0.0615  0.6293
11816TIP3    H156939   4.172   6.652  11.652 -2.5445  3.5709 -1.2630
11816TIP3    H256940   4.224   6.748  11.756  0.3192 -0.4776  1.1476
11817TIP3   OH256941   2.325   2.323  11.552  0.3682  0.0752 -0.2302
11817TIP3    H156942   2.344   2.316  11.459  1.2541  1.3690 -0.1642
11817TIP3    H256943   2.387   2.388  11.584 -0.5762  0.3537  1.0735
11818TIP3   OH256944   3.599   5.948   5.932  0.1216  0.5397 -0.2559
11818TIP3    H156945   3.644   5.897   5.865  1.9438  0.4020  1.0489
11818TIP3    H256946   3.662   6.016   5.957 -0.5246  0.5829  1.3101
11819TIP3   OH256947   0.555   1.842  16.587  0.0180 -0.2846 -0.3120
11819TIP3    H156948   0.627   1.780  16.592 -1.2098 -1.6140  1.3163
11819TIP3    H256949   0.574   1.906  16.656  0.6969  0.5657 -1.2585
11820TIP3   OH256950   4.873   1.213  14.530  0.1039  0.2196 -0.0672
11820TIP3    H156951   4.848   1.253  14.447  0.8425 -0.1442 -0.4700
11820TIP3    H256952   4.806   1.146  14.545 -0.0087  0.2591 -0.3937
11821TIP3   OH256953   0.730   1.115  12.786  0.1047  0.2689  0.4896
11821TIP3    H156954   0.650   1.074  12.751  1.8389 -0.5983 -2.6211
11821TIP3    H256955   0.784   1.041  12.814  0.7136  0.7327  0.5425
11822TIP3   OH256956   5.240   4.258   4.203  0.0487 -0.3618 -0.0315
11822TIP3    H156957   5.247   4.353   4.212  2.3388 -0.4970  0.0707
11822TIP3    H256958   5.159   4.235   4.248 -0.8042  1.5946 -0.5026
11823TIP3   OH256959   0.906   4.632  14.822 -0.7710  0.0695 -0.3522
11823TIP3    H156960   0.921   4.683  14.743  0.2822  1.4631  0.7264
11823TIP3    H256961   0.838   4.680  14.869 -0.0552  0.2759  0.4820
11824TIP3   OH256962   3.397   5.008  13.088  0.6587  0.2104 -0.3451
11824TIP3    H156963   3.380   4.953  13.011 -0.5221  1.8999 -1.3309
11824TIP3    H256964   3.424   5.093  13.052  1.4159  0.6195  1.1340
11825TIP3   OH256965   5.911   1.933  13.005 -0.4224  0.1332  0.0512
11825TIP3    H156966   5.852   2.006  13.026  0.8420  0.8796  1.0738
11825TIP3    H256967   5.951   1.957  12.922 -0.0206  0.6031  0.3790
11826TIP3   OH256968   0.326   2.572   2.270  0.0139 -0.1049 -0.1885
11826TIP3    H156969   0.333   2.664   2.246 -2.6863  0.1306 -0.2579
11826TIP3    H256970   0.414   2.536   2.256  0.8708  2.2469 -1.0129
11827TIP3   OH256971   3.809   0.229  15.053 -0.3378  0.0751 -0.1869
11827TIP3    H156972   3.810   0.143  15.095 -1.4874  1.3457  2.4998
11827TIP3    H256973   3.892   0.269  15.079 -0.4408  0.3509 -0.2845
11828TIP3   OH256974   1.891   1.626  15.617 -0.4467 -0.3409  0.0135
11828TIP3    H156975   1.802   1.601  15.641 -1.4205  0.8333 -2.3072
11828TIP3    H256976   1.936   1.543  15.601 -1.0337 -0.9397  1.3507
11829TIP3   OH256977   3.138   0.522   3.995 -0.0746  0.0659 -0.2104
11829TIP3    H156978   3.149   0.576   4.073  2.0816 -0.1613 -0.3221
11829TIP3    H256979   3.142   0.584   3.922 -1.0843  0.1564 -0.1969
11830TIP3   OH256980   3.252   0.039   5.938 -0.8975  0.4384 -0.3746
11830TIP3    H156981   3.211   0.123   5.921  0.2019  1.6054  2.5746
11830TIP3    H256982   3.306   0.053   6.016  0.3519 -2.6354 -0.6079
11831TIP3   OH256983   5.866   1.896   1.958 -0.5076 -0.4121 -0.3168
11831TIP3    H156984   5.784   1.848   1.963 -0.8878  0.3219  0.6461
11831TIP3    H256985   5.843   1.980   1.919 -0.4228  0.2172  0.9496
11832TIP3   OH256986   3.288   3.192  17.182  0.4269  0.1011 -0.1054
11832TIP3    H156987   3.194   3.204  17.195  0.6022  0.4119  0.9207
11832TIP3    H256988   3.297   3.102  17.151 -0.1536 -0.1871  0.5505
11833TIP3   OH256989   1.883   1.071  12.398 -0.3889  0.0971 -0.4038
11833TIP3    H156990   1.864   1.136  12.330 -0.0188 -0.8890 -1.4507
11833TIP3    H256991   1.806   1.015  12.398 -0.5464  0.3117  0.2519
11834TIP3   OH256992   4.429   3.172   3.809  0.1000  0.5896 -0.0355
11834TIP3    H156993   4.356   3.176   3.747 -0.0158 -0.2404  0.0354
11834TIP3    H256994   4.439   3.078   3.828  2.5548  0.4813 -1.6875
11835TIP3   OH256995   6.334   4.767   6.898  0.2239  0.3551 -0.1331
11835TIP3    H156996   6.298   4.680   6.882 -0.9115  0.7672  0.1370
11835TIP3    H256997   6.301   4.791   6.985  1.3664  0.6375  0.2418
11836TIP3   OH256998   2.685   2.569  15.171  0.1699  0.4785  0.1346
11836TIP3    H156999   2.764   2.613  15.142  1.6859  0.4476  3.9880
11836TIP3    H257000   2.709   2.528  15.254 -2.0168 -5.0729 -1.7161
11837TIP3   OH257001   3.282   4.985  11.193 -0.9717  0.2551 -0.1881
11837TIP3    H157002   3.294   5.071  11.152  0.6070  1.3627  2.4081
11837TIP3    H257003   3.190   4.963  11.177 -0.7389  1.2324 -3.0669
11838TIP3   OH257004   1.129   2.919   5.149 -0.1391 -0.5064 -0.0030
11838TIP3    H157005   1.115   2.910   5.243 -1.9821 -0.8926 -0.3080
11838TIP3    H257006   1.167   3.006   5.139 -0.0503 -0.4150  1.0868
11839TIP3   OH257007   5.521   0.326   5.182 -0.0825 -0.0859  0.1063
11839TIP3    H157008   5.590   0.368   5.131  1.4009 -0.8403  1.4797
11839TIP3    H257009   5.523   0.234   5.155 -0.3916 -0.1651  0.3407
11840TIP3   OH257010   5.350   1.124   3.433 -0.2555 -0.3018  0.3891
11840TIP3    H157011   5.417   1.119   3.502  0.8289 -0.7593 -0.6680
11840TIP3    H257012   5.277   1.170   3.474 -0.6346 -2.8011  2.6175
11841TIP3   OH257013   6.297   2.866  12.891  0.5456  0.3129  0.2959
11841TIP3    H157014   6.362   2.923  12.850  0.7291  0.0711  0.2496
11841TIP3    H257015   6.297   2.891  12.983  0.0167  0.9703  0.1226
11842TIP3   OH257016   5.431   2.758  11.630 -0.4785  0.2898 -0.4188
11842TIP3    H157017   5.428   2.853  11.629  0.9701  0.3623  0.8038
11842TIP3    H257018   5.354   2.733  11.682 -0.9555  0.7680 -0.8813
11843TIP3   OH257019   2.316   3.799   5.747 -0.1844 -0.1370  0.0262
11843TIP3    H157020   2.358   3.884   5.757  0.0483  0.1635 -3.0480
11843TIP3    H257021   2.388   3.737   5.746 -0.1260 -0.0608 -0.7677
11844TIP3   OH257022   2.803   0.210   6.758  0.0267  0.5956  0.0500
11844TIP3    H157023   2.781   0.125   6.718  0.1316 -0.4386  2.1372
11844TIP3    H257024   2.750   0.273   6.709  0.3712 -0.5818 -1.9128
11845TIP3   OH257025   5.749   2.854  13.393  0.3687  0.5821 -0.0748
11845TIP3    H157026   5.661   2.817  13.397  0.3451  0.3706 -1.9296
11845TIP3    H257027   5.735   2.945  13.367  0.6463  0.8068  0.5598
11846TIP3   OH257028   3.306   6.036   0.283 -0.5766 -0.3276  0.2324
11846TIP3    H157029   3.246   6.025   0.209 -0.5052  0.0476  0.1186
11846TIP3    H257030   3.285   5.963   0.341 -2.4366  0.8422  1.0883
11847TIP3   OH257031   0.529   3.641  12.092  0.3877 -0.3494 -0.2893
11847TIP3    H157032   0.469   3.627  12.019 -0.2536  1.8603 -0.2273
11847TIP3    H257033   0.490   3.594  12.165  0.5647 -1.8256 -1.1360
11848TIP3   OH257034   5.354   3.721   2.756 -0.3244  0.2351  0.5696
11848TIP3    H157035   5.361   3.660   2.829 -2.2282 -1.0245 -0.2504
11848TIP3    H257036   5.299   3.792   2.789 -2.8215 -1.2841 -0.1919
11849TIP3   OH257037   0.452   4.711   3.000  0.1664  0.3430  0.2248
11849TIP3    H157038   0.395   4.725   2.925  1.5254  2.7021 -0.4295
11849TIP3    H257039   0.539   4.739   2.969  1.2414 -1.0284  1.8959
11850TIP3   OH257040   5.168   4.431  15.840  0.7857  0.3347  0.5026
11850TIP3    H157041   5.174   4.353  15.785 -0.3382  0.0810  0.7419
11850TIP3    H257042   5.112   4.405  15.914  0.3385  1.3834  0.5443
11851TIP3   OH257043   0.546   3.393  13.834 -0.5133 -0.3345  0.2721
11851TIP3    H157044   0.463   3.344  13.837 -1.4844  1.1408 -1.4653
11851TIP3    H257045   0.560   3.410  13.740  2.1921 -1.2592  0.4717
11852TIP3   OH257046   1.126   4.033   2.750  0.3144  0.1563  0.4234
11852TIP3    H157047   1.101   3.966   2.686 -0.8489  1.1712 -0.2267
11852TIP3    H257048   1.053   4.095   2.748  2.0339  2.2353 -0.1032
11853TIP3   OH257049   2.263   6.375   1.585 -0.2688 -0.5612  0.3633
11853TIP3    H157050   2.310   6.457   1.599  1.6514 -2.0016  2.7796
11853TIP3    H257051   2.210   6.364   1.663  1.9976 -3.1956  1.6145
11854TIP3   OH257052   0.205   4.105   2.011  0.2846  0.6976 -0.3651
11854TIP3    H157053   0.244   4.143   1.932  0.0340  0.0786 -0.7885
11854TIP3    H257054   0.114   4.089   1.987  0.9149 -2.2741 -0.9451
11855TIP3   OH257055   2.828   0.932   3.813  0.0412 -0.2636 -0.6671
11855TIP3    H157056   2.881   0.852   3.809  1.2383  0.4570  0.2874
11855TIP3    H257057   2.835   0.969   3.725  0.3659 -0.6608 -0.8149
11856TIP3   OH257058   1.884   6.491  12.720  0.7733  0.6189 -0.0041
11856TIP3    H157059   1.854   6.579  12.742 -1.5871 -0.2409  0.3087
11856TIP3    H257060   1.861   6.480  12.628 -0.7892 -0.3892  0.4893
11857TIP3   OH257061   0.665   4.364  11.213 -0.2600  0.2274  0.3762
11857TIP3    H157062   0.743   4.364  11.159 -0.4155  0.0348  0.1526
11857TIP3    H257063   0.697   4.348  11.302 -0.2270 -1.6778  0.0325
11858TIP3   OH257064   2.317   1.935  11.752  0.2406 -0.0633  0.5652
11858TIP3    H157065   2.265   1.877  11.697 -0.0307  1.1848 -0.5364
11858TIP3    H257066   2.278   2.022  11.739  1.3844  0.5639  1.2106
11859TIP3   OH257067   6.661   0.712  16.538  0.4966  0.2221  0.4717
11859TIP3    H157068   6.682   0.789  16.592 -1.1348  0.9101  0.1447
11859TIP3    H257069   6.618   0.748  16.461 -1.6734 -1.1235  1.0110
11860TIP3   OH257070   3.166   5.444  11.859 -0.2889 -0.3603  0.1707
11860TIP3    H157071   3.095   5.488  11.812  0.6464  0.5670 -0.3929
11860TIP3    H257072   3.127   5.362  11.890 -0.7659 -1.2855 -2.7505
11861TIP3   OH257073   4.290   6.488  16.131 -0.4485 -0.1018  0.0268
11861TIP3    H157074   4.343   6.532  16.064 -3.0089  0.6775 -1.5720
11861TIP3    H257075   4.300   6.543  16.209  1.3352 -0.1633 -0.1426
11862TIP3   OH257076   4.328   2.872  13.825 -0.9010  0.1109 -0.0599
11862TIP3    H157077   4.306   2.838  13.912 -2.6672 -1.3577 -1.0414
11862TIP3    H257078   4.266   2.944  13.811 -1.6061 -0.6131 -0.6941
11863TIP3   OH257079   0.103   6.023  15.387  0.6272  0.0263  0.0731
11863TIP3    H157080   0.186   6.066  15.410  0.2980  2.1154 -2.3105
11863TIP3    H257081   0.060   6.086  15.328 -1.3920 -2.2426 -0.9383
11864TIP3   OH257082   0.818   5.992  16.302 -0.4624 -0.0152  0.0476
11864TIP3    H157083   0.728   5.965  16.319  0.1289 -1.2373  1.2868
11864TIP3    H257084   0.811   6.053  16.228 -2.0560 -1.8396 -1.3573
11865TIP3   OH257085   4.819   1.812  17.042  0.0547  0.1729  0.1887
11865TIP3    H157086   4.853   1.899  17.024 -0.4384  0.1674 -0.7760
11865TIP3    H257087   4.897   1.758  17.057  0.3383  0.9087  1.4439
11866TIP3   OH257088   1.268   6.229   2.722 -0.0253  0.4121  0.2077
11866TIP3    H157089   1.202   6.267   2.664  0.4239 -1.0380 -1.2868
11866TIP3    H257090   1.337   6.296   2.727 -1.5511  1.9163  1.7464
11867TIP3   OH257091   3.277   5.505  11.174  0.0272 -0.0641  0.2795
11867TIP3    H157092   3.261   5.537  11.263  2.2408 -1.4210  1.2155
11867TIP3    H257093   3.217   5.555  11.119 -0.4721  1.7149  2.3731
11868TIP3   OH257094   2.254   0.927  14.234 -0.3634  0.5231  0.2966
11868TIP3    H157095   2.220   0.848  14.190 -0.0449  1.3674 -1.5363
11868TIP3    H257096   2.348   0.912  14.238 -0.2100  1.1404 -0.7790
11869TIP3   OH257097   1.287   1.556   2.256  0.5328  0.0591  0.0843
11869TIP3    H157098   1.199   1.588   2.279  0.7604  0.7174  0.0486
11869TIP3    H257099   1.317   1.510   2.334  0.0664 -0.3519  0.0206
11870TIP3   OH257100   0.173   5.064  14.719 -0.4522  0.0047 -0.7384
11870TIP3    H157101   0.147   4.975  14.743 -0.8402 -0.0774 -1.4631
11870TIP3    H257102   0.213   5.100  14.799 -0.3434 -0.7980 -0.4314
11871TIP3   OH257103   6.352   5.841   4.700 -0.1303  0.4683  0.1839
11871TIP3    H157104   6.359   5.751   4.731  3.0299  0.3874 -0.5757
11871TIP3    H257105   6.367   5.894   4.778 -0.1379  0.3191  0.2877
11872TIP3   OH257106   5.506   0.605  11.684 -0.0119 -0.0906 -0.0030
11872TIP3    H157107   5.563   0.553  11.629  0.4460 -2.0569  2.2412
11872TIP3    H257108   5.422   0.606  11.638  0.7175 -0.5646 -1.3599
11873TIP3   OH257109   1.178   4.228   4.336 -0.5417 -0.2527 -0.3092
11873TIP3    H157110   1.187   4.158   4.400 -2.4281 -1.3961 -1.2709
11873TIP3    H257111   1.212   4.191   4.254  1.6388  1.1221 -0.0809
11874TIP3   OH257112   1.546   4.860  11.806  0.0238 -0.1041  0.1001
11874TIP3    H157113   1.501   4.813  11.736  1.5668 -0.2520 -0.8302
11874TIP3    H257114   1.555   4.796  11.876  1.0718 -0.8654 -0.7070
11875TIP3   OH257115   4.320   3.302   5.011  0.2444  0.2526  0.5383
11875TIP3    H157116   4.381   3.312   5.084  0.5201  0.9522  0.2207
11875TIP3    H257117   4.343   3.373   4.951  0.4345 -0.6822 -0.5175
11876TIP3   OH257118   2.029   0.382  14.436  0.0426  0.6338 -0.0826
11876TIP3    H157119   2.020   0.307  14.496 -2.7165 -0.6706 -2.0144
11876TIP3    H257120   2.111   0.365  14.390  0.5646 -0.0333  1.0495
11877TIP3   OH257121   3.251   4.755   0.961 -0.7245  0.2232 -0.0970
11877TIP3    H157122   3.162   4.752   0.996 -1.1363  1.8776 -0.9287
11877TIP3    H257123   3.306   4.773   1.037 -1.0633 -1.0924  0.4667
11878TIP3   OH257124   2.251   6.048  14.749 -0.7654 -0.1211  0.0697
11878TIP3    H157125   2.253   5.978  14.814  2.2285  0.2836  0.4864
11878TIP3    H257126   2.167   6.037  14.704 -1.1260 -2.8409  1.3352
11879TIP3   OH257127   6.493   3.727   6.106  0.4914  0.4486  0.0016
11879TIP3    H157128   6.459   3.706   6.019  0.4456 -0.6872  0.2928
11879TIP3    H257129   6.483   3.646   6.156 -0.0557  1.2850  1.2509
11880TIP3   OH257130   2.785   1.389   4.245 -0.4056  0.1852  0.3670
11880TIP3    H157131   2.749   1.476   4.260 -1.5103  0.3181 -2.8052
11880TIP3    H257132   2.713   1.329   4.265  0.3287 -0.0419  2.4659
11881TIP3   OH257133   4.692   0.609   3.213 -0.2552 -0.2677 -0.2577
11881TIP3    H157134   4.630   0.631   3.283 -0.6460  0.4783 -0.8330
11881TIP3    H257135   4.655   0.530   3.172  0.6619 -1.4913  1.2058
11882TIP3   OH257136   2.108   5.075   1.025 -0.3407  0.1495  0.9478
11882TIP3    H157137   2.038   5.025   0.983 -0.0043 -0.0402  0.6146
11882TIP3    H257138   2.145   5.015   1.090 -0.3543  0.1779  0.9816
11883TIP3   OH257139   1.071   5.023  14.498  0.4037 -0.6860  0.2563
11883TIP3    H157140   1.141   5.029  14.563 -0.5319  1.4225  1.1388
11883TIP3    H257141   0.991   5.023  14.550 -0.3120 -0.5582 -0.8366
11884TIP3   OH257142   6.431   3.077   1.274 -0.1183  0.4666 -0.2432
11884TIP3    H157143   6.517   3.046   1.247 -0.3235 -0.2027 -0.1241
11884TIP3    H257144   6.425   3.053   1.367 -0.4818  0.4116 -0.2821
11885TIP3   OH257145   0.086   3.313  16.773  0.2498  0.0031  0.2772
11885TIP3    H157146   0.138   3.301  16.694  1.2546 -0.3320  0.9763
11885TIP3    H257147   0.094   3.230  16.820 -2.5745 -0.7884 -0.5455
11886TIP3   OH257148   1.780   2.804  10.971  0.0525  0.0105 -0.3688
11886TIP3    H157149   1.727   2.826  10.895 -1.6203  0.4903  0.8958
11886TIP3    H257150   1.723   2.750  11.026  0.7281  0.8575  1.2169
11887TIP3   OH257151   5.049   5.159  12.976  0.0776 -0.7256  0.2794
11887TIP3    H157152   5.058   5.142  12.882 -0.6505 -0.7223  0.2062
11887TIP3    H257153   5.124   5.114  13.015  0.5629 -0.4614 -0.3292
11888TIP3   OH257154   4.748   2.313  17.162  0.0540 -0.0260  0.2125
11888TIP3    H157155   4.675   2.308  17.223  0.4770  0.6558  0.7905
11888TIP3    H257156   4.716   2.365  17.089 -0.3003 -0.4320  0.0795
11889TIP3   OH257157   4.684   5.576   5.077 -0.5979 -0.2924 -0.4380
11889TIP3    H157158   4.624   5.538   5.142 -1.7362  1.0117 -0.7128
11889TIP3    H257159   4.720   5.653   5.119 -0.1582 -0.3080 -0.7859
11890TIP3   OH257160   3.585   6.813   0.577  0.1470 -0.5506 -0.1249
11890TIP3    H157161   3.646   6.784   0.510 -0.3190  1.3425 -1.4148
11890TIP3    H257162   3.625   6.893   0.612 -0.7402 -0.2541  0.2251
11891TIP3   OH257163   1.006   0.544   2.748  0.6719 -0.5319  0.5137
11891TIP3    H157164   1.022   0.470   2.689 -0.3225 -1.3596  1.2578
11891TIP3    H257165   0.992   0.504   2.834 -1.8545  0.3494  0.5736
11892TIP3   OH257166   1.657   2.190   3.374  0.3274  0.7931 -0.4318
11892TIP3    H157167   1.597   2.179   3.300 -0.4015 -2.3214  0.5499
11892TIP3    H257168   1.742   2.164   3.339 -0.1249 -1.2861 -0.0684
11893TIP3   OH257169   1.106   2.873  15.080 -0.1273 -0.2373 -0.0807
11893TIP3    H157170   1.112   2.826  14.997  1.8481 -0.9953  0.4750
11893TIP3    H257171   1.061   2.955  15.058  0.0655 -0.5851 -1.8169
11894TIP3   OH257172   3.491   2.397   5.457 -0.1226  0.4451 -0.1425
11894TIP3    H157173   3.520   2.331   5.394  0.1314 -1.3327  1.7763
11894TIP3    H257174   3.397   2.406   5.441  0.0654  0.5344 -1.2335
11895TIP3   OH257175   6.496   2.408  15.781 -0.2931  0.1557 -0.4323
11895TIP3    H157176   6.502   2.340  15.848  2.6600 -0.7395 -1.5385
11895TIP3    H257177   6.572   2.464  15.797  0.7541 -0.3861 -3.3162
11896TIP3   OH257178   6.679   1.617  11.333  0.2304  0.3082 -0.2632
11896TIP3    H157179   6.732   1.651  11.261 -1.3572  0.1994 -1.5369
11896TIP3    H257180   6.589   1.639  11.308 -0.4577 -0.9807  1.0016
11897TIP3   OH257181   0.359   4.745   6.009  0.0623 -0.2414  0.4200
11897TIP3    H157182   0.362   4.832   6.047  0.7109 -0.3218  0.5480
11897TIP3    H257183   0.340   4.687   6.083  0.4909 -0.3026  0.4844
11898TIP3   OH257184   2.956   1.186  11.706 -0.0052  0.0354  0.1855
11898TIP3    H157185   2.962   1.097  11.741  0.7463 -0.0652 -0.2078
11898TIP3    H257186   3.020   1.236  11.756  0.0391  0.2081 -0.0418
11899TIP3   OH257187   2.743   5.353   4.343 -0.0635  0.4547  0.0044
11899TIP3    H157188   2.764   5.357   4.436 -0.7247  0.1455  0.1709
11899TIP3    H257189   2.688   5.430   4.327 -1.8172 -0.6940  0.3625
11900TIP3   OH257190   5.673   0.923  11.347  0.2804 -0.0868  0.0725
11900TIP3    H157191   5.657   0.923  11.441 -1.7358  1.5274 -0.2440
11900TIP3    H257192   5.656   1.013  11.319 -0.9510 -0.9509 -2.1283
11901TIP3   OH257193   1.420   2.649   4.326  0.9168  0.5135  0.1964
11901TIP3    H157194   1.506   2.630   4.363  0.0398  0.2510  2.1252
11901TIP3    H257195   1.358   2.618   4.391 -0.6856 -0.4997 -1.7487
11902TIP3   OH257196   4.973   4.352   4.541  0.5224  0.5306  0.3756
11902TIP3    H157197   4.905   4.301   4.498 -0.5525  0.4891  2.0755
11902TIP3    H257198   5.040   4.365   4.474 -0.5448 -0.5795 -0.9212
11903TIP3   OH257199   5.969   6.519   2.276 -0.2704  0.2414 -0.0153
11903TIP3    H157200   5.989   6.437   2.320  0.2068 -0.3059 -1.2365
11903TIP3    H257201   6.050   6.542   2.229 -0.8527  0.6609 -0.8291
11904TIP3   OH257202   1.264   1.475  14.937 -0.1496  0.0933  0.2231
11904TIP3    H157203   1.355   1.502  14.954 -0.8161  3.1579 -0.7452
11904TIP3    H257204   1.262   1.460  14.842 -1.0200  1.6084 -0.0079
11905TIP3   OH257205   0.353   6.346   0.552  0.1228 -0.3230 -0.3591
11905TIP3    H157206   0.311   6.278   0.499  0.0735 -2.8853  2.8354
11905TIP3    H257207   0.284   6.379   0.608  0.3574  1.8298 -1.2828
11906TIP3   OH257208   5.466   6.629   5.573 -0.0771  0.2390 -0.2132
11906TIP3    H157209   5.561   6.617   5.570 -0.1862 -0.7173 -0.0816
11906TIP3    H257210   5.450   6.685   5.649  0.4678  1.2944 -0.8708
11907TIP3   OH257211   5.685   1.440  13.506  0.0776  0.1384 -0.4449
11907TIP3    H157212   5.720   1.363  13.551 -1.5497 -1.2969 -1.5466
11907TIP3    H257213   5.760   1.499  13.496  1.7434 -2.0255 -1.0764
11908TIP3   OH257214   3.674   2.092  16.961 -0.4234  0.0010  0.1288
11908TIP3    H157215   3.756   2.058  16.996 -0.4350 -1.1127 -0.9149
11908TIP3    H257216   3.607   2.033  16.995 -0.8005  0.8049  0.8349
11909TIP3   OH257217   5.101   0.221   0.433  0.8117 -0.5766 -0.3824
11909TIP3    H157218   5.183   0.235   0.479  0.6671 -0.4711 -0.1533
11909TIP3    H257219   5.126   0.205   0.342  0.9313  1.9669 -0.8336
11910TIP3   OH257220   4.524   5.750  13.912  0.3801  0.1272  0.1297
11910TIP3    H157221   4.532   5.732  13.818  0.9433 -1.4026  0.4552
11910TIP3    H257222   4.464   5.684  13.944 -1.3815  1.8678  0.5293
11911TIP3   OH257223   1.145   5.955   5.430  0.1707  0.4410 -0.1102
11911TIP3    H157224   1.205   5.907   5.487  0.3892  0.1084 -0.6112
11911TIP3    H257225   1.198   6.027   5.395 -0.5001  1.7963  1.6044
11912TIP3   OH257226   0.980   1.186   1.155  0.1760 -0.1541 -0.1835
11912TIP3    H157227   0.993   1.093   1.172  0.2533 -0.0100  0.5899
11912TIP3    H257228   1.033   1.205   1.078  0.8588 -0.5636  0.1836
11913TIP3   OH257229   3.608   4.671   2.485  1.0525 -0.0518 -0.0135
11913TIP3    H157230   3.677   4.647   2.547  0.3932 -1.1450  0.3002
11913TIP3    H257231   3.552   4.731   2.533  1.5559  0.5158 -0.1347
11914TIP3   OH257232   4.205   3.650   3.206  0.9114 -0.1295  0.3205
11914TIP3    H157233   4.207   3.625   3.298 -0.0938  1.9923  0.9297
11914TIP3    H257234   4.254   3.580   3.162  2.2168 -0.6750  2.5589
11915TIP3   OH257235   1.969   5.802   5.270  0.4913 -0.1807  0.1228
11915TIP3    H157236   1.983   5.744   5.194 -2.0957  0.3555 -0.7953
11915TIP3    H257237   2.017   5.882   5.247  2.5693 -1.2352  0.6003
11916TIP3   OH257238   4.784   1.725  14.182  0.5116 -0.5627 -0.0953
11916TIP3    H157239   4.796   1.644  14.232  1.2410 -0.4729 -0.1080
11916TIP3    H257240   4.717   1.704  14.118 -1.2950 -0.3193  1.6784
11917TIP3   OH257241   1.462   4.964  13.627 -0.3227 -0.4282  0.0310
11917TIP3    H157242   1.390   5.013  13.586  0.2613  1.7696  1.4985
11917TIP3    H257243   1.541   5.013  13.604  0.4830 -1.6874  0.0856
11918TIP3   OH257244   0.998   1.048  12.425 -0.5412 -0.0801 -0.0528
11918TIP3    H157245   0.923   1.025  12.370 -1.7302 -0.2583  1.6176
11918TIP3    H257246   0.985   1.000  12.506  0.7891  0.7855  0.7031
11919TIP3   OH257247   6.545   3.307   2.130 -0.5501 -0.5873 -0.1829
11919TIP3    H157248   6.596   3.379   2.166 -3.0134  0.4499  1.3911
11919TIP3    H257249   6.595   3.228   2.149  1.3420  0.5563 -0.3730
11920TIP3   OH257250   1.475   2.373   2.556 -0.2426  0.3421  0.6911
11920TIP3    H157251   1.439   2.434   2.492 -0.3104 -0.5866 -0.1586
11920TIP3    H257252   1.519   2.429   2.620  0.0329  1.2622 -0.2893
11921TIP3   OH257253   3.830   3.199   5.319  0.3181 -1.0699 -0.4341
11921TIP3    H157254   3.749   3.151   5.299 -0.4474  0.1815 -0.4052
11921TIP3    H257255   3.886   3.186   5.243 -0.8520  0.0150 -1.5108
11922TIP3   OH257256   1.057   6.145  15.323 -0.0933  0.2548  0.0845
11922TIP3    H157257   0.972   6.188  15.316 -0.8144 -0.5916  3.0840
11922TIP3    H257258   1.113   6.209  15.366  0.3194  0.1739 -0.3328
11923TIP3   OH257259   1.973   6.180  15.284 -0.1039 -0.3650 -0.1386
11923TIP3    H157260   1.948   6.194  15.376 -1.6389  3.7446 -1.0974
11923TIP3    H257261   2.062   6.144  15.289 -0.3804 -0.7563  2.9487
11924TIP3   OH257262   0.050   0.740   5.054 -0.4467  0.3159 -0.5658
11924TIP3    H157263  -0.022   0.710   5.000 -0.5676 -0.0772 -0.1929
11924TIP3    H257264   0.126   0.742   4.995 -0.7947  0.8868 -0.9929
11925TIP3   OH257265   2.677   1.580  12.882 -0.2117 -0.0475  0.4623
11925TIP3    H157266   2.649   1.537  12.801 -0.4796 -3.1676  2.1330
11925TIP3    H257267   2.595   1.601  12.928 -0.0481  1.2261  0.1936
11926TIP3   OH257268   3.599   5.290   0.540  0.2697 -0.3118 -0.4548
11926TIP3    H157269   3.623   5.346   0.614  1.3866  0.7886 -1.6191
11926TIP3    H257270   3.597   5.201   0.576  0.2257  0.2744  1.0214
11927TIP3   OH257271   2.030   2.506  14.552  0.5216 -0.3848 -0.9212
11927TIP3    H157272   1.951   2.514  14.499  2.1463 -1.1063 -3.5159
11927TIP3    H257273   2.022   2.420  14.594 -1.1224  0.5025  0.6391
11928TIP3   OH257274   1.195   3.918   5.367 -0.3131  0.1728  0.0186
11928TIP3    H157275   1.172   3.838   5.320 -0.9600 -0.3048  1.1394
11928TIP3    H257276   1.249   3.967   5.305 -1.4600 -0.2738 -1.3647
11929TIP3   OH257277   2.332   6.493  14.697 -0.3669  0.2757 -0.0979
11929TIP3    H157278   2.320   6.560  14.765 -0.3570 -0.6249  0.8043
11929TIP3    H257279   2.376   6.539  14.626  2.1446  0.6150  1.6132
11930TIP3   OH257280   5.999   3.188  16.878  0.4450 -0.3214  0.0108
11930TIP3    H157281   5.908   3.166  16.855  0.0702  0.6229  0.5719
11930TIP3    H257282   6.041   3.206  16.794 -0.8876  3.0092 -0.0035
11931TIP3   OH257283   0.041   2.441  10.800  0.7491 -0.4416 -0.6976
11931TIP3    H157284  -0.016   2.367  10.784  0.9268 -0.6782 -0.2470
11931TIP3    H257285   0.121   2.422  10.751  0.1055  0.3119 -2.0537
11932TIP3   OH257286   3.169   0.080  12.043  0.0663  0.1102 -0.4469
11932TIP3    H157287   3.168   0.072  12.139  1.0348 -0.0365 -0.4444
11932TIP3    H257288   3.161  -0.010  12.012  1.1750  0.0215 -0.4894
11933TIP3   OH257289   1.372   0.013  14.896  0.2071 -0.4404  0.8559
11933TIP3    H157290   1.299  -0.022  14.845 -1.0510  2.7996  0.2905
11933TIP3    H257291   1.409   0.082  14.841  1.3350  0.4564  2.6783
11934TIP3   OH257292   1.926   5.918  12.282 -0.0325  0.7979  0.2502
11934TIP3    H157293   1.974   5.892  12.361  0.2901 -0.4348 -0.3394
11934TIP3    H257294   1.963   6.003  12.259  1.0598  0.3925  0.4694
11935TIP3   OH257295   4.870   0.971  15.676  0.4429  0.1779 -0.9775
11935TIP3    H157296   4.894   1.044  15.732 -0.0726 -0.2013 -0.2449
11935TIP3    H257297   4.824   0.910  15.734  3.2686 -2.0330 -0.9341
11936TIP3   OH257298   5.337   6.254  14.403  0.3115  0.2580  0.0566
11936TIP3    H157299   5.346   6.286  14.493 -0.2089 -1.2554  0.6704
11936TIP3    H257300   5.426   6.238  14.374  0.3871 -1.8384  1.2992
11937TIP3   OH257301   4.351   4.769   0.313  0.5272 -0.3211  0.0515
11937TIP3    H157302   4.309   4.703   0.257  1.2394 -0.4529 -0.3301
11937TIP3    H257303   4.441   4.774   0.281  0.9956 -0.5348  1.3217
11938TIP3   OH257304   3.847   4.298  15.367 -0.3275 -0.7090  0.2994
11938TIP3    H157305   3.885   4.313  15.454 -0.0339  2.3941 -0.3273
11938TIP3    H257306   3.752   4.295  15.383 -0.2710 -0.2714  0.7383
11939TIP3   OH257307   2.152   6.639  16.622  0.1485  0.3179  0.2627
11939TIP3    H157308   2.091   6.652  16.550  0.6668  1.3096  0.0033
11939TIP3    H257309   2.132   6.709  16.684 -0.0659 -0.3253  0.9348
11940TIP3   OH257310   5.183   0.919  15.409 -0.5602  0.2594 -0.0565
11940TIP3    H157311   5.157   0.859  15.479  0.3936  0.1480  0.2112
11940TIP3    H257312   5.237   0.985  15.452  1.0213 -0.4739 -0.8674
11941TIP3   OH257313   4.467   1.675   1.195  0.3467 -0.2059 -0.6418
11941TIP3    H157314   4.375   1.670   1.218  0.6771  1.3952  1.1652
11941TIP3    H257315   4.499   1.585   1.205 -0.9633 -0.7401 -1.1287
11942TIP3   OH257316   3.183   0.095  13.985  0.8827  0.3035  0.0083
11942TIP3    H157317   3.139   0.076  14.068  0.2551 -1.1451 -0.6265
11942TIP3    H257318   3.269   0.055  13.995  0.7025 -0.1305 -0.1313
11943TIP3   OH257319   3.587   0.195   5.955  0.2123 -0.4036 -0.0455
11943TIP3    H157320   3.659   0.150   5.910  0.5381  0.9591 -0.9239
11943TIP3    H257321   3.626   0.224   6.038  0.4690 -0.3129 -0.1958
11944TIP3   OH257322   0.496   0.978   3.157  0.2107  0.2141 -0.6330
11944TIP3    H157323   0.403   0.966   3.176  0.0671  0.8762 -0.8842
11944TIP3    H257324   0.520   1.058   3.203  0.2917  0.8439 -1.7315
11945TIP3   OH257325   6.603   5.044   4.270  0.0198 -0.0573 -0.8604
11945TIP3    H157326   6.663   5.056   4.343 -0.8314 -0.3877 -0.0897
11945TIP3    H257327   6.600   4.950   4.256  1.3324  0.1039 -2.3174
11946TIP3   OH257328   2.195   0.590  15.345  0.1279 -0.3218  0.1113
11946TIP3    H157329   2.277   0.572  15.299 -0.3983  0.1672 -1.0437
11946TIP3    H257330   2.221   0.607  15.436  0.9602 -3.6285  0.5490
11947TIP3   OH257331   0.796   3.106   4.694  0.2983 -0.7596  0.4673
11947TIP3    H157332   0.755   3.024   4.666  0.3724 -1.1795  1.5726
11947TIP3    H257333   0.890   3.087   4.693  0.3027 -0.7605  0.9643
11948TIP3   OH257334   0.396   1.339   2.298  0.0967 -0.5179 -0.4679
11948TIP3    H157335   0.319   1.394   2.312  0.4629  0.3347 -1.7426
11948TIP3    H257336   0.391   1.273   2.367  1.0892  2.6799  2.7644
11949TIP3   OH257337   3.862   4.634   0.418  0.0431  0.3785  0.0320
11949TIP3    H157338   3.858   4.725   0.388 -1.8609  0.3417  0.1202
11949TIP3    H257339   3.787   4.592   0.377  2.3099 -1.8242 -2.0534
11950TIP3   OH257340   3.062   6.473  12.816  1.1259  0.7183 -0.3076
11950TIP3    H157341   3.084   6.564  12.795  2.1566  0.1447 -1.7642
11950TIP3    H257342   3.034   6.435  12.733 -0.3664 -0.0084  0.5177
11951TIP3   OH257343   2.009   1.626   2.413 -0.3783 -0.1616  0.0668
11951TIP3    H157344   2.069   1.667   2.475 -1.4605 -0.3191  1.2386
11951TIP3    H257345   2.016   1.532   2.432 -0.1147 -0.2719 -0.5841
11952TIP3   OH257346   4.928   3.766  16.747  0.0339  0.1675 -0.4103
11952TIP3    H157347   4.976   3.848  16.743 -0.0909  0.3201  0.7901
11952TIP3    H257348   4.969   3.710  16.681  0.9831  0.7562 -0.3285
11953TIP3   OH257349   1.676   5.127   2.315  0.0234 -0.2982 -0.5722
11953TIP3    H157350   1.741   5.056   2.318  0.7405  0.3690 -0.0670
11953TIP3    H257351   1.684   5.162   2.226  0.3717 -0.2035 -0.5040
11954TIP3   OH257352   4.630   1.807   4.054  0.4621 -0.3211  0.6718
11954TIP3    H157353   4.647   1.887   4.005  1.6799 -1.3294 -0.5874
11954TIP3    H257354   4.550   1.825   4.103  1.9385  2.4584  2.1492
11955TIP3   OH257355   1.965   5.447  14.386  0.0803 -0.0700  0.0534
11955TIP3    H157356   1.985   5.356  14.409 -1.4065 -0.3249  0.3288
11955TIP3    H257357   2.048   5.481  14.351  1.3805 -0.7339  2.4171
11956TIP3   OH257358   6.115   0.857  16.236 -0.4285 -0.4349  0.0584
11956TIP3    H157359   6.037   0.805  16.217 -0.2828 -1.0403  1.1031
11956TIP3    H257360   6.083   0.947  16.242 -1.3750 -0.9130  2.4271
11957TIP3   OH257361   3.211   1.522  13.929  0.3472  0.2148 -0.2069
11957TIP3    H157362   3.212   1.607  13.885 -1.9074  0.7617  0.7191
11957TIP3    H257363   3.175   1.540  14.015 -0.1686 -1.6904  0.0040
11958TIP3   OH257364   1.482   3.290   3.145 -0.2083  0.4543 -0.4586
11958TIP3    H157365   1.397   3.284   3.188  0.3006 -1.5287  0.3565
11958TIP3    H257366   1.544   3.297   3.218  0.5060 -0.7924 -0.9340
11959TIP3   OH257367   4.721   6.336  15.000 -0.1152 -0.0145 -0.3093
11959TIP3    H157368   4.759   6.421  14.979  0.3637 -0.0239  0.4934
11959TIP3    H257369   4.645   6.329  14.943  0.2626  0.6346 -0.9004
11960TIP3   OH257370   0.436   5.942  11.329 -0.1138 -0.2505 -0.3427
11960TIP3    H157371   0.458   6.034  11.310  1.6406 -0.4518  0.5851
11960TIP3    H257372   0.374   5.947  11.402 -1.2503  0.2434 -1.3242
11961TIP3   OH257373   4.861   0.728  15.520 -0.3738 -0.8092  0.4963
11961TIP3    H157374   4.883   0.667  15.591  3.1771  1.0425  1.1056
11961TIP3    H257375   4.870   0.815  15.559  0.7315  0.2261 -1.9601
11962TIP3   OH257376   4.891   2.946   0.281  0.3303  0.3041  0.0722
11962TIP3    H157377   4.892   3.041   0.280 -0.2810  0.3113 -0.2554
11962TIP3    H257378   4.974   2.920   0.241  0.3825  0.6936 -0.0710
11963TIP3   OH257379   1.746   0.320   1.059 -0.1631 -0.1150  0.2273
11963TIP3    H157380   1.726   0.410   1.034 -0.5443  0.1138  1.3291
11963TIP3    H257381   1.671   0.270   1.028  1.5083 -0.6188 -3.3762
11964TIP3   OH257382   3.578   2.345  13.409 -0.1612 -0.7679 -0.2744
11964TIP3    H157383   3.501   2.358  13.463 -0.5588 -2.7421 -0.3416
11964TIP3    H257384   3.633   2.421  13.427 -1.6517  0.1306  0.5584
11965TIP3   OH257385   4.509   2.811   0.796  0.2793 -0.6795 -0.3477
11965TIP3    H157386   4.459   2.888   0.769 -0.6065 -1.4766 -1.0141
11965TIP3    H257387   4.576   2.845   0.855 -0.5607  0.5068 -0.0667
11966TIP3   OH257388   4.481   5.658  10.954 -0.0430 -0.0649  0.2036
11966TIP3    H157389   4.400   5.644  11.003 -1.7179 -0.9153 -2.6313
11966TIP3    H257390   4.498   5.574  10.911  1.1893  0.6981 -0.8470
11967TIP3   OH257391   3.044   5.907   1.734  0.0293  0.3718 -0.1044
11967TIP3    H157392   2.955   5.915   1.770 -0.4369 -1.0658 -0.8704
11967TIP3    H257393   3.081   5.831   1.779  0.3270  0.0702 -0.8401
11968TIP3   OH257394   3.864   0.500  13.943  0.4676  0.4761 -0.6023
11968TIP3    H157395   3.830   0.460  13.862 -0.6479  1.6353 -0.7206
11968TIP3    H257396   3.957   0.477  13.944  0.3021 -0.2942 -1.7655
11969TIP3   OH257397   2.558   1.627  15.553 -0.5418  0.0914 -0.3161
11969TIP3    H157398   2.465   1.649  15.555 -0.1024  2.1085 -1.3352
11969TIP3    H257399   2.599   1.696  15.501  1.6551 -0.3095  0.7959
11970TIP3   OH257400   6.817   5.423  11.902 -0.6151 -0.0865 -0.2340
11970TIP3    H157401   6.863   5.403  11.821  0.2902  0.4591  0.1356
11970TIP3    H257402   6.804   5.518  11.900  1.5430  0.3041  1.3288
11971TIP3   OH257403   5.801   2.513   4.429  0.3276  0.2211  0.0928
11971TIP3    H157404   5.707   2.498   4.422  0.2526  0.7518 -0.0621
11971TIP3    H257405   5.817   2.589   4.374  0.9966 -0.4170 -0.6017
11972TIP3   OH257406   6.814   6.272   3.449 -0.3505 -0.0937  0.0595
11972TIP3    H157407   6.825   6.185   3.487  0.9024  0.2343  0.4705
11972TIP3    H257408   6.830   6.259   3.356 -0.1089 -0.2901  0.1270
11973TIP3   OH257409   0.797   2.188   5.517 -0.4560 -0.0817  0.2210
11973TIP3    H157410   0.751   2.188   5.601 -1.6038 -1.5234 -0.4040
11973TIP3    H257411   0.728   2.184   5.451  0.4215  1.5675 -0.8339
11974TIP3   OH257412   0.600   5.355  17.184  0.5809  0.2985  0.0569
11974TIP3    H157413   0.573   5.432  17.235 -0.1429 -0.4112  0.7756
11974TIP3    H257414   0.528   5.341  17.123 -0.5399 -1.3540  1.6979
11975TIP3   OH257415   3.952   2.610  12.862  0.4468  0.4142  0.5616
11975TIP3    H157416   3.870   2.586  12.819  0.8961 -1.6071  0.7742
11975TIP3    H257417   4.020   2.569  12.809  1.1255 -0.4597  2.0607
11976TIP3   OH257418   5.631   6.411   5.036  0.3070  0.5457 -0.1085
11976TIP3    H157419   5.712   6.365   5.058  0.8155  0.6125 -1.7522
11976TIP3    H257420   5.594   6.437   5.121  1.3337 -0.6211  0.7089
11977TIP3   OH257421   3.744   5.400   5.305  0.7510 -0.2350  0.0251
11977TIP3    H157422   3.757   5.334   5.237 -0.2033  1.4669 -1.8707
11977TIP3    H257423   3.671   5.454   5.273  0.1201  0.4553  2.5222
11978TIP3   OH257424   6.295   0.412  15.144 -0.6694 -0.1210 -0.0126
11978TIP3    H157425   6.231   0.341  15.134 -0.3279 -1.1743  4.4878
11978TIP3    H257426   6.241   0.490  15.157 -1.0131 -0.2244 -0.7299
11979TIP3   OH257427   5.307   5.216  14.943  0.4333  0.0839  0.0674
11979TIP3    H157428   5.353   5.211  14.860  1.8552  1.5553  0.7360
11979TIP3    H257429   5.219   5.248  14.921 -0.0678 -2.0046 -1.1232
11980TIP3   OH257430   4.397   6.160  16.815 -0.4425 -0.8612  0.3676
11980TIP3    H157431   4.379   6.093  16.749 -0.6183  0.4559 -0.9653
11980TIP3    H257432   4.379   6.117  16.898 -2.4016 -1.8928 -0.5495
11981TIP3   OH257433   2.667   2.988  14.271  0.2682  0.7713  0.3877
11981TIP3    H157434   2.751   2.981  14.317 -0.5351 -1.2400  1.5848
11981TIP3    H257435   2.609   3.032  14.332  0.0059  0.7363  0.1670
11982TIP3   OH257436   3.442   6.607   1.176  0.9553 -0.0857  0.4185
11982TIP3    H157437   3.435   6.622   1.270  0.6630 -2.1504  0.7436
11982TIP3    H257438   3.480   6.688   1.142  0.9525  0.7271  2.2904
11983TIP3   OH257439   3.682   3.448   0.931  0.6049  0.2002  0.2182
11983TIP3    H157440   3.643   3.453   0.844 -0.2614  2.0587  0.6833
11983TIP3    H257441   3.754   3.385   0.922 -1.4597 -2.0498 -1.0489
11984TIP3   OH257442   5.503   1.642   3.017  0.1360  0.4570 -0.1007
11984TIP3    H157443   5.557   1.640   2.938  0.3966  2.0905  0.0273
11984TIP3    H257444   5.558   1.603   3.085  0.8406  1.2933 -0.1773
11985TIP3   OH257445   6.253   1.995  13.597  0.0794  0.0839 -0.4794
11985TIP3    H157446   6.191   1.966  13.529 -2.6539 -0.1502  2.0460
11985TIP3    H257447   6.263   1.918  13.653  0.8723  0.8551  0.4262
11986TIP3   OH257448   0.667   1.240   4.498  0.1277  0.4523  0.5226
11986TIP3    H157449   0.575   1.238   4.469  0.6360 -0.6943 -1.0472
11986TIP3    H257450   0.675   1.165   4.557 -0.1213  0.9904  1.2514
11987TIP3   OH257451   0.762   1.049   4.712  0.5667 -0.1742 -0.1004
11987TIP3    H157452   0.752   1.100   4.792  0.2544 -0.9455  0.3540
11987TIP3    H257453   0.856   1.033   4.704  0.9080  2.0989 -1.2731
11988TIP3   OH257454   5.593   6.589   1.208  0.9948 -0.3179 -0.2183
11988TIP3    H157455   5.684   6.610   1.228  1.2092  2.0934 -3.4069
11988TIP3    H257456   5.598   6.524   1.139  0.3257  1.0689 -1.5937
11989TIP3   OH257457   3.122   4.840  15.090 -0.6316  0.6226  0.6413
11989TIP3    H157458   3.168   4.758  15.110 -1.7385  0.4800  2.7390
11989TIP3    H257459   3.189   4.897  15.053  0.0461 -1.3933 -1.4041
11990TIP3   OH257460   4.734   4.855  15.701 -0.3443 -0.3169 -0.3266
11990TIP3    H157461   4.768   4.780  15.751  0.0610 -0.1273 -0.3084
11990TIP3    H257462   4.806   4.877  15.642 -0.6373 -0.2269 -0.6441
11991TIP3   OH257463   0.119   3.552  17.097 -0.1012 -0.1489  0.0561
11991TIP3    H157464   0.043   3.526  17.150 -0.1275  2.8802  1.6229
11991TIP3    H257465   0.082   3.585  17.016 -0.5374  1.5587  0.9162
11992TIP3   OH257466   0.086   6.468   5.583 -0.1485  0.3838  0.0075
11992TIP3    H157467   0.085   6.455   5.678 -0.2888  0.2463 -0.0129
11992TIP3    H257468   0.168   6.430   5.554  0.5035  1.5714  0.2360
11993TIP3   OH257469   4.780   6.245  16.461 -0.0064 -0.0103 -0.3270
11993TIP3    H157470   4.711   6.300  16.499 -1.7085 -0.3324 -2.8312
11993TIP3    H257471   4.819   6.301  16.394  1.2653 -0.3131  0.1577
11994TIP3   OH257472   5.065   2.423  16.315 -0.4784 -0.2364 -0.7196
11994TIP3    H157473   5.037   2.334  16.293  1.9867 -1.6062  1.4285
11994TIP3    H257474   5.159   2.424  16.298 -0.4193  1.9130 -0.4746
11995TIP3   OH257475   1.539   2.995  11.956 -0.4779 -0.0085 -0.1854
11995TIP3    H157476   1.460   2.970  11.907 -0.0598 -0.7711 -0.4737
11995TIP3    H257477   1.505   3.045  12.030 -1.3641 -1.5943  0.5117
11996TIP3   OH257478   6.413   0.034  16.115 -0.6128 -0.2429  0.3887
11996TIP3    H157479   6.498   0.072  16.096 -0.9890  0.4112 -0.0009
11996TIP3    H257480   6.384  -0.003  16.031 -1.7388  1.5916 -0.0652
11997TIP3   OH257481   1.680   6.556   4.642  0.1229 -0.1368 -0.3183
11997TIP3    H157482   1.768   6.526   4.623  0.5903 -0.6828  2.5119
11997TIP3    H257483   1.692   6.630   4.702 -1.3703 -1.2483  1.3971
11998TIP3   OH257484   3.626   0.796  11.808 -0.0641  0.3454  0.2638
11998TIP3    H157485   3.612   0.874  11.754 -0.0315 -0.8383 -1.4929
11998TIP3    H257486   3.539   0.773  11.838 -0.0024  1.3906  1.2689
11999TIP3   OH257487   2.674   3.949  14.332  0.0382  0.5730 -0.0994
11999TIP3    H157488   2.709   3.897  14.405 -0.6741 -1.2983 -1.0584
11999TIP3    H257489   2.751   3.971  14.280  0.3101  0.1924  0.1367
12000TIP3   OH257490   5.460   2.185   4.217 -0.0755  0.1746 -0.2629
12000TIP3    H157491   5.538   2.169   4.163  0.2875  0.8081  0.0671
12000TIP3    H257492   5.492   2.236   4.291 -0.9615  1.1778 -0.5611
12001TIP3   OH257493   2.010   0.084  10.728 -0.1426  0.3088 -0.7994
12001TIP3    H157494   2.049   0.097  10.815 -0.8368  0.4725 -0.5145
12001TIP3    H257495   1.943   0.151  10.721 -2.7704 -2.1242  0.1108
12002TIP3   OH257496   2.763   2.801   3.602  0.1670  0.3853  0.0650
12002TIP3    H157497   2.695   2.739   3.573  2.6888 -2.2573 -0.4474
12002TIP3    H257498   2.775   2.860   3.528  0.4320 -0.9415 -0.9821
12003TIP3   OH257499   1.644   6.314   4.842 -0.2208 -0.0128  0.2907
12003TIP3    H157500   1.631   6.408   4.829  0.6655  0.1240  0.3093
12003TIP3    H257501   1.612   6.274   4.761 -0.0184  0.3657  0.0194
12004TIP3   OH257502   4.809   2.178   0.552  0.1802  0.2866 -1.0740
12004TIP3    H157503   4.719   2.154   0.572 -0.2221  1.4609 -1.4182
12004TIP3    H257504   4.823   2.261   0.598  0.8583  0.4641 -1.5815
12005TIP3   OH257505   1.820   1.128   3.379  0.2634  0.8518  0.1084
12005TIP3    H157506   1.889   1.099   3.320 -0.5668  0.3892 -0.6522
12005TIP3    H257507   1.856   1.114   3.467  0.8276 -0.1546 -0.2777
12006TIP3   OH257508   3.563   6.191  13.541  0.2031  0.0798  0.4602
12006TIP3    H157509   3.658   6.182  13.553 -0.0555 -0.8864  1.9255
12006TIP3    H257510   3.530   6.210  13.628 -0.8471  1.5799 -0.2476
12007TIP3   OH257511   4.404   6.614  14.836 -0.3367  0.0745  0.0120
12007TIP3    H157512   4.471   6.652  14.779  0.2948 -2.1084 -0.7738
12007TIP3    H257513   4.321   6.637  14.795 -0.1606  3.5094  1.4336
12008TIP3   OH257514   6.694   4.707   3.565  0.2112  0.4149  0.2153
12008TIP3    H157515   6.690   4.663   3.480  2.4298 -1.0280  0.8073
12008TIP3    H257516   6.625   4.665   3.617 -1.2512  1.4066 -0.8918
12009TIP3   OH257517   0.205   0.947   5.894 -0.2923 -0.7060 -0.2210
12009TIP3    H157518   0.183   0.926   5.985 -0.1079  0.1661  0.0239
12009TIP3    H257519   0.125   0.985   5.858  0.3570  1.1745  0.2690
12010TIP3   OH257520   2.993   2.302  11.612 -0.4634  0.2450  0.1505
12010TIP3    H157521   3.029   2.391  11.610 -0.9980  0.4535 -0.2929
12010TIP3    H257522   3.007   2.268  11.524 -0.2564 -0.1144  0.3209
12011TIP3   OH257523   0.697   3.853  14.271  0.4401  0.1234  0.1960
12011TIP3    H157524   0.643   3.893  14.339 -2.4769 -1.9733 -0.8209
12011TIP3    H257525   0.662   3.765  14.261  3.4521 -0.9758 -1.2044
12012TIP3   OH257526   1.284   4.558   4.019  0.0744  0.4966 -0.1360
12012TIP3    H157527   1.209   4.528   4.070  0.4322  0.5156  0.4047
12012TIP3    H257528   1.257   4.644   3.985 -0.4725  0.1188 -0.6554
12013TIP3   OH257529   3.272   0.376  16.587 -0.0664  0.6901 -0.1948
12013TIP3    H157530   3.313   0.414  16.509 -1.9669  0.8206 -1.1609
12013TIP3    H257531   3.273   0.447  16.651  2.4423  0.2635  0.2752
12014TIP3   OH257532   1.588   1.012  16.396  0.3221 -0.1292  0.3666
12014TIP3    H157533   1.677   0.995  16.367  0.5540  0.8498  0.5101
12014TIP3    H257534   1.597   1.057  16.480 -0.2802  0.8627 -0.0868
12015TIP3   OH257535   0.123   3.418  11.799 -0.3085  0.0130 -0.5477
12015TIP3    H157536   0.203   3.430  11.851 -0.0007 -2.0039 -0.5251
12015TIP3    H257537   0.077   3.346  11.841 -1.1473 -0.1812 -1.7585
12016TIP3   OH257538   0.441   6.372   0.911 -0.5358  0.1303  0.1856
12016TIP3    H157539   0.510   6.317   0.875  0.0073  0.7552  0.2650
12016TIP3    H257540   0.470   6.462   0.894 -1.0970  0.4017  0.6424
12017TIP3   OH257541   4.081   4.951  14.846 -0.0873 -0.0496 -0.8100
12017TIP3    H157542   4.175   4.940  14.832  0.0247 -0.8579  0.5085
12017TIP3    H257543   4.063   4.902  14.926 -1.1905  2.2155  0.3626
12018TIP3   OH257544   6.092   5.107   3.810 -0.2798 -0.0353  0.3059
12018TIP3    H157545   6.075   5.201   3.816 -1.3742 -0.1944 -0.2620
12018TIP3    H257546   6.153   5.089   3.883 -0.7006  0.9576  0.9122
12019TIP3   OH257547   3.282   1.724   0.262 -0.0966 -0.7922  0.3078
12019TIP3    H157548   3.376   1.713   0.249 -0.0151 -0.9179  0.9737
12019TIP3    H257549   3.250   1.635   0.276 -0.0405 -0.5769  1.8377
12020TIP3   OH257550   5.231   3.122   5.114  0.5871 -0.4877 -0.5602
12020TIP3    H157551   5.275   3.120   5.029 -0.8135  0.9593 -1.3566
12020TIP3    H257552   5.302   3.130   5.177  1.5908 -0.4184 -1.6742
12021TIP3   OH257553   3.745   3.167   0.748  0.4569  0.1197  0.1382
12021TIP3    H157554   3.816   3.218   0.787 -0.2451  0.2141  1.3056
12021TIP3    H257555   3.697   3.230   0.694  0.3088  0.4176  0.6167
12022TIP3   OH257556   5.375   3.008  14.092  0.4389 -0.2628  0.2235
12022TIP3    H157557   5.333   2.922  14.087 -1.3211  0.5961 -0.0848
12022TIP3    H257558   5.336   3.058  14.020  0.5051  1.1942  1.1871
12023TIP3   OH257559   2.986   3.605   1.277 -0.2115 -0.2453 -0.6730
12023TIP3    H157560   2.922   3.575   1.213  0.2037 -1.6088 -0.4634
12023TIP3    H257561   3.066   3.557   1.254  0.1639 -0.1136  0.3507
12024TIP3   OH257562   3.017   0.834   5.576 -0.4907  0.2231  0.3538
12024TIP3    H157563   3.062   0.853   5.658  0.9247  2.4877 -0.8749
12024TIP3    H257564   3.066   0.883   5.510 -2.3154 -0.5642 -1.6601
12025TIP3   OH257565   1.077   0.579  12.444  0.2410 -0.0976  0.4572
12025TIP3    H157566   1.095   0.533  12.527  0.0580  0.0956  0.6037
12025TIP3    H257567   1.083   0.672  12.466  0.9324 -0.0507  0.0852
12026TIP3   OH257568   2.107   2.724   3.295  0.3454  0.0060 -0.4068
12026TIP3    H157569   2.121   2.630   3.289  3.3935  0.5660 -3.9822
12026TIP3    H257570   2.157   2.751   3.372 -0.8617 -1.2931  0.8614
12027TIP3   OH257571   4.395   4.314   2.061  0.0048 -0.1765 -0.3639
12027TIP3    H157572   4.329   4.246   2.045  0.1166  0.1002 -2.0767
12027TIP3    H257573   4.425   4.339   1.973 -0.9234  2.9760  0.1688
12028TIP3   OH257574   5.911   0.197  12.310 -0.4163 -0.0767  0.0148
12028TIP3    H157575   5.920   0.102  12.303 -0.9251 -0.1699  0.5927
12028TIP3    H257576   5.856   0.221  12.236  0.4588 -0.1196 -0.6553
12029TIP3   OH257577   5.271   5.774  17.001  1.0322 -0.3747 -0.2325
12029TIP3    H157578   5.324   5.833  17.054 -0.2309  1.1125 -0.6013
12029TIP3    H257579   5.280   5.807  16.911 -0.8764  0.1739 -0.2328
12030TIP3   OH257580   3.529   4.750  16.377 -0.0635 -0.4683 -0.1762
12030TIP3    H157581   3.480   4.822  16.416  2.5218  0.8372  0.8306
12030TIP3    H257582   3.514   4.758  16.283  1.0977  2.1422 -0.1774
12031TIP3   OH257583   2.490   5.923   2.122  0.5942  0.2751 -0.0673
12031TIP3    H157584   2.443   5.986   2.176 -0.5768 -1.1399  0.5826
12031TIP3    H257585   2.583   5.944   2.135  0.2311  1.5805  0.4570
12032TIP3   OH257586   6.305   0.407  16.873  1.1523  0.0367  0.7609
12032TIP3    H157587   6.291   0.468  16.946 -3.0228  1.9307 -1.4228
12032TIP3    H257588   6.352   0.459  16.808 -0.1829  0.1992 -0.1023
12033TIP3   OH257589   1.207   1.554   2.739  0.2083 -0.0384  0.0806
12033TIP3    H157590   1.241   1.468   2.764  1.5530  0.9293  1.7016
12033TIP3    H257591   1.193   1.599   2.822  1.9296  2.1988 -0.7829
12034TIP3   OH257592   6.249   1.651  14.008 -0.2453  0.2919 -0.2442
12034TIP3    H157593   6.220   1.627  14.095  0.5164  1.6232  0.3923
12034TIP3    H257594   6.169   1.678  13.962 -0.1232  3.9530  1.4915
12035TIP3   OH257595   5.415   2.702  16.538  0.4080  0.3631 -0.3619
12035TIP3    H157596   5.438   2.762  16.609  0.3528  0.0134 -0.0435
12035TIP3    H257597   5.469   2.625  16.554  0.1115  0.1295 -0.4742
12036TIP3   OH257598   6.769   0.503  15.689  0.1197 -0.4212 -0.0263
12036TIP3    H157599   6.809   0.590  15.700  2.1561 -1.4974  1.4132
12036TIP3    H257600   6.692   0.519  15.634  0.9989  2.1496 -0.5992
12037TIP3   OH257601   2.991   6.635  13.893 -0.1898 -0.2531 -0.0752
12037TIP3    H157602   2.910   6.685  13.906  0.2321  1.2611 -2.8197
12037TIP3    H257603   3.060   6.702  13.895  0.7415 -1.2104 -0.1588
12038TIP3   OH257604   6.009   0.633   4.797 -0.2507 -0.1597 -0.6197
12038TIP3    H157605   6.007   0.538   4.804 -0.2542 -0.0320  1.5266
12038TIP3    H257606   5.916   0.659   4.799 -0.1910  0.0059  1.3060
12039TIP3   OH257607   4.440   2.764   3.273 -0.6239  0.0098 -0.0641
12039TIP3    H157608   4.402   2.803   3.195 -1.6958 -1.6165 -0.3930
12039TIP3    H257609   4.365   2.736   3.325  0.0866 -0.7557  0.5758
12040TIP3   OH257610   3.058   1.901  13.465 -0.2783 -0.3347  0.3421
12040TIP3    H157611   3.004   1.942  13.533 -0.6386 -0.9405  0.4266
12040TIP3    H257612   3.051   1.962  13.390 -2.0801 -0.9854 -0.0606
12041TIP3   OH257613   5.320   0.920  16.061  0.6365  0.2939  0.2824
12041TIP3    H157614   5.297   0.876  16.142  0.5294 -0.8721 -0.3684
12041TIP3    H257615   5.240   0.919  16.008  0.7234  0.9768  0.1233
12042TIP3   OH257616   0.752   6.031   3.336  0.6460 -0.2649 -0.2752
12042TIP3    H157617   0.696   5.953   3.340  0.1221  0.1219  0.0629
12042TIP3    H257618   0.690   6.103   3.321  1.0662  0.1613  0.0605
12043TIP3   OH257619   1.502   2.807   4.702  0.6854  0.0277 -0.2461
12043TIP3    H157620   1.538   2.727   4.740  0.0134 -0.5344 -0.7785
12043TIP3    H257621   1.418   2.820   4.746  1.3700  1.1564  0.7560
12044TIP3   OH257622   5.115   6.787   0.053  1.1495  0.4484 -0.5161
12044TIP3    H157623   5.030   6.810   0.090  0.0939 -2.3021 -1.1344
12044TIP3    H257624   5.121   6.692   0.061  3.1734  0.3369 -2.5548
12045TIP3   OH257625   6.655   1.455   0.006  0.5477  0.0950 -0.7084
12045TIP3    H157626   6.726   1.394   0.024  0.7268  0.6318  0.4050
12045TIP3    H257627   6.638   1.445  -0.088  2.0835 -0.0236 -0.9806
12046TIP3   OH257628   4.674   3.812  16.704  0.3310  0.2163 -0.6693
12046TIP3    H157629   4.759   3.818  16.748 -0.4125 -0.2445  0.8742
12046TIP3    H257630   4.639   3.901  16.707 -0.1676 -0.0060  0.6363
12047TIP3   OH257631   3.701   4.568  16.493  0.4146 -0.1822  0.1035
12047TIP3    H157632   3.761   4.615  16.551  0.2781  0.5572 -0.3535
12047TIP3    H257633   3.650   4.636  16.450 -2.1242 -0.8589  1.9037
12048TIP3   OH257634   1.392   1.439  16.629  0.1788 -0.0926  0.2219
12048TIP3    H157635   1.365   1.510  16.571  2.3939  1.7466  1.3578
12048TIP3    H257636   1.311   1.411  16.672 -0.6453  2.2341  0.2603
12049TIP3   OH257637   2.020   3.192  11.837 -0.5566 -0.4356  0.0068
12049TIP3    H157638   1.938   3.144  11.832 -0.6432 -0.2309 -0.5539
12049TIP3    H257639   1.994   3.283  11.851 -0.4183 -0.3935 -0.0112
12050TIP3   OH257640   2.252   0.914   3.665 -0.1027 -0.2477 -0.2553
12050TIP3    H157641   2.213   0.896   3.750  0.5333 -1.2137 -0.1544
12050TIP3    H257642   2.303   0.994   3.678 -0.5306 -0.0308  0.0991
12051TIP3   OH257643   5.392   2.420  16.803 -0.5488  0.1221 -0.0327
12051TIP3    H157644   5.351   2.421  16.717 -0.5055  0.9898 -0.0495
12051TIP3    H257645   5.318   2.423  16.865 -0.6554 -2.0233  0.0009
12052TIP3   OH257646   2.828   3.404  12.389  0.7457 -0.2671 -0.1849
12052TIP3    H157647   2.745   3.363  12.411 -0.0594  0.6670 -1.4035
12052TIP3    H257648   2.805   3.492  12.362  2.0559 -0.2235 -1.2216
12053TIP3   OH257649   0.225   4.285  11.947  0.3541  0.4032  0.1014
12053TIP3    H157650   0.200   4.231  12.022 -1.4867  2.3142  0.9173
12053TIP3    H257651   0.283   4.352  11.984  0.1090  0.8610 -0.3406
12054TIP3   OH257652   0.354   1.277  16.290  0.0710 -0.0333  0.0833
12054TIP3    H157653   0.360   1.188  16.256 -0.3940 -0.3995  0.9400
12054TIP3    H257654   0.261   1.289  16.310  0.2090  0.4584  0.4508
12055TIP3   OH257655   0.086   0.707   3.490  0.5019  0.1073  0.0516
12055TIP3    H157656   0.033   0.635   3.455  1.1195 -0.7708  0.9051
12055TIP3    H257657   0.044   0.786   3.456  0.3131 -0.6764 -1.5858
12056TIP3   OH257658   3.021   4.571   4.302  0.2046  0.0917 -0.4636
12056TIP3    H157659   2.939   4.617   4.318  0.8425  1.0107  0.2107
12056TIP3    H257660   3.037   4.522   4.383  0.7567  0.5886 -0.2715
12057TIP3   OH257661   6.384   2.457  13.756  0.0233 -0.0841  0.0632
12057TIP3    H157662   6.361   2.380  13.704  1.0869 -0.4231  0.0701
12057TIP3    H257663   6.460   2.494  13.711 -1.5274  1.9911 -0.9459
12058TIP3   OH257664   1.764   1.921  12.229 -0.0968 -0.3761  0.2562
12058TIP3    H157665   1.852   1.947  12.257 -0.0965 -1.8386  1.6557
12058TIP3    H257666   1.712   1.924  12.309 -0.7917 -1.7034 -0.1510
12059TIP3   OH257667   2.140   0.054  12.312  0.7863  0.3810  0.0600
12059TIP3    H157668   2.051   0.086  12.317  0.0205 -1.5555 -0.6584
12059TIP3    H257669   2.191   0.127  12.277 -0.3418  1.7660  1.2506
12060TIP3   OH257670   3.248   4.308   2.242  0.9263 -0.3745 -0.3471
12060TIP3    H157671   3.221   4.247   2.311 -0.7986 -0.2210 -0.8669
12060TIP3    H257672   3.298   4.376   2.288 -1.9903  0.8687  1.1087
12061TIP3   OH257673   6.113   6.783  15.363  0.0077 -0.6453  0.2913
12061TIP3    H157674   6.084   6.874  15.374 -1.1761 -1.1547  1.5222
12061TIP3    H257675   6.038   6.739  15.322  1.0415 -0.8111 -1.4954
12062TIP3   OH257676   4.728   5.139  12.812 -0.6794  0.4081  0.3153
12062TIP3    H157677   4.723   5.153  12.907 -0.3805 -0.5841  0.4791
12062TIP3    H257678   4.666   5.203  12.775 -2.5641 -0.7775  1.3299
12063TIP3   OH257679   1.756   1.433   0.953 -0.4162  0.2187 -0.1844
12063TIP3    H157680   1.831   1.449   0.895 -0.9071  0.7597 -0.6897
12063TIP3    H257681   1.756   1.338   0.967  0.9296  0.3230  0.6114
12064TIP3   OH257682   4.354   1.092   4.280 -0.3693  0.1170  0.3392
12064TIP3    H157683   4.320   1.181   4.277 -1.8129 -0.4023  0.7816
12064TIP3    H257684   4.356   1.070   4.374 -1.0497 -0.6977  0.1711
12065TIP3   OH257685   5.653   2.927  15.322  0.1007 -0.1362 -0.1834
12065TIP3    H157686   5.716   2.864  15.287 -0.7565 -0.9291 -0.3138
12065TIP3    H257687   5.656   3.001  15.261 -1.9469 -1.8231 -2.3958
12066TIP3   OH257688   1.119   1.631   3.694 -0.1757 -0.5098 -0.0248
12066TIP3    H157689   1.123   1.550   3.643 -2.6487 -0.9946  0.5258
12066TIP3    H257690   1.056   1.613   3.764 -0.6252  1.8312  0.2110
12067TIP3   OH257691   2.717   2.510   5.430 -0.3876 -0.0785  0.2547
12067TIP3    H157692   2.789   2.448   5.436  0.0997  0.4280 -0.2856
12067TIP3    H257693   2.750   2.589   5.473  0.0387  0.7435 -1.5304
12068TIP3   OH257694   1.985   4.939   3.471  0.1739 -0.2223 -0.4820
12068TIP3    H157695   2.063   4.949   3.525 -0.6207  0.9041  0.4828
12068TIP3    H257696   2.019   4.925   3.382  1.4689 -0.8398  0.0964
12069TIP3   OH257697   6.460   0.071   2.580 -0.4633 -0.5162 -0.0384
12069TIP3    H157698   6.547   0.031   2.576 -0.3122 -0.1717 -0.2224
12069TIP3    H257699   6.408   0.021   2.518  0.4108  1.2240 -2.2329
12070TIP3   OH257700   5.466   1.414  16.875 -0.0427  0.2547  0.2531
12070TIP3    H157701   5.510   1.452  16.799  0.2563  1.7260  1.1430
12070TIP3    H257702   5.408   1.347  16.839  1.4587 -0.3397 -1.1054
12071TIP3   OH257703   5.300   6.673   4.263  0.4331 -0.0414 -0.3206
12071TIP3    H157704   5.332   6.628   4.341 -1.1848 -2.6510 -1.0995
12071TIP3    H257705   5.335   6.623   4.190 -3.3960 -1.6250 -1.2008
12072TIP3   OH257706   6.326   5.248  11.875 -0.6394  0.1259 -0.1693
12072TIP3    H157707   6.234   5.243  11.899 -0.4798  1.0787  0.6819
12072TIP3    H257708   6.326   5.252  11.779 -1.4368 -0.7501 -0.2067
12073TIP3   OH257709   4.703   0.633   2.749  0.5398  0.1277  0.0891
12073TIP3    H157710   4.651   0.712   2.753  2.1698  1.2851 -0.8986
12073TIP3    H257711   4.650   0.566   2.792 -1.6876  1.2813 -0.8280
12074TIP3   OH257712   5.592   2.794   1.828 -0.1727 -0.2948  0.2755
12074TIP3    H157713   5.668   2.738   1.843  0.6588  0.8581  0.4807
12074TIP3    H257714   5.519   2.734   1.818  0.4381 -1.3631  1.9884
12075TIP3   OH257715   0.600   6.785   3.952 -0.2354  0.0002  0.1925
12075TIP3    H157716   0.665   6.751   3.891  0.7779 -0.5583  1.5540
12075TIP3    H257717   0.553   6.851   3.902 -0.0595 -1.1094 -1.4750
12076TIP3   OH257718   3.047   1.233   6.149 -0.2983  0.4161  0.5157
12076TIP3    H157719   2.956   1.217   6.176 -0.7401  0.5094 -0.8542
12076TIP3    H257720   3.048   1.325   6.122  0.1067  0.3093  0.1564
12077TIP3   OH257721   0.733   6.806  14.517  0.6294  0.0877 -0.1885
12077TIP3    H157722   0.683   6.884  14.538  0.2546 -0.1487 -0.1925
12077TIP3    H257723   0.798   6.799  14.587 -0.5184 -0.6181  0.8243
12078TIP3   OH257724   2.613   1.003   4.787 -0.2577 -0.3224  0.1097
12078TIP3    H157725   2.548   1.070   4.808 -1.1872 -1.1551 -0.0342
12078TIP3    H257726   2.603   0.989   4.693  0.8376  0.2613 -0.0975
12079TIP3   OH257727   1.419   3.557  12.891 -0.4678 -0.3994  0.3248
12079TIP3    H157728   1.379   3.639  12.920 -1.4251 -1.3842  1.8142
12079TIP3    H257729   1.482   3.535  12.960 -2.1788 -2.3252  1.2982
12080TIP3   OH257730   2.265   5.405  13.627  0.1426  0.0047 -0.0687
12080TIP3    H157731   2.266   5.314  13.658 -0.0266 -0.1618 -0.5340
12080TIP3    H257732   2.355   5.435  13.637  0.0488  0.0075  0.7349
12081TIP3   OH257733   6.409   6.614  16.274  1.0340 -0.4676 -0.5625
12081TIP3    H157734   6.317   6.591  16.260  0.8660  0.2348 -0.6263
12081TIP3    H257735   6.429   6.677  16.205  0.2854  2.8337  2.0905
12082TIP3   OH257736   0.816   1.037   0.677  1.0010  0.2038  0.0829
12082TIP3    H157737   0.766   1.011   0.754 -0.0234 -0.6528 -0.8569
12082TIP3    H257738   0.763   1.105   0.636  1.4650  0.5418  0.0378
12083TIP3   OH257739   2.724   5.896   3.523  0.0445 -0.4966  0.9373
12083TIP3    H157740   2.768   5.823   3.566  0.6593 -0.0041  1.1646
12083TIP3    H257741   2.737   5.880   3.429 -1.2883 -1.5633  0.9222
12084TIP3   OH257742   2.036   6.584   5.592 -0.0544  0.9162 -0.3744
12084TIP3    H157743   2.046   6.557   5.683  0.0650  0.8278 -0.4139
12084TIP3    H257744   2.114   6.549   5.548  0.1157  1.3412 -0.4199
12085TIP3   OH257745   1.590   6.715   0.675 -0.3659  0.4784 -0.0051
12085TIP3    H157746   1.501   6.680   0.668  0.0980 -0.5961 -0.5835
12085TIP3    H257747   1.644   6.639   0.697  0.6208  0.8572 -1.0951
12086TIP3   OH257748   1.035   5.150  15.232  0.1669  0.4727 -0.9199
12086TIP3    H157749   1.046   5.076  15.173  2.2088 -1.7636  2.0936
12086TIP3    H257750   1.124   5.180  15.251 -0.1231 -0.9965  3.4338
12087TIP3   OH257751   4.481   6.456   2.461  0.4584 -0.1951  0.1668
12087TIP3    H157752   4.439   6.541   2.448  0.5647 -0.4231 -1.7149
12087TIP3    H257753   4.416   6.403   2.507 -1.2659 -0.4895 -2.5582
12088TIP3   OH257754   3.305   0.396   3.444  0.4244  0.2385  0.1865
12088TIP3    H157755   3.388   0.444   3.456  0.2923  0.2105  1.2008
12088TIP3    H257756   3.325   0.332   3.375  1.1728  0.4099  0.2326
12089TIP3   OH257757   4.514   2.362   0.910  0.1936  0.3397  0.1104
12089TIP3    H157758   4.464   2.283   0.890  0.9523 -0.1198  0.0245
12089TIP3    H257759   4.555   2.344   0.995 -1.8511  1.7205  1.4469
12090TIP3   OH257760   4.742   6.729   5.744 -0.1219 -0.2260  0.1567
12090TIP3    H157761   4.709   6.750   5.831 -0.7877 -1.3865  0.1921
12090TIP3    H257762   4.663   6.714   5.691  0.2932 -0.2968 -0.4495
12091TIP3   OH257763   0.049   1.580   0.905  0.1032  0.6719 -0.2733
12091TIP3    H157764   0.119   1.575   0.840  0.9621 -0.5113  0.6924
12091TIP3    H257765  -0.032   1.572   0.855  0.7681 -0.8127 -1.1609
12092TIP3   OH257766   6.347   6.398  16.618  0.0222  0.6663 -0.3727
12092TIP3    H157767   6.293   6.354  16.683 -0.1131 -0.4100 -1.2070
12092TIP3    H257768   6.289   6.409  16.542  0.4420  1.1073 -0.6334
12093TIP3   OH257769   6.420   3.184  15.075 -0.1312  0.7963 -0.5437
12093TIP3    H157770   6.465   3.115  15.026  1.0621  0.5834  0.8069
12093TIP3    H257771   6.329   3.154  15.083  0.1855 -0.2061 -0.7236
12094TIP3   OH257772   6.427   6.201   3.085  0.0152 -0.2356 -0.8017
12094TIP3    H157773   6.515   6.207   3.121 -0.9425  0.6857  1.5361
12094TIP3    H257774   6.394   6.292   3.086 -1.4523 -0.7479 -0.2276
12095TIP3   OH257775   2.014   2.258  12.122  0.9396  0.2220  0.2922
12095TIP3    H157776   2.024   2.323  12.052  2.1149 -0.7012 -0.4196
12095TIP3    H257777   2.023   2.174  12.078  0.5154 -0.4046  1.3773
12096TIP3   OH257778   1.407   2.379  15.339  0.1480  0.1873  0.4943
12096TIP3    H157779   1.439   2.373  15.429  2.3436  0.2102 -0.2459
12096TIP3    H257780   1.376   2.291  15.318 -0.1565  0.1255  1.2077
12097TIP3   OH257781   3.148   0.879  13.286  0.1637 -0.2567 -0.1600
12097TIP3    H157782   3.067   0.828  13.293  1.4582 -2.7160 -2.2523
12097TIP3    H257783   3.158   0.894  13.192  0.9583  2.0210  0.2695
12098TIP3   OH257784   2.995   4.143   2.659 -0.5410  0.3777 -0.5506
12098TIP3    H157785   2.972   4.195   2.737 -0.7799 -0.2090 -0.2322
12098TIP3    H257786   3.077   4.181   2.629 -2.0126  2.6716 -1.8576
12099TIP3   OH257787   0.199   6.771   5.341  0.4812 -0.2304 -0.0611
12099TIP3    H157788   0.123   6.791   5.286 -0.0994 -1.1985  0.3831
12099TIP3    H257789   0.258   6.721   5.284  0.3181 -0.3761 -0.1019
12100TIP3   OH257790   0.882   2.885   3.816  0.1085  1.0173 -0.0262
12100TIP3    H157791   0.870   2.801   3.772 -1.8755  1.7444 -0.9480
12100TIP3    H257792   0.828   2.879   3.894  0.1268  1.3502  0.0137
12101TIP3   OH257793   4.683   4.032   0.343  0.2829  0.2698  0.1989
12101TIP3    H157794   4.643   4.118   0.356 -3.0721 -0.8271 -2.0837
12101TIP3    H257795   4.651   3.980   0.416  0.3489  0.3005  0.2501
12102TIP3   OH257796   2.413   3.289  11.093 -0.2874  0.6796  0.2904
12102TIP3    H157797   2.361   3.276  11.014  0.1093 -1.0708  0.3030
12102TIP3    H257798   2.350   3.290  11.164 -0.4816  0.5908  0.1201
12103TIP3   OH257799   5.622   2.670  16.294  0.0926 -0.3788  0.1515
12103TIP3    H157800   5.528   2.686  16.288 -0.0405 -1.5293 -1.3772
12103TIP3    H257801   5.657   2.703  16.211  1.4456  2.4749  1.7874
12104TIP3   OH257802   2.367   2.232  14.716  0.1452  1.0090  0.5267
12104TIP3    H157803   2.346   2.325  14.724 -0.5984  0.8472  0.4942
12104TIP3    H257804   2.336   2.208  14.629  0.0429  0.6605  0.6597
12105TIP3   OH257805   2.367   4.294   2.841 -0.3369  0.0452 -0.2337
12105TIP3    H157806   2.440   4.278   2.901 -1.9299 -2.8007  1.0345
12105TIP3    H257807   2.408   4.300   2.755  1.3873 -2.1369  0.3682
12106TIP3   OH257808   0.103   2.479  16.526  0.3232 -0.5188  0.0332
12106TIP3    H157809   0.194   2.508  16.525  0.3866 -0.7554 -2.6323
12106TIP3    H257810   0.053   2.555  16.556  1.0880  0.5879 -1.4519
12107TIP3   OH257811   6.494   1.516   3.335  0.5069 -0.0125 -0.7661
12107TIP3    H157812   6.571   1.571   3.350  0.8242 -0.4184 -0.9053
12107TIP3    H257813   6.466   1.489   3.422  0.6406 -0.0212 -0.7257
12108TIP3   OH257814   3.004   4.663  13.443  0.3825 -0.1554  0.3266
12108TIP3    H157815   3.013   4.642  13.351 -0.6093  0.2349  0.1302
12108TIP3    H257816   2.932   4.608  13.474 -0.4003  0.9154  0.4578
12109TIP3   OH257817   5.246   4.158   2.300  0.2050  0.4337 -0.1334
12109TIP3    H157818   5.195   4.163   2.381  0.0088 -0.4242 -0.1901
12109TIP3    H257819   5.211   4.081   2.255  1.4494 -0.0867 -0.2373
12110TIP3   OH257820   6.775   3.573   1.357  0.4475 -0.4097  0.1245
12110TIP3    H157821   6.736   3.613   1.279  0.2696 -3.2322 -1.3039
12110TIP3    H257822   6.703   3.570   1.420  0.1281  0.3561 -0.1937
12111TIP3   OH257823   4.281   5.185   3.527  0.1010 -0.4714 -0.5750
12111TIP3    H157824   4.260   5.112   3.469 -0.4835  0.0552 -1.0274
12111TIP3    H257825   4.317   5.143   3.606 -0.8238 -1.2809 -0.5736
12112TIP3   OH257826   4.142   3.540  14.631 -0.0125  0.4254 -0.2332
12112TIP3    H157827   4.121   3.447  14.636 -0.3638  0.3967 -1.8669
12112TIP3    H257828   4.185   3.550  14.546  0.8301  1.5989  0.3250
12113TIP3   OH257829   0.356   5.204  16.661  0.5212  0.2018 -0.3411
12113TIP3    H157830   0.275   5.193  16.712  0.2966  0.3168 -0.6654
12113TIP3    H257831   0.360   5.297  16.642  0.5607  0.1496 -0.5978
12114TIP3   OH257832   1.309   2.323   0.868 -0.4546  0.5925  0.0874
12114TIP3    H157833   1.247   2.303   0.938 -0.2082 -1.0293 -0.1272
12114TIP3    H257834   1.339   2.237   0.839  1.0725  1.3351 -0.5418
12115TIP3   OH257835   4.430   5.491   6.087  0.0464 -0.6154 -0.5759
12115TIP3    H157836   4.385   5.553   6.145 -0.2258  0.7594 -2.2157
12115TIP3    H257837   4.492   5.446   6.144  0.3344  1.2465  0.6322
12116TIP3   OH257838   4.519   3.577  12.698  0.6499 -0.3602 -0.0468
12116TIP3    H157839   4.503   3.483  12.695  0.1276 -0.3551  1.7181
12116TIP3    H257840   4.465   3.613  12.628 -1.1774 -1.1220  0.9314
12117TIP3   OH257841   0.534   0.935   2.658  0.0232  0.1435  0.3563
12117TIP3    H157842   0.572   0.985   2.586  0.0040  0.4493  0.5551
12117TIP3    H257843   0.608   0.915   2.715 -0.0863  0.6051  0.6642
12118TIP3   OH257844   6.521   1.346  11.146  0.0788 -0.0147 -0.3728
12118TIP3    H157845   6.571   1.322  11.068 -0.5334 -1.8730 -0.2355
12118TIP3    H257846   6.492   1.435  11.130  0.6736 -0.0763 -1.9020
12119TIP3   OH257847   6.355   4.308  12.512 -0.0178  0.4644 -0.4846
12119TIP3    H157848   6.404   4.348  12.584 -1.0114  0.7164  0.0633
12119TIP3    H257849   6.349   4.215  12.535  0.7111  0.3246 -0.8497
12120TIP3   OH257850   4.413   0.557   2.274  0.5807 -0.1154 -0.4079
12120TIP3    H157851   4.453   0.602   2.200  1.4091 -1.1624 -0.6116
12120TIP3    H257852   4.324   0.537   2.244  1.2276 -1.4511 -1.5527
12121TIP3   OH257853   1.464   1.022   4.340  0.5766 -0.4407 -0.0183
12121TIP3    H157854   1.552   1.054   4.360 -0.4109  0.8322  2.4759
12121TIP3    H257855   1.440   1.067   4.259  1.4146  0.8271  0.4238
12122TIP3   OH257856   3.637   4.680  11.785  0.1321  0.4464 -0.6556
12122TIP3    H157857   3.628   4.768  11.823 -0.4497  0.5380 -0.9808
12122TIP3    H257858   3.547   4.648  11.780  0.5517 -1.3111  2.0747
12123TIP3   OH257859   5.349   0.782  10.813  0.6324 -0.3873 -0.2338
12123TIP3    H157860   5.420   0.822  10.864 -1.1171 -0.8155  2.6993
12123TIP3    H257861   5.281   0.849  10.811 -0.3040 -1.3097  0.2234
12124TIP3   OH257862   1.995   5.303  14.718  0.0243  0.1979  0.1858
12124TIP3    H157863   1.917   5.248  14.724 -0.3742  0.5482 -1.5974
12124TIP3    H257864   1.962   5.392  14.729  0.4165  0.2280  1.1644
12125TIP3   OH257865   2.438   4.982   5.969 -0.1144 -0.3049  0.6095
12125TIP3    H157866   2.439   5.051   6.035  0.4295 -1.4367  1.8021
12125TIP3    H257867   2.530   4.974   5.941 -0.3574  0.2462 -0.3787
12126TIP3   OH257868   6.105   2.847   3.296  0.4770 -0.0798 -0.0501
12126TIP3    H157869   6.180   2.898   3.326 -0.8253  1.7664  0.1358
12126TIP3    H257870   6.038   2.860   3.363  0.1161 -2.0636  0.0164
12127TIP3   OH257871   6.816   6.799  12.461 -0.0076  0.1306 -0.1761
12127TIP3    H157872   6.753   6.870  12.448  0.1149  0.0396 -1.3284
12127TIP3    H257873   6.897   6.833  12.422  0.3347 -0.2188  0.2351
12128TIP3   OH257874   2.163   2.209   4.073  0.5670  0.0947 -0.5420
12128TIP3    H157875   2.163   2.201   4.168 -0.3767  0.2719 -0.5311
12128TIP3    H257876   2.122   2.293   4.055 -0.4134 -0.5145 -1.1581
12129TIP3   OH257877   2.202   4.609   3.340  0.4624 -0.1907  0.2616
12129TIP3    H157878   2.120   4.639   3.299  0.1940  0.6991  1.4029
12129TIP3    H257879   2.263   4.681   3.326  0.6534 -0.2908  0.5676
12130TIP3   OH257880   4.445   2.700  14.812 -0.4213  0.1865 -0.2608
12130TIP3    H157881   4.475   2.617  14.849  0.9325  1.2843  1.2055
12130TIP3    H257882   4.524   2.738  14.772 -0.9843  0.8466 -0.7582
12131TIP3   OH257883   1.231   6.759   0.385  0.4030 -0.6883 -0.8360
12131TIP3    H157884   1.152   6.813   0.370  0.7860 -0.1662 -0.9931
12131TIP3    H257885   1.215   6.679   0.335 -0.4703 -1.0066 -0.0526
12132TIP3   OH257886   5.903   6.159   5.924 -0.2665 -0.0866  0.3618
12132TIP3    H157887   5.844   6.148   5.998 -0.2425 -0.8870  0.2702
12132TIP3    H257888   5.846   6.151   5.847 -0.2393  0.4063  0.2878
12133TIP3   OH257889   3.427   2.291  15.463 -0.2362  0.8824  0.6320
12133TIP3    H157890   3.417   2.199  15.489 -0.6010  1.2152  1.6791
12133TIP3    H257891   3.522   2.304  15.460 -0.1622  0.1214 -0.7961
12134TIP3   OH257892   4.633   0.347   5.094  0.0690  0.2415  0.1651
12134TIP3    H157893   4.614   0.254   5.090  1.9880 -0.1837  0.6936
12134TIP3    H257894   4.589   0.377   5.173  0.2587 -0.4153  0.5217
12135TIP3   OH257895   6.252   3.073   3.654 -0.0166 -0.4678  0.1346
12135TIP3    H157896   6.163   3.092   3.683 -0.2433 -0.7333 -0.3848
12135TIP3    H257897   6.308   3.129   3.709 -0.6936  2.0538 -1.6794
12136TIP3   OH257898   1.477   4.420   5.501 -0.3533  0.3275  0.4303
12136TIP3    H157899   1.390   4.457   5.512 -0.3156  0.5219  0.0696
12136TIP3    H257900   1.519   4.430   5.586 -0.2531  1.3349  0.2620
12137TIP3   OH257901   4.272   0.905  15.668 -0.1163  0.2009 -0.2357
12137TIP3    H157902   4.264   0.880  15.576  0.3644 -0.1548 -0.1806
12137TIP3    H257903   4.199   0.861  15.711  0.2527 -0.4724 -0.2783
12138TIP3   OH257904   6.804   5.201   3.366  0.8545  0.3953  0.5303
12138TIP3    H157905   6.849   5.273   3.411  0.3925  0.2572  1.2152
12138TIP3    H257906   6.770   5.146   3.436  2.2676 -1.1808  0.0359
12139TIP3   OH257907   1.652   2.807  16.276 -0.5037 -0.7494 -0.2826
12139TIP3    H157908   1.737   2.848  16.290 -0.8712 -0.0410 -0.1268
12139TIP3    H257909   1.639   2.808  16.181  0.9687 -3.5025 -0.5590
12140TIP3   OH257910   3.687   0.571  16.923 -0.0958 -0.0140  0.6227
12140TIP3    H157911   3.669   0.539  17.012  2.3855  2.2589  2.0576
12140TIP3    H257912   3.782   0.562  16.914 -0.2739  0.2334 -1.6234
12141TIP3   OH257913   2.458   1.910  16.753 -0.2851  0.1903  0.7379
12141TIP3    H157914   2.553   1.894  16.754 -0.6470 -2.1583  2.4676
12141TIP3    H257915   2.433   1.911  16.845 -1.7057  2.5669  0.3516
12142TIP3   OH257916   5.706   0.729  13.747 -0.1498  0.4435 -0.7673
12142TIP3    H157917   5.733   0.746  13.837  1.0535 -0.6754 -0.8993
12142TIP3    H257918   5.634   0.789  13.731  0.8590  1.9625  0.3331
12143TIP3   OH257919   5.616   2.025   5.856 -0.1590  0.5047 -0.2557
12143TIP3    H157920   5.686   1.976   5.898 -0.4931 -0.0617 -0.3558
12143TIP3    H257921   5.587   2.088   5.922 -1.0926 -0.7846  0.5861
12144TIP3   OH257922   6.815   3.464   1.064  0.2535  0.2264 -0.5217
12144TIP3    H157923   6.812   3.421   0.978 -1.7540  3.1221 -1.9776
12144TIP3    H257924   6.895   3.517   1.060  1.5232 -1.5566  0.4207
12145TIP3   OH257925   4.370   4.656   3.250  0.0864 -0.6537  0.0637
12145TIP3    H157926   4.444   4.648   3.189  1.4481  1.9020  1.3160
12145TIP3    H257927   4.401   4.614   3.330 -0.2956 -0.6292  0.2256
12146TIP3   OH257928   3.398   3.076  10.646 -0.1429  0.3528 -0.3296
12146TIP3    H157929   3.432   3.064  10.735  1.8835  1.4255 -0.9354
12146TIP3    H257930   3.473   3.058  10.589 -1.5300 -0.6962 -1.8513
12147TIP3   OH257931   2.244   1.488   2.971 -0.2293 -0.0329  0.0111
12147TIP3    H157932   2.283   1.405   3.001 -1.6392  0.2454  2.7960
12147TIP3    H257933   2.313   1.529   2.919  1.4759 -1.7091  0.8578
12148TIP3   OH257934   1.646   0.823  13.386  0.3194 -0.0271 -0.4369
12148TIP3    H157935   1.563   0.823  13.434 -0.0603  0.2758 -1.0833
12148TIP3    H257936   1.699   0.758  13.431 -0.3142 -0.3155 -0.0875
12149TIP3   OH257937   5.104   5.834   4.323  0.1362 -0.4121  0.3822
12149TIP3    H157938   5.057   5.787   4.255  0.1314  0.6196 -0.3474
12149TIP3    H257939   5.119   5.921   4.286 -1.5731  0.8084  2.4312
12150TIP3   OH257940   1.444   3.110  12.210  0.5019 -0.6633 -0.2060
12150TIP3    H157941   1.440   3.179  12.277  0.0608 -0.5298 -0.3671
12150TIP3    H257942   1.527   3.066  12.226  0.7795 -0.1034 -0.0892
12151TIP3   OH257943   4.390   3.795  11.295 -0.0289  0.0823 -0.3171
12151TIP3    H157944   4.442   3.868  11.261  0.2641  0.2385  0.4433
12151TIP3    H257945   4.327   3.776  11.226  1.4637 -0.5371 -1.5377
12152TIP3   OH257946   5.296   0.924  14.947 -0.5639 -0.1207 -0.1098
12152TIP3    H157947   5.244   0.844  14.949  0.9025 -1.0542  1.4543
12152TIP3    H257948   5.231   0.994  14.947 -1.8526 -1.2606  2.1515
12153TIP3   OH257949   2.221   3.550   4.497  0.4364  0.4901  0.4185
12153TIP3    H157950   2.246   3.624   4.442 -0.7721  0.3635 -0.3187
12153TIP3    H257951   2.192   3.589   4.579  0.5060  0.7949  0.2948
12154TIP3   OH257952   2.047   0.300  13.204  0.6564 -0.0823 -0.4466
12154TIP3    H157953   2.011   0.218  13.170 -1.0798  1.2566 -1.9309
12154TIP3    H257954   2.141   0.284  13.213  0.3118 -2.2573 -0.6157
12155TIP3   OH257955   4.229   0.802   2.008 -0.0837 -0.4089 -0.0394
12155TIP3    H157956   4.154   0.806   1.949 -0.0512  2.0961  0.0368
12155TIP3    H257957   4.193   0.826   2.094  0.7043  0.3626  0.0785
12156TIP3   OH257958   3.719   2.194   3.551  0.0458  0.1955  0.1295
12156TIP3    H157959   3.751   2.284   3.551  0.9591 -0.1171 -0.7255
12156TIP3    H257960   3.724   2.167   3.643  1.5647  0.3979  0.1156
12157TIP3   OH257961   1.847   1.735   6.220  0.4485 -0.1239  0.6153
12157TIP3    H157962   1.801   1.788   6.155 -0.1524 -1.5801 -0.1632
12157TIP3    H257963   1.782   1.672   6.251  1.2292 -0.6009  1.3186
12158TIP3   OH257964   6.368   4.896   6.362  0.3535 -0.4437 -0.0547
12158TIP3    H157965   6.347   4.861   6.448  0.8786 -0.1681  0.1891
12158TIP3    H257966   6.405   4.821   6.314  1.6612 -0.1919  0.5307
12159TIP3   OH257967   1.249   2.581  10.783  1.1727 -0.3097  0.2272
12159TIP3    H157968   1.238   2.549  10.694 -1.6802 -1.0799  0.8090
12159TIP3    H257969   1.242   2.502  10.838 -1.0124  0.6195  1.3510
12160TIP3   OH257970   4.447   5.805   5.257  0.0954 -0.1113 -0.4979
12160TIP3    H157971   4.435   5.770   5.168  0.8275 -1.2550 -0.1661
12160TIP3    H257972   4.540   5.791   5.275  0.6553  3.0799 -0.7703
12161TIP3   OH257973   6.042   3.279   3.727 -0.0090  0.3120 -0.4917
12161TIP3    H157974   6.009   3.276   3.638  1.4223 -1.4262 -1.0034
12161TIP3    H257975   6.104   3.352   3.728 -0.2688  0.5326 -0.8363
12162TIP3   OH257976   3.845   1.391  16.856 -0.0711  0.4796  0.0265
12162TIP3    H157977   3.884   1.320  16.805 -1.4368 -0.2364 -0.0629
12162TIP3    H257978   3.896   1.394  16.937 -0.9824 -1.6761  0.7086
12163TIP3   OH257979   2.440   1.738   2.206  0.3061  0.5674  0.0956
12163TIP3    H157980   2.346   1.731   2.220  0.3748  0.0540  0.3023
12163TIP3    H257981   2.459   1.679   2.133  0.5502  0.2585  0.4065
12164TIP3   OH257982   2.393   5.852  14.062  0.0062 -0.0426 -0.1091
12164TIP3    H157983   2.401   5.766  14.021  0.7677  0.2867 -0.6755
12164TIP3    H257984   2.308   5.851  14.105 -0.4378 -0.7141 -0.9956
12165TIP3   OH257985   0.681   5.244  12.794 -0.2138  0.3614 -0.2511
12165TIP3    H157986   0.603   5.272  12.747 -1.5354 -2.0277  0.4289
12165TIP3    H257987   0.665   5.268  12.885 -0.1696 -0.1439 -0.1068
12166TIP3   OH257988   1.327   5.735   2.579 -0.0263  0.1687  0.1443
12166TIP3    H157989   1.362   5.821   2.553  0.7907  0.6409  2.6348
12166TIP3    H257990   1.384   5.672   2.536  0.7173  0.8983  0.0425
12167TIP3   OH257991   4.500   4.312  14.722 -0.6390  0.1726  0.2518
12167TIP3    H157992   4.450   4.392  14.734  1.1265  1.5605 -1.3843
12167TIP3    H257993   4.589   4.334  14.751  0.6942 -0.1174 -3.3687
12168TIP3   OH257994   4.205   6.194   0.335  0.1659  0.5379  0.1929
12168TIP3    H157995   4.276   6.157   0.283  1.7037 -0.3583  2.8128
12168TIP3    H257996   4.248   6.253   0.397 -1.5757  1.4449  0.5917
12169TIP3   OH257997   2.674   2.238  17.011  0.3090  0.2513 -0.3940
12169TIP3    H157998   2.726   2.293  16.953 -0.1735  1.3050  0.1673
12169TIP3    H257999   2.622   2.299  17.062 -0.4995 -0.7421 -0.0121
12170TIP3   OH258000   0.577   3.794   5.733 -0.1641 -0.2373  0.0656
12170TIP3    H158001   0.550   3.800   5.641  0.0916 -0.6826 -0.0387
12170TIP3    H258002   0.658   3.845   5.737 -0.8047  0.7626  0.2939
12171TIP3   OH258003   0.254   4.071   2.308 -0.1372  0.3877  0.3659
12171TIP3    H158004   0.267   4.153   2.357  1.3453  0.3188  0.1014
12171TIP3    H258005   0.249   4.098   2.217 -1.3079  0.3447  0.4070
12172TIP3   OH258006   4.719   3.874   3.294 -0.3575  0.0072  0.4883
12172TIP3    H158007   4.796   3.868   3.350  0.4802  0.7492 -0.5623
12172TIP3    H258008   4.709   3.967   3.275 -2.6792  0.1613  2.1787
12173TIP3   OH258009   6.082   5.941   3.224  0.3971  0.3513 -0.4741
12173TIP3    H158010   6.013   5.875   3.220  0.1391  0.5919 -0.0646
12173TIP3    H258011   6.090   5.961   3.317  1.4199 -0.0930 -0.4562
12174TIP3   OH258012   6.197   1.550  15.004  0.2261 -0.0133 -0.0125
12174TIP3    H158013   6.204   1.530  15.097  2.2749 -0.5395 -0.2404
12174TIP3    H258014   6.164   1.640  15.001  0.7267  0.2316  1.2373
12175TIP3   OH258015   2.779   0.853  16.013 -0.1198 -0.4548 -0.2280
12175TIP3    H158016   2.761   0.890  16.099 -1.0894  2.0392 -1.4564
12175TIP3    H258017   2.742   0.765  16.016 -0.9553 -0.0606  1.5918
12176TIP3   OH258018   4.858   2.777  14.108 -0.6326  0.0793 -0.1464
12176TIP3    H158019   4.915   2.702  14.094  0.8405  0.8855  1.3014
12176TIP3    H258020   4.798   2.749  14.177 -0.2905  0.1066  0.1669
12177TIP3   OH258021   5.658   6.805   5.321  0.2663 -0.3130 -0.2582
12177TIP3    H158022   5.639   6.713   5.340  3.2675 -1.1976 -1.0774
12177TIP3    H258023   5.686   6.842   5.405  0.3675 -0.5343 -0.1932
12178TIP3   OH258024   1.843   3.903   0.038  0.0778  0.5279 -0.9247
12178TIP3    H158025   1.836   3.984   0.087 -3.4751 -0.2784  0.0143
12178TIP3    H258026   1.878   3.840   0.101  1.2982  0.9027 -1.2044
12179TIP3   OH258027   3.180   0.461   2.089  0.2418  0.4651 -0.2791
12179TIP3    H158028   3.239   0.524   2.130 -0.5256  0.8836  0.1915
12179TIP3    H258029   3.158   0.500   2.004 -0.9800  1.3080  0.3972
12180TIP3   OH258030   1.107   5.180   4.915 -0.3408 -0.2475 -0.2582
12180TIP3    H158031   1.165   5.223   4.978  0.1424 -1.5936  0.2204
12180TIP3    H258032   1.053   5.121   4.967  1.1099 -2.5105 -1.2420
12181TIP3   OH258033   3.613   0.007  17.230  0.4842 -0.6954 -0.1994
12181TIP3    H158034   3.591   0.085  17.178 -1.0054 -0.1783  1.1626
12181TIP3    H258035   3.565  -0.064  17.188 -0.9475 -0.2270  0.5933
12182TIP3   OH258036   3.916   6.255   6.155 -0.1271  0.5489  0.1915
12182TIP3    H158037   4.005   6.221   6.165 -0.6864 -0.9565  0.1974
12182TIP3    H258038   3.909   6.324   6.222  0.1908 -1.0817  1.9441
12183TIP3   OH258039   0.948   2.315   0.865 -0.1383  0.2134  0.2232
12183TIP3    H158040   1.017   2.368   0.905  0.9503 -1.3939  0.5280
12183TIP3    H258041   0.922   2.255   0.934 -0.0554 -0.8675 -0.6834
12184TIP3   OH258042   3.527   6.299  16.691  0.2913 -0.3605 -0.6267
12184TIP3    H158043   3.563   6.301  16.603 -0.1298 -1.7427 -0.8425
12184TIP3    H258044   3.566   6.221  16.731 -0.6555 -0.5697 -0.0990
12185TIP3   OH258045   1.750   4.350   1.100  0.2569  0.0815 -0.4081
12185TIP3    H158046   1.788   4.435   1.078  0.1880  0.2139 -0.0042
12185TIP3    H258047   1.655   4.364   1.095  0.2446  0.0490 -0.2514
12186TIP3   OH258048   6.048   1.699   1.482  0.1817  0.2676 -0.2194
12186TIP3    H158049   6.057   1.624   1.424  1.1621 -1.4054  2.0391
12186TIP3    H258050   6.103   1.767   1.442  1.5947 -1.1610 -0.7539
12187TIP3   OH258051   5.279   0.071   1.525 -0.6013 -0.3888  0.0583
12187TIP3    H158052   5.292   0.137   1.593  1.4834  0.7067 -1.3415
12187TIP3    H258053   5.349   0.008   1.540 -1.2945 -1.1615  0.0719
12188TIP3   OH258054   2.423   6.018   2.672 -0.0772 -0.1726 -0.0043
12188TIP3    H158055   2.345   6.019   2.727  0.1510 -1.1437  0.3448
12188TIP3    H258056   2.476   5.946   2.707  0.8874  0.3556 -0.3564
12189TIP3   OH258057   3.096   0.983   4.504  0.2529  0.0324 -0.0136
12189TIP3    H158058   3.044   1.047   4.552  1.2772  1.4766 -0.7752
12189TIP3    H258059   3.154   0.944   4.570 -1.6698 -1.5038  0.8126
12190TIP3   OH258060   5.302   5.266   1.133  0.2520 -0.3107  0.2568
12190TIP3    H158061   5.226   5.284   1.078 -0.4023  0.0700  1.2711
12190TIP3    H258062   5.375   5.307   1.087 -0.2979  0.0440 -0.3022
12191TIP3   OH258063   4.509   6.048   3.445  0.1865 -0.3136 -0.3063
12191TIP3    H158064   4.601   6.076   3.447  0.6390 -1.8130  0.8391
12191TIP3    H258065   4.460   6.130   3.439  1.5459  0.6321  0.8872
12192TIP3   OH258066   1.701   4.892   3.484  0.2454  0.0615  0.1600
12192TIP3    H158067   1.777   4.917   3.430 -1.1965  3.3375 -0.5125
12192TIP3    H258068   1.643   4.845   3.423 -0.6975  2.4240 -0.8311
12193TIP3   OH258069   3.807   2.064   1.247 -0.2470  0.3291  0.0584
12193TIP3    H158070   3.849   2.098   1.168  0.1896  1.5221  0.7967
12193TIP3    H258071   3.757   2.138   1.282 -1.1675 -0.4413  0.4204
12194TIP3   OH258072   5.115   0.316  11.364  0.4179  0.3833  0.4059
12194TIP3    H158073   5.053   0.383  11.394 -1.1271 -0.1474 -1.4542
12194TIP3    H258074   5.154   0.353  11.285  1.6110  0.2073  0.9012
12195TIP3   OH258075   2.798   1.155  14.832 -0.1503 -0.6099 -0.5106
12195TIP3    H158076   2.890   1.148  14.806  0.3738  0.4950  0.9657
12195TIP3    H258077   2.771   1.065  14.847  1.1169 -0.8674  0.3787
12196TIP3   OH258078   0.529   1.861   6.469 -0.4607 -0.1810  0.0763
12196TIP3    H158079   0.622   1.844   6.480 -0.2460 -0.5750 -2.1325
12196TIP3    H258080   0.525   1.945   6.424 -1.0238 -1.6583 -2.7693
12197TIP3   OH258081   4.569   6.282  16.631  0.1305 -0.2163  0.3098
12197TIP3    H158082   4.497   6.278  16.693  0.5480  1.6665  0.9809
12197TIP3    H258083   4.618   6.201  16.645 -1.7239 -1.4303 -0.0433
12198TIP3   OH258084   0.571   5.148   2.579 -0.1854 -0.0194  0.5971
12198TIP3    H158085   0.544   5.067   2.535  0.6172 -0.3337  0.6710
12198TIP3    H258086   0.498   5.170   2.637  0.8719 -2.3619  2.8774
12199TIP3   OH258087   3.241   3.480   1.224  0.4333  0.1578 -0.3719
12199TIP3    H158088   3.241   3.508   1.316  1.0855 -0.8414 -0.0535
12199TIP3    H258089   3.333   3.476   1.200  0.3851 -2.0015 -0.2922
12200TIP3   OH258090   3.907   5.017   1.545 -0.7144 -0.0841 -0.6707
12200TIP3    H158091   3.908   5.093   1.486  0.0538  0.7476  0.3903
12200TIP3    H258092   3.849   5.043   1.616  1.4363  0.4863  0.9297
12201TIP3   OH258093   5.734   6.022   5.693 -0.1710 -0.2168 -0.2256
12201TIP3    H158094   5.709   6.114   5.700 -1.7032 -0.4147 -2.3678
12201TIP3    H258095   5.691   5.980   5.768 -1.0519  0.5113 -0.3096
12202TIP3   OH258096   1.029   6.257   6.203 -0.4064 -0.2838  0.0325
12202TIP3    H158097   1.091   6.226   6.269 -0.0100  1.4651  0.4968
12202TIP3    H258098   1.083   6.295   6.135 -0.8406 -1.6747 -1.1022
12203TIP3   OH258099   3.631   2.760  13.047 -0.1689 -0.5784 -0.1846
12203TIP3    H158100   3.614   2.827  12.981 -2.1100 -0.8682  0.0061
12203TIP3    H258101   3.717   2.783  13.082 -0.6286  1.5853 -0.3905
12204TIP3   OH258102   5.112   4.194   3.939 -0.1325 -0.1802 -0.3767
12204TIP3    H158103   5.125   4.274   3.888  0.6947 -1.0625 -1.5638
12204TIP3    H258104   5.164   4.207   4.018  1.1947 -0.1819 -1.2507
12205TIP3   OH258105   5.169   6.507   3.390  0.0992  0.1806 -0.8554
12205TIP3    H158106   5.205   6.517   3.302  2.9257  0.0292  0.2464
12205TIP3    H258107   5.194   6.587   3.436  0.0667 -0.4642  0.3042
12206TIP3   OH258108   0.626   0.377  13.486 -0.2176 -1.0019  0.1131
12206TIP3    H158109   0.556   0.343  13.542  0.0564 -0.8567  0.5500
12206TIP3    H258110   0.609   0.471  13.483 -1.4174 -1.2623 -1.7058
12207TIP3   OH258111   0.220   6.034   4.807  0.0559 -0.3048  0.1347
12207TIP3    H158112   0.242   6.120   4.770  3.3516 -0.9531  0.3775
12207TIP3    H258113   0.190   5.983   4.733 -1.3745  0.8661 -0.1179
12208TIP3   OH258114   6.665   6.535  16.883  0.0453  0.2341  0.0574
12208TIP3    H158115   6.587   6.525  16.829  0.9467 -0.8021 -1.0664
12208TIP3    H258116   6.705   6.616  16.852  0.7478 -0.5454 -1.0528
12209TIP3   OH258117   5.751   6.594  11.080  0.3246  0.1566 -0.1414
12209TIP3    H158118   5.839   6.620  11.109  0.2367 -0.0748  0.3324
12209TIP3    H258119   5.759   6.588  10.985  0.5550  1.1445 -0.1939
12210TIP3   OH258120   3.474   0.696   0.473  0.5478  0.1759  0.0952
12210TIP3    H158121   3.483   0.742   0.556 -0.6126  2.4397 -0.9949
12210TIP3    H258122   3.546   0.728   0.420  0.8776 -0.7471 -0.0308
12211TIP3   OH258123   2.657   6.352  10.816  0.0332  0.4838  0.4328
12211TIP3    H158124   2.592   6.281  10.816 -0.0751  0.5067  2.9162
12211TIP3    H258125   2.611   6.426  10.855  0.5859  1.5056 -0.8303
12212TIP3   OH258126   4.146   2.582   3.117 -0.4187  0.0105 -0.7553
12212TIP3    H158127   4.224   2.529   3.132 -1.2214 -1.0310 -0.1302
12212TIP3    H258128   4.091   2.529   3.060 -0.4361  0.9742 -1.6501
12213TIP3   OH258129   4.334   5.015   1.153 -0.2377 -0.5496 -0.3126
12213TIP3    H158130   4.402   4.947   1.152  0.1318 -0.1963  0.2444
12213TIP3    H258131   4.322   5.038   1.061  1.7063  0.6611 -0.3024
12214TIP3   OH258132   6.166   3.751  13.651  0.6355  0.0628  0.9011
12214TIP3    H158133   6.244   3.739  13.705  2.1755 -1.6964 -1.6525
12214TIP3    H258134   6.189   3.715  13.566 -2.2391  1.4999 -0.5548
12215TIP3   OH258135   1.412   3.740   3.059  0.5845  0.1700 -0.4677
12215TIP3    H158136   1.374   3.663   3.103  0.1429  0.9832  0.6032
12215TIP3    H258137   1.337   3.799   3.047  1.3785  1.5609  1.1650
12216TIP3   OH258138   3.334   4.483   3.754  0.2878 -0.3547 -0.3310
12216TIP3    H158139   3.366   4.436   3.831  0.5753  0.0297 -0.2197
12216TIP3    H258140   3.411   4.527   3.719 -0.3494  1.5466  0.6159
12217TIP3   OH258141   1.754   5.962  16.471 -0.5155 -0.0972 -0.0259
12217TIP3    H158142   1.671   5.979  16.426 -0.8266 -2.4953 -0.4575
12217TIP3    H258143   1.748   6.013  16.552 -1.5626  1.2974 -0.9503
12218TIP3   OH258144   4.608   0.964   5.628 -0.0463  0.3960  0.4504
12218TIP3    H158145   4.672   0.898   5.651  1.5529  1.7189 -0.1045
12218TIP3    H258146   4.586   1.007   5.711  0.8585  0.8699  0.4506
12219TIP3   OH258147   5.815   1.315   1.785  0.6083 -0.2674 -0.3698
12219TIP3    H158148   5.759   1.345   1.856  0.1736 -0.0669 -0.8001
12219TIP3    H258149   5.850   1.395   1.746  1.6404 -0.4047  0.2512
12220TIP3   OH258150   4.323   5.715   5.725 -0.1282  0.0616  0.5957
12220TIP3    H158151   4.314   5.735   5.632 -0.9913 -1.1080  0.4146
12220TIP3    H258152   4.233   5.696   5.754  0.4171 -1.7867  1.1398
12221TIP3   OH258153   3.277   1.247   6.315  0.7820 -0.0646  0.0900
12221TIP3    H158154   3.320   1.181   6.261  0.1606 -0.3096 -0.1075
12221TIP3    H258155   3.183   1.232   6.302  0.6138  2.5242 -1.9895
12222TIP3   OH258156   0.546   0.843  13.539  0.2743  0.4602  0.0062
12222TIP3    H158157   0.474   0.815  13.596  0.0373 -1.0224 -0.9797
12222TIP3    H258158   0.535   0.938  13.532 -1.7417  0.2338 -0.3176
12223TIP3   OH258159   3.073   0.955  14.882 -0.4213 -0.2196  0.1211
12223TIP3    H158160   3.085   0.945  14.976  0.1474 -2.3499 -0.1534
12223TIP3    H258161   2.980   0.938  14.867 -1.0969  2.7704  0.5841
12224TIP3   OH258162   1.731   4.649  14.814  0.1090  0.0490 -0.3748
12224TIP3    H158163   1.678   4.726  14.836 -0.0848  0.2558 -1.5101
12224TIP3    H258164   1.794   4.681  14.750  1.5766 -0.2220  0.9175
12225TIP3   OH258165   6.650   6.733   1.738 -0.4029 -0.6776  0.5501
12225TIP3    H158166   6.574   6.740   1.796 -2.0393 -2.5955 -1.2966
12225TIP3    H258167   6.664   6.823   1.708 -1.3713 -0.1485  1.6017
12226TIP3   OH258168   4.352   3.897  15.395 -0.1894  0.1653  0.3897
12226TIP3    H158169   4.287   3.935  15.335 -0.7099 -0.9434  0.2328
12226TIP3    H258170   4.414   3.853  15.337  0.8335  1.3938  0.5281
12227TIP3   OH258171   4.628   1.311  13.745  0.1794  0.2398  0.0475
12227TIP3    H158172   4.627   1.262  13.828 -1.4115  1.0453  0.5130
12227TIP3    H258173   4.602   1.246  13.679  1.3733 -0.3838  0.1787
12228TIP3   OH258174   0.842   0.226   3.992  0.0430 -0.4766 -0.4028
12228TIP3    H158175   0.751   0.215   4.020  0.2084  0.1601  0.4245
12228TIP3    H258176   0.894   0.194   4.066  0.4889 -0.7736 -0.8429
12229TIP3   OH258177   1.114   3.231   2.855 -0.0284 -0.3833 -0.0096
12229TIP3    H158178   1.089   3.194   2.770 -1.7247 -0.7566  0.6379
12229TIP3    H258179   1.080   3.168   2.919  1.1001 -0.0231  0.9621
12230TIP3   OH258180   2.562   3.471   4.962 -0.2668 -0.4948 -0.4593
12230TIP3    H158181   2.490   3.453   5.022  0.1935 -1.6371 -0.2385
12230TIP3    H258182   2.551   3.408   4.891  0.0666 -0.1492 -0.8259
12231TIP3   OH258183   6.668   4.787  14.125 -0.2109  0.1366  0.2502
12231TIP3    H158184   6.735   4.719  14.126  0.4670  0.7929  0.1981
12231TIP3    H258185   6.650   4.805  14.217  0.3073  0.5577  0.2733
12232TIP3   OH258186   6.415   3.431  12.657  0.9066  0.2607  0.0468
12232TIP3    H158187   6.350   3.399  12.595  1.7495 -2.0322  0.3216
12232TIP3    H258188   6.379   3.409  12.743  2.4731 -1.8962  0.1703
12233TIP3   OH258189   2.997   6.321  17.226  0.4298 -0.2304  0.4588
12233TIP3    H158190   2.976   6.238  17.269 -0.5194 -0.3410 -0.2003
12233TIP3    H258191   2.912   6.358  17.202  0.9060  0.2027 -0.6126
12234TIP3   OH258192   2.995   0.487   5.387 -0.4833 -0.3147 -0.0820
12234TIP3    H158193   2.960   0.517   5.471 -0.6094  2.2331 -0.9908
12234TIP3    H258194   2.954   0.545   5.323  0.0285 -1.8854 -1.8580
12235TIP3   OH258195   4.595   5.827  16.849 -0.0722 -0.0801 -0.3780
12235TIP3    H158196   4.629   5.917  16.843 -0.6393  0.1776  0.2397
12235TIP3    H258197   4.638   5.791  16.926  0.5312 -0.5114 -0.9059
12236TIP3   OH258198   3.710   4.680  12.146  0.4127  0.8566 -0.1470
12236TIP3    H158199   3.791   4.696  12.195  0.4497  0.9435 -0.2367
12236TIP3    H258200   3.646   4.738  12.187  0.1091 -0.0326  0.6685
12237TIP3   OH258201   0.046   3.322  11.109  0.0191 -0.1026  0.0869
12237TIP3    H158202   0.036   3.291  11.019  4.0212 -1.2900 -0.0633
12237TIP3    H258203   0.066   3.242  11.159  1.7822  1.0311  1.2639
12238TIP3   OH258204   6.535   2.598  12.415 -0.5469  0.0657  0.1261
12238TIP3    H158205   6.544   2.607  12.320  0.8861  2.8110  0.4759
12238TIP3    H258206   6.624   2.596  12.448 -1.0325 -1.1957  1.3937
12239TIP3   OH258207   0.909   1.095   1.934 -0.1539 -0.0477 -0.3304
12239TIP3    H158208   0.894   1.115   2.026 -0.3488 -2.1384  0.1033
12239TIP3    H258209   0.999   1.125   1.917  0.4690 -1.1276  0.9707
12240TIP3   OH258210   3.352   5.554  16.956  0.6527 -0.3931  0.5002
12240TIP3    H158211   3.378   5.612  17.028 -1.9717  1.4974  0.0116
12240TIP3    H258212   3.380   5.599  16.877  0.0802 -0.5781  0.1856
12241TIP3   OH258213   1.914   4.260  16.517  0.2679 -0.0554 -0.0343
12241TIP3    H158214   1.839   4.204  16.533  0.3389 -0.3676 -0.7852
12241TIP3    H258215   1.902   4.292  16.427  1.3633 -0.6258 -0.3970
12242TIP3   OH258216   1.492   5.418   6.325 -0.1879 -0.3394  0.3123
12242TIP3    H158217   1.459   5.492   6.375  0.1441  0.4576 -0.6336
12242TIP3    H258218   1.513   5.454   6.239  1.0390 -1.2878  0.1856
12243TIP3   OH258219   0.760   0.038   6.814  0.4973  0.5821 -0.1195
12243TIP3    H158220   0.685   0.036   6.873  0.0941  0.1393 -0.6434
12243TIP3    H258221   0.786   0.130   6.810 -0.2206  0.7790 -0.1929
12244TIP3   OH258222   5.052   3.853   1.240  0.8652 -0.7362  0.1443
12244TIP3    H158223   5.095   3.927   1.198  0.4321  1.6914  3.7570
12244TIP3    H258224   5.098   3.843   1.324 -0.0608 -3.6180  0.3570
12245TIP3   OH258225   3.573   6.243  14.949 -0.6215 -0.0916  0.8916
12245TIP3    H158226   3.649   6.231  14.891 -1.0794  0.2306  0.2115
12245TIP3    H258227   3.520   6.309  14.904 -2.6425 -2.2588 -0.0164
12246TIP3   OH258228   4.173   3.621   0.293  0.3384  0.2886  0.4337
12246TIP3    H158229   4.145   3.642   0.382 -0.6049 -1.1160  0.4796
12246TIP3    H258230   4.154   3.528   0.283 -0.7382  0.7053 -1.6585
12247TIP3   OH258231   4.069   6.552   5.785  0.4402 -0.2985  0.6314
12247TIP3    H158232   4.024   6.487   5.732  0.0828 -0.3278  0.9695
12247TIP3    H258233   4.142   6.504   5.825  1.1438 -0.1055 -0.3955
12248TIP3   OH258234   4.177   5.327   4.848  0.5252 -0.1839 -0.7092
12248TIP3    H158235   4.190   5.341   4.754 -0.7011 -2.2203 -1.2266
12248TIP3    H258236   4.265   5.327   4.885  1.5073 -4.4346 -2.6744
12249TIP3   OH258237   0.138   0.597   1.152  0.5599 -0.4948 -0.2075
12249TIP3    H158238   0.179   0.574   1.069  2.9183  2.3665  0.0974
12249TIP3    H258239   0.137   0.515   1.202  0.6651 -1.8446 -2.3862
12250TIP3   OH258240   1.583   1.404  11.302  0.1738  0.6225  0.0293
12250TIP3    H158241   1.491   1.379  11.291  0.9010 -1.6916 -1.1343
12250TIP3    H258242   1.602   1.390  11.394 -0.1216 -0.8249 -0.1216
12251TIP3   OH258243   1.674   1.236   5.446  0.4921 -0.0180  0.5036
12251TIP3    H158244   1.694   1.311   5.501 -0.0626  0.0124  0.6639
12251TIP3    H258245   1.758   1.214   5.405 -0.1300  3.0921 -2.5993
12252TIP3   OH258246   4.204   1.727  13.292  0.2273  0.1349 -0.2227
12252TIP3    H158247   4.247   1.707  13.208 -0.9243 -0.8842 -0.5817
12252TIP3    H258248   4.145   1.800  13.271  0.2582  0.1670 -0.1979
12253TIP3   OH258249   6.521   0.053   2.217  0.0755  0.4071  0.6205
12253TIP3    H158250   6.515  -0.033   2.257  2.1660  0.6260  1.4793
12253TIP3    H258251   6.432   0.087   2.219 -0.5685 -1.2736  1.2867
12254TIP3   OH258252   0.050   0.142  14.336 -0.3919  0.3315 -0.8517
12254TIP3    H158253  -0.027   0.115  14.386  0.0736 -1.2302 -0.9253
12254TIP3    H258254   0.114   0.167  14.403 -0.5449  0.4274 -0.7421
12255TIP3   OH258255   4.155   6.654   4.795  0.0605 -0.1606  0.7533
12255TIP3    H158256   4.203   6.579   4.760 -0.4192 -0.3860  0.5787
12255TIP3    H258257   4.202   6.677   4.875 -0.2821 -1.1795  1.2592
12256TIP3   OH258258   3.126   1.447   0.884 -0.1073 -0.2035  0.3605
12256TIP3    H158259   3.162   1.359   0.896  2.3851  1.0552  2.5649
12256TIP3    H258260   3.095   1.472   0.972 -0.6524  1.1969 -0.2211
12257TIP3   OH258261   6.487   3.221   1.854 -0.5863 -0.0848  0.1630
12257TIP3    H158262   6.401   3.261   1.839 -0.3093 -0.4617 -2.8189
12257TIP3    H258263   6.525   3.271   1.926 -2.0972  2.0531 -0.4874
12258TIP3   OH258264   3.420   5.185   1.105  0.3900 -0.3648 -0.0432
12258TIP3    H158265   3.375   5.263   1.139  0.3013 -1.0208  1.4172
12258TIP3    H258266   3.353   5.116   1.111  0.5584 -0.6124 -1.0502
12259TIP3   OH258267   2.199   5.473   4.034  0.0516  0.4193 -0.4315
12259TIP3    H158268   2.134   5.404   4.022  0.1716  0.4712 -1.3883
12259TIP3    H258269   2.250   5.445   4.110 -0.4882 -0.0806 -0.2523
12260TIP3   OH258270   6.602   5.170   6.049  0.2850 -0.0829  0.8227
12260TIP3    H158271   6.631   5.129   5.968 -1.1836 -1.6484  1.0466
12260TIP3    H258272   6.526   5.117   6.077  0.1998  0.9785  2.7162
12261TIP3   OH258273   6.538   3.283  11.073 -0.5301  0.7842 -0.2681
12261TIP3    H158274   6.569   3.367  11.106  0.6110 -0.3703  1.7027
12261TIP3    H258275   6.599   3.260  11.003 -1.8184  2.3334 -1.9510
12262TIP3   OH258276   2.655   4.322  11.826 -0.0132 -0.1420  0.0782
12262TIP3    H158277   2.741   4.282  11.811  0.5406  0.5090  1.4444
12262TIP3    H258278   2.673   4.404  11.871 -1.3220  0.2842 -0.1338
12263TIP3   OH258279   6.058   6.663  14.860  0.1364 -0.4742 -0.6484
12263TIP3    H158280   6.107   6.686  14.939  1.9489  0.7893 -2.0922
12263TIP3    H258281   5.997   6.736  14.848 -0.5652 -0.9666 -0.0751
12264TIP3   OH258282   4.868   6.440  15.940 -0.6230  0.6319  0.4283
12264TIP3    H158283   4.959   6.469  15.934 -0.5777  0.3946 -0.0611
12264TIP3    H258284   4.868   6.352  15.901 -1.4960  1.5613 -1.7455
12265TIP3   OH258285   2.168   4.108   4.381  0.1559  0.8706 -0.5839
12265TIP3    H158286   2.263   4.115   4.383  0.0663  2.5062 -0.9918
12265TIP3    H258287   2.149   4.024   4.423  1.7158  1.1061  0.6544
12266TIP3   OH258288   1.420   0.793  14.387 -0.4239  0.3481 -0.5789
12266TIP3    H158289   1.389   0.875  14.424  2.3496  1.3828 -0.4485
12266TIP3    H258290   1.447   0.741  14.463 -1.2855 -0.3134 -0.7220
12267TIP3   OH258291   0.711   6.679   2.720 -0.0737  0.4241  0.1268
12267TIP3    H158292   0.724   6.773   2.733 -1.3297  0.5647  0.4283
12267TIP3    H258293   0.617   6.667   2.730  0.3096 -1.1915  2.2752
12268TIP3   OH258294   5.723   1.862  11.104  0.2490  0.3486  0.0982
12268TIP3    H158295   5.776   1.864  11.024  1.5051  0.5646  0.9229
12268TIP3    H258296   5.698   1.770  11.113 -0.2642  0.3922 -0.7638
12269TIP3   OH258297   2.084   4.182  11.586 -0.5251 -0.5026  0.2450
12269TIP3    H158298   2.027   4.185  11.509  2.3458 -0.5488 -1.9995
12269TIP3    H258299   2.114   4.272  11.598 -0.9029 -0.5076  1.2929
12270TIP3   OH258300   4.261   1.980  10.446 -0.4282  0.4545 -0.0879
12270TIP3    H158301   4.356   1.983  10.461 -0.4867 -0.3704  0.4959
12270TIP3    H258302   4.234   2.072  10.451  0.4973  0.8235 -1.3939
12271TIP3   OH258303   3.934   1.639  15.324 -0.0636 -0.1358 -0.3700
12271TIP3    H158304   3.984   1.557  15.321 -2.1654 -1.3827 -2.9592
12271TIP3    H258305   3.958   1.684  15.243 -0.9498  0.5861 -0.2374
12272TIP3   OH258306   0.887   2.070   0.356 -0.1387  0.5457  0.3028
12272TIP3    H158307   0.912   2.094   0.266  0.4807  1.7518  0.7832
12272TIP3    H258308   0.941   1.994   0.376 -0.2104  0.3259 -0.3139
12273TIP3   OH258309   0.984   4.023   4.106 -0.5407  0.4255 -0.1887
12273TIP3    H158310   0.912   4.057   4.159 -1.7632 -0.3719 -1.2949
12273TIP3    H258311   0.960   3.932   4.090  0.5788  0.2359 -0.8133
12274TIP3   OH258312   3.887   6.331  13.180 -0.0269  0.2337  0.1454
12274TIP3    H158313   3.956   6.272  13.209 -0.2215 -0.8022 -1.3924
12274TIP3    H258314   3.915   6.359  13.093 -0.5904  1.3553  0.3200
12275TIP3   OH258315   3.949   2.448   0.338  0.1911  0.0009  0.1301
12275TIP3    H158316   3.933   2.429   0.431 -0.8873 -1.1749 -0.2893
12275TIP3    H258317   3.877   2.505   0.313  0.1444 -0.1860 -0.1521
12276TIP3   OH258318   2.809   2.949  17.149  0.5882 -0.2125 -0.4164
12276TIP3    H158319   2.761   3.032  17.145 -0.4763 -0.6337  2.3486
12276TIP3    H258320   2.753   2.888  17.101 -0.2016 -0.0280  0.2473
12277TIP3   OH258321   4.471   4.511   2.815  0.3459 -0.0794  0.2606
12277TIP3    H158322   4.514   4.454   2.752  0.8260  2.1157 -1.4691
12277TIP3    H258323   4.383   4.524   2.781  0.8621  1.7627 -0.4309
12278TIP3   OH258324   1.252   3.972  13.195  0.3731  0.2700 -0.5225
12278TIP3    H158325   1.276   3.899  13.138 -1.3063 -0.3296 -0.5067
12278TIP3    H258326   1.326   3.981  13.255  0.5989 -1.4266 -0.5201
12279TIP3   OH258327   3.709   1.485  16.543  0.3693 -0.1266  0.1556
12279TIP3    H158328   3.772   1.546  16.580  1.0622 -0.0146 -1.1828
12279TIP3    H258329   3.668   1.532  16.470 -0.2216 -0.7063  0.0972
12280TIP3   OH258330   1.555   4.936  10.638  0.4208 -0.3593 -0.0608
12280TIP3    H158331   1.542   4.943  10.732  1.6169 -0.1253  0.0923
12280TIP3    H258332   1.469   4.913  10.603 -0.5230  1.6721  0.8757
12281TIP3   OH258333   2.975   4.382   4.761 -0.6994  0.4006  0.1326
12281TIP3    H158334   3.038   4.450   4.740 -1.8003  0.9233 -1.5593
12281TIP3    H258335   2.996   4.356   4.851  2.8621 -0.4679 -0.8647
12282TIP3   OH258336   1.422   0.702  13.854  0.2150  0.4749  0.8431
12282TIP3    H158337   1.417   0.623  13.800 -2.1917  0.8706  0.4315
12282TIP3    H258338   1.515   0.715  13.869  0.6606 -2.3986  0.8286
12283TIP3   OH258339   2.788   4.113   5.665 -0.1594 -0.4899 -0.3292
12283TIP3    H158340   2.803   4.030   5.619 -0.9382  0.4292 -2.2837
12283TIP3    H258341   2.693   4.115   5.679 -0.1484  0.1263 -0.3578
12284TIP3   OH258342   1.477   0.851   4.617  0.1866 -0.0210  0.1740
12284TIP3    H158343   1.519   0.883   4.538  0.9204  1.1853  1.0529
12284TIP3    H258344   1.465   0.928   4.672  0.8733 -1.0463  1.8030
12285TIP3   OH258345   0.649   5.158  12.182 -0.2128 -0.1125 -0.3342
12285TIP3    H158346   0.738   5.146  12.149  0.3725  1.3203  0.6826
12285TIP3    H258347   0.620   5.241  12.146 -1.2631 -0.6994 -0.8795
12286TIP3   OH258348   0.422   6.477   2.500  0.0902 -0.1524 -0.2639
12286TIP3    H158349   0.435   6.555   2.555  1.6227  0.4699 -1.4578
12286TIP3    H258350   0.449   6.404   2.555  0.3605  0.3445  0.2704
12287TIP3   OH258351   0.033   0.771  15.655 -0.1697 -0.4716  0.3384
12287TIP3    H158352   0.041   0.738  15.566 -0.2477 -2.2518  0.9698
12287TIP3    H258353   0.121   0.801  15.677 -0.2093  0.2060 -0.4240
12288TIP3   OH258354   0.876   0.129  11.220  0.2561 -0.4278  0.1981
12288TIP3    H158355   0.838   0.069  11.157 -0.6282  1.1411 -0.7918
12288TIP3    H258356   0.897   0.075  11.296 -0.7444 -1.9257 -0.5799
12289TIP3   OH258357   4.462   5.162   5.358 -0.6074  0.5304  0.3138
12289TIP3    H158358   4.466   5.189   5.266 -0.1495  0.7964  0.4132
12289TIP3    H258359   4.552   5.140   5.381 -0.7639  0.2008  0.6215
12290TIP3   OH258360   0.417   4.178   5.323 -0.2768 -0.3337  0.0131
12290TIP3    H158361   0.419   4.218   5.236  0.6648 -2.7752 -1.1406
12290TIP3    H258362   0.499   4.204   5.364 -0.6023  0.6050  0.0670
12291TIP3   OH258363   6.812   0.193   0.590  0.5896 -0.1260  0.1071
12291TIP3    H158364   6.756   0.164   0.662  2.1450 -0.3387  1.2559
12291TIP3    H258365   6.781   0.143   0.515  0.5853 -1.8066  1.1849
12292TIP3   OH258366   3.892   3.752  17.120  0.5774  0.0587  0.1701
12292TIP3    H158367   3.835   3.711  17.185  0.4668 -1.0616 -0.6192
12292TIP3    H258368   3.943   3.680  17.084  1.9329  0.9352  0.2910
12293TIP3   OH258369   1.245   2.260   3.457 -0.1033  0.6990 -0.2264
12293TIP3    H158370   1.248   2.198   3.530 -1.9964 -0.9552 -1.5009
12293TIP3    H258371   1.216   2.207   3.382  0.6532  2.6136 -1.9156
12294TIP3   OH258372   5.741   3.344  12.218 -0.2857  0.1568  0.2842
12294TIP3    H158373   5.675   3.409  12.192  1.1662  0.5474 -2.6975
12294TIP3    H258374   5.696   3.260  12.212 -0.5447  0.4111 -1.8610
12295TIP3   OH258375   0.588   6.364  14.462 -0.0219  0.0920 -0.2295
12295TIP3    H158376   0.525   6.345  14.531  1.0193  0.6623  0.8810
12295TIP3    H258377   0.669   6.387  14.508  1.5434 -2.3815 -1.6244
12296TIP3   OH258378   3.182   3.490   1.828 -0.1222 -0.2631  0.6051
12296TIP3    H158379   3.111   3.528   1.880  1.0418  2.4859  0.3031
12296TIP3    H258380   3.258   3.545   1.847  1.6172 -2.3696 -0.0484
12297TIP3   OH258381   3.067   3.813  12.465  0.0929 -0.4420  0.0132
12297TIP3    H158382   3.063   3.827  12.370 -0.1296 -0.7301 -0.0200
12297TIP3    H258383   3.140   3.868  12.494  0.1513 -0.3415 -0.3249
12298TIP3   OH258384   5.379   5.350  11.500 -0.1122 -0.0378 -0.6358
12298TIP3    H158385   5.412   5.263  11.519 -1.1315 -0.7200 -1.8946
12298TIP3    H258386   5.445   5.389  11.442  0.4019  0.0800  0.0288
12299TIP3   OH258387   0.932   1.154   2.204 -0.4400  0.4309 -0.0892
12299TIP3    H158388   0.999   1.167   2.271  0.1310  0.4024 -0.6485
12299TIP3    H258389   0.890   1.240   2.194 -2.1194 -0.0997  1.9617
12300TIP3   OH258390   5.822   4.808   1.633 -0.5333  0.2357 -0.4547
12300TIP3    H158391   5.810   4.750   1.558  1.4805 -0.7050 -0.0620
12300TIP3    H258392   5.854   4.752   1.702  1.3733  1.7949 -0.0338
12301TIP3   OH258393   3.486   2.848  16.902  0.2957 -0.2011 -0.2740
12301TIP3    H158394   3.481   2.814  16.813 -2.3022 -1.5397  0.3148
12301TIP3    H258395   3.570   2.818  16.935 -0.1830 -2.6088 -1.1645
12302TIP3   OH258396   4.686   3.538  16.223 -0.1338  0.0306  0.1132
12302TIP3    H158397   4.680   3.560  16.316  0.3038  0.8303 -0.0484
12302TIP3    H258398   4.754   3.596  16.188 -0.3113 -0.2457 -0.7107
12303TIP3   OH258399   5.935   0.394   3.225  0.1203 -0.4827 -0.3341
12303TIP3    H158400   5.954   0.330   3.156  1.1269 -0.2331 -0.2925
12303TIP3    H258401   6.013   0.393   3.280 -0.4172 -0.2027  0.4377
12304TIP3   OH258402   0.332   4.765  16.309  0.3155  0.2105 -0.2575
12304TIP3    H158403   0.254   4.791  16.260  0.5242 -0.1098 -0.7660
12304TIP3    H258404   0.349   4.839  16.368  0.3217  0.7887 -0.9791
12305TIP3   OH258405   0.422   2.180   5.908 -0.5202 -0.4509  0.7158
12305TIP3    H158406   0.412   2.248   5.974  3.6773  0.2638  0.7597
12305TIP3    H258407   0.425   2.098   5.958 -0.6005 -0.2098  1.1177
12306TIP3   OH258408   0.080   2.628  11.884 -0.7069 -0.0843 -0.3729
12306TIP3    H158409   0.102   2.635  11.977 -2.0809  0.7371 -0.0846
12306TIP3    H258410   0.069   2.719  11.856  0.2824 -0.3030 -1.4928
12307TIP3   OH258411   2.309   2.725   2.146  0.1704  0.6032 -0.3701
12307TIP3    H158412   2.231   2.734   2.201 -0.5206  0.9424 -1.3893
12307TIP3    H258413   2.282   2.759   2.061  1.1895 -0.0466 -0.9590
12308TIP3   OH258414   4.745   4.404  14.801 -0.4877  0.7209 -0.2924
12308TIP3    H158415   4.773   4.478  14.855 -0.9573  0.2079  0.6618
12308TIP3    H258416   4.781   4.423  14.715 -0.9992  2.3047 -0.1842
12309TIP3   OH258417   4.936   6.687   4.497  0.1393 -0.0396  0.2267
12309TIP3    H158418   5.019   6.643   4.480  1.3332  2.3456 -0.2718
12309TIP3    H258419   4.944   6.721   4.586 -0.0735  0.6865 -0.0302
12310TIP3   OH258420   5.461   2.474   1.350  0.6988 -0.3987 -0.1048
12310TIP3    H158421   5.514   2.486   1.429  0.6496 -0.3708 -0.0757
12310TIP3    H258422   5.480   2.551   1.297  2.6810 -1.6269 -1.2550
12311TIP3   OH258423   1.113   6.159   3.970 -0.1673 -0.0694 -0.3545
12311TIP3    H158424   1.155   6.196   4.048 -2.9961 -0.7257  1.5729
12311TIP3    H258425   1.138   6.218   3.899  0.4883  1.9782  1.5092
12312TIP3   OH258426   1.700   5.828   0.183 -0.1001 -0.5975  0.5801
12312TIP3    H158427   1.699   5.887   0.258  1.3744  0.6942 -0.3953
12312TIP3    H258428   1.676   5.743   0.220  0.4816  0.0353  2.4931
12313TIP3   OH258429   0.604   4.798   5.138  0.1716  0.1558 -0.2327
12313TIP3    H158430   0.646   4.756   5.063  0.4088  0.7616 -0.4391
12313TIP3    H258431   0.518   4.825   5.105 -0.6726 -1.6962  0.3792
12314TIP3   OH258432   0.140   4.791   0.327  0.2999  0.2612 -0.1099
12314TIP3    H158433   0.107   4.875   0.361  4.2209  1.9589 -0.0745
12314TIP3    H258434   0.219   4.775   0.380  0.8293 -2.3215 -1.6295
12315TIP3   OH258435   4.916   1.533  12.645  0.5970 -0.5150  0.3548
12315TIP3    H158436   4.951   1.466  12.586  0.7268 -0.3183  0.2035
12315TIP3    H258437   4.835   1.562  12.602  1.4088  0.6228 -0.4638
12316TIP3   OH258438   6.411   2.354  11.976  0.5007  0.6540 -0.4336
12316TIP3    H158439   6.484   2.404  11.939  0.2783  0.7725 -0.7147
12316TIP3    H258440   6.447   2.315  12.056 -0.1719  3.7118  1.4269
12317TIP3   OH258441   2.746   5.231  11.489  0.1621  0.0624  0.0539
12317TIP3    H158442   2.816   5.181  11.447  2.3248 -0.5620  4.1735
12317TIP3    H258443   2.698   5.167  11.541 -1.8214  0.9742 -0.6135
12318TIP3   OH258444   3.684   4.315   1.139 -0.6119  0.3359 -0.2699
12318TIP3    H158445   3.680   4.235   1.088 -2.3643  1.0408 -1.2814
12318TIP3    H258446   3.759   4.303   1.198 -1.3821 -2.3707  0.1845
12319TIP3   OH258447   4.272   1.690  11.192  0.4924 -0.1908  0.2948
12319TIP3    H158448   4.255   1.731  11.108 -0.7493  0.3018  0.7711
12319TIP3    H258449   4.331   1.617  11.172  1.2018  0.6632 -0.8132
12320TIP3   OH258450   4.337   2.862   3.052  0.0121 -0.1031 -0.2069
12320TIP3    H158451   4.256   2.873   3.001 -0.9350 -0.6207  1.1482
12320TIP3    H258452   4.407   2.877   2.989 -1.1414  1.8243 -1.0782
12321TIP3   OH258453   1.386   0.161  16.608  0.5018  0.2429  0.5494
12321TIP3    H158454   1.348   0.073  16.602  2.3062 -0.4626 -0.9695
12321TIP3    H258455   1.381   0.182  16.702 -0.7870 -1.0735  0.8136
12322TIP3   OH258456   0.633   2.176  14.392 -0.4356 -0.2026  0.8574
12322TIP3    H158457   0.664   2.123  14.465 -2.4062 -3.7729 -0.7580
12322TIP3    H258458   0.563   2.230  14.429  0.8146  0.4700  2.2814
12323TIP3   OH258459   5.291   2.039   5.994  0.1329 -0.2849 -0.1328
12323TIP3    H158460   5.319   2.125   5.962  0.3815  0.1078  1.1028
12323TIP3    H258461   5.268   1.990   5.915  1.7128  0.3051 -0.9765
12324TIP3   OH258462   5.384   6.807   1.161 -0.3831 -0.1076 -0.6944
12324TIP3    H158463   5.298   6.772   1.141  0.0263 -1.0185 -0.8523
12324TIP3    H258464   5.442   6.731   1.164 -0.2158  0.0431  2.8943
12325TIP3   OH258465   0.859   5.102   0.652  0.2088 -0.8234 -0.7502
12325TIP3    H158466   0.781   5.157   0.660  0.1433 -1.0658  0.4839
12325TIP3    H258467   0.871   5.090   0.558 -1.8487 -1.6617 -0.9211
12326TIP3   OH258468   3.202   6.014   5.303  0.3031  0.7760  0.3271
12326TIP3    H158469   3.223   6.099   5.341  0.9055  0.5237  0.5752
12326TIP3    H258470   3.254   5.952   5.354 -0.4091  0.2205  0.3820
12327TIP3   OH258471   6.614   5.198  16.851  0.7840  1.0446 -0.4389
12327TIP3    H158472   6.670   5.251  16.794 -0.4300  1.3794 -1.3408
12327TIP3    H258473   6.529   5.241  16.847  0.4643  0.5767  0.9845
12328TIP3   OH258474   6.759   6.385  17.278 -0.2335 -0.7312  0.4823
12328TIP3    H158475   6.778   6.331  17.201 -0.8834 -1.2637  0.6876
12328TIP3    H258476   6.831   6.366  17.338 -0.9998 -2.1434  0.9550
12329TIP3   OH258477   0.453   0.526   6.762  0.0160  0.2479 -0.4812
12329TIP3    H158478   0.504   0.589   6.710  1.8484 -0.6926  0.1034
12329TIP3    H258479   0.412   0.469   6.696  0.8940  0.1459 -0.9588
12330TIP3   OH258480   2.708   1.263  12.416 -0.3595  0.4025 -0.1623
12330TIP3    H158481   2.677   1.254  12.506  1.1931  1.1032  0.4522
12330TIP3    H258482   2.777   1.328  12.420  0.4282 -0.3022 -1.6910
12331TIP3   OH258483   2.224   2.043   5.284 -0.0032  0.1313 -0.3429
12331TIP3    H158484   2.161   2.112   5.305  0.2193 -0.3512  2.1246
12331TIP3    H258485   2.264   2.070   5.201  0.1146  3.0009  0.5908
12332TIP3   OH258486   2.558   0.461   3.471  0.3329 -0.0574 -0.2062
12332TIP3    H158487   2.638   0.503   3.443  0.0858 -1.0004 -2.4549
12332TIP3    H258488   2.571   0.368   3.450 -1.2468 -0.2505 -0.4233
12333TIP3   OH258489   5.130   6.145   4.737  0.2196 -0.1543 -0.7829
12333TIP3    H158490   5.084   6.065   4.710 -0.4188 -0.5122  1.2629
12333TIP3    H258491   5.221   6.118   4.747 -0.1728 -0.9034  0.9238
12334TIP3   OH258492   1.797   6.207   4.341  0.6473  0.2594  0.0239
12334TIP3    H158493   1.775   6.259   4.263  1.1915  0.6083  0.1001
12334TIP3    H258494   1.877   6.161   4.318 -0.3083 -1.2514 -0.3612
12335TIP3   OH258495   3.422   6.173  14.083  0.9159 -0.1307  0.3014
12335TIP3    H158496   3.381   6.091  14.113 -0.2403 -0.0765 -1.0759
12335TIP3    H258497   3.505   6.145  14.046  1.1739 -0.5070  1.1433
12336TIP3   OH258498   5.892   1.576  11.327  0.4867 -0.8383 -0.0521
12336TIP3    H158499   5.935   1.491  11.318 -1.5339 -1.7534 -1.3228
12336TIP3    H258500   5.820   1.574  11.264 -0.4216  1.2967  0.8555
12337TIP3   OH258501   4.540   1.303   1.149  0.3576 -0.2219  0.0972
12337TIP3    H158502   4.585   1.350   1.219  1.0487  0.9707 -1.1077
12337TIP3    H258503   4.448   1.303   1.175  0.4721  1.0616  0.5360
12338TIP3   OH258504   1.001   5.588   4.628  0.6230  0.3373  0.4924
12338TIP3    H158505   0.940   5.646   4.673  1.6794  1.3899  0.5842
12338TIP3    H258506   1.050   5.545   4.697 -0.1963 -0.7165  0.4252
12339TIP3   OH258507   2.279   4.730  15.755 -0.3099  0.5118 -0.4893
12339TIP3    H158508   2.264   4.744  15.662 -1.3520 -3.0695 -0.9085
12339TIP3    H258509   2.192   4.713  15.792  0.3686 -0.5685  0.6785
12340TIP3   OH258510   4.302   1.675  12.664  0.4969  0.3008 -0.2366
12340TIP3    H158511   4.333   1.707  12.579  0.6753 -1.3586 -0.8383
12340TIP3    H258512   4.223   1.624  12.642 -0.7384  1.7039  0.8799
12341TIP3   OH258513   5.786   2.834  14.977 -0.4796 -0.0089 -0.0235
12341TIP3    H158514   5.834   2.784  14.911  0.0565 -3.2972  2.6423
12341TIP3    H258515   5.702   2.853  14.937  0.4663 -0.3890 -2.2575
12342TIP3   OH258516   3.052   4.982   3.775  0.0645  0.1491  0.0572
12342TIP3    H158517   3.084   4.989   3.865  0.5335  1.1279 -0.1828
12342TIP3    H258518   3.070   4.891   3.750  3.0028  0.7513 -0.1783
12343TIP3   OH258519   2.439   0.183  12.459  0.1935  0.0212 -0.4886
12343TIP3    H158520   2.384   0.253  12.493  0.0764 -0.9657  1.4350
12343TIP3    H258521   2.383   0.105  12.458  1.1903 -0.7428  0.4219
12344TIP3   OH258522   6.342   6.477   2.933 -0.0351 -0.0084  0.1085
12344TIP3    H158523   6.312   6.428   2.856  0.5841 -0.7562  0.3401
12344TIP3    H258524   6.365   6.563   2.898  0.5055 -0.4293 -0.6066
12345TIP3   OH258525   6.502   5.673  12.754 -0.4950  0.2087  0.0620
12345TIP3    H158526   6.515   5.755  12.803  0.2248  0.8016 -1.0963
12345TIP3    H258527   6.547   5.688  12.671 -0.4888 -1.3156 -0.2193
12346TIP3   OH258528   5.626   0.115   2.773  0.0772 -0.1413 -0.2647
12346TIP3    H158529   5.533   0.108   2.754  0.0923  0.3034 -0.5199
12346TIP3    H258530   5.633   0.187   2.835  0.0891 -1.2252  1.0268
12347TIP3   OH258531   5.415   0.719   5.804 -0.0960 -0.5027 -0.0729
12347TIP3    H158532   5.465   0.796   5.778 -0.5642 -0.6804 -1.5285
12347TIP3    H258533   5.327   0.753   5.824  0.1850 -0.4067  1.0703
12348TIP3   OH258534   1.396   6.446  12.824 -1.3092  0.1185 -0.0739
12348TIP3    H158535   1.396   6.431  12.919  1.7183 -0.3229 -0.1094
12348TIP3    H258536   1.402   6.541  12.815  1.1678  0.0140  0.2149
12349TIP3   OH258537   0.229   2.028  12.038 -0.9043  0.3705  0.3956
12349TIP3    H158538   0.223   2.104  12.095  2.5386  1.3485 -0.3938
12349TIP3    H258539   0.195   2.057  11.954  1.4320  1.4751 -0.2211
12350TIP3   OH258540   5.528   6.520  11.863  0.4289 -0.3849  0.0222
12350TIP3    H158541   5.444   6.514  11.817 -0.7946 -0.7186  2.2429
12350TIP3    H258542   5.590   6.551  11.797 -1.4078 -0.3092 -1.6859
12351TIP3   OH258543   2.295   5.123   6.429  0.8678  0.3823  0.4972
12351TIP3    H158544   2.292   5.126   6.525  1.6905  1.0745  0.5115
12351TIP3    H258545   2.208   5.150   6.402  1.2222  2.1391  1.0405
12352TIP3   OH258546   4.961   0.567  16.803  0.6019  0.6100  1.0831
12352TIP3    H158547   4.988   0.581  16.712  2.6004 -1.0222  1.3963
12352TIP3    H258548   4.867   0.587  16.803  0.4893  0.2366 -1.4316
12353TIP3   OH258549   1.971   2.226   2.621 -0.5147  0.3675  0.3584
12353TIP3    H158550   1.885   2.252   2.586 -0.4466  1.7645  1.1814
12353TIP3    H258551   1.983   2.282   2.698  1.0829  0.0752  0.3278
12354TIP3   OH258552   6.392   0.979   2.694 -0.0361  0.3919  0.2744
12354TIP3    H158553   6.438   0.896   2.682  1.1184  1.1942 -1.1134
12354TIP3    H258554   6.444   1.026   2.759  0.1762  0.6187 -0.0538
12355TIP3   OH258555   2.690   6.364  16.215  0.0944 -0.1050 -0.2339
12355TIP3    H158556   2.610   6.340  16.168 -0.4188 -0.0618  0.6064
12355TIP3    H258557   2.660   6.384  16.304  0.8341  1.4390 -0.3306
12356TIP3   OH258558   4.416   5.710   2.126 -0.0203  0.1191 -0.4914
12356TIP3    H158559   4.377   5.798   2.122 -0.4783 -0.0749 -0.2533
12356TIP3    H258560   4.468   5.704   2.046 -0.9517  0.1594 -1.1096
12357TIP3   OH258561   4.516   5.384   1.405 -0.3557 -0.2331 -0.0824
12357TIP3    H158562   4.582   5.442   1.443 -0.3705 -0.7587  0.7738
12357TIP3    H258563   4.433   5.430   1.421 -0.1054  1.1447 -2.4965
12358TIP3   OH258564   3.921   5.869  11.834  0.1121  0.5012 -0.3430
12358TIP3    H158565   3.893   5.942  11.889 -0.7835  0.7484 -1.1210
12358TIP3    H258566   3.940   5.910  11.749  0.2065 -0.0736 -0.5979
12359TIP3   OH258567   1.968   1.202   2.960  0.3568 -0.2326 -0.2445
12359TIP3    H158568   1.959   1.297   2.957 -2.2171 -0.4415 -0.2846
12359TIP3    H258569   2.062   1.187   2.962  0.7925  2.3632  1.2911
12360TIP3   OH258570   5.221   6.727   0.778  0.0058 -0.1915  1.0565
12360TIP3    H158571   5.208   6.727   0.873 -0.0554  1.0742  1.0482
12360TIP3    H258572   5.134   6.738   0.741 -0.0677 -1.4558  0.8279
12361TIP3   OH258573   1.882   3.395   4.079 -0.1816 -0.0341 -0.7661
12361TIP3    H158574   1.834   3.361   4.003  2.1281 -1.4514 -1.6629
12361TIP3    H258575   1.924   3.475   4.046 -0.2148  0.0520 -0.5989
12362TIP3   OH258576   2.352   1.741  12.045  0.0726  0.2449 -0.1686
12362TIP3    H158577   2.334   1.705  12.131  0.5750  0.1985 -0.0831
12362TIP3    H258578   2.404   1.820  12.061  1.1098 -0.3623 -0.4723
12363TIP3   OH258579   0.335   0.586   3.169 -0.3873  0.3001 -0.3572
12363TIP3    H158580   0.345   0.500   3.127 -0.1904 -0.6024  1.5095
12363TIP3    H258581   0.334   0.567   3.262 -2.9669  2.0928  0.0119
12364TIP3   OH258582   2.351   0.344   3.262 -0.0359  0.0348  0.1179
12364TIP3    H158583   2.395   0.426   3.286  0.1303 -0.0478  0.0972
12364TIP3    H258584   2.359   0.340   3.167  0.7671 -0.4585  0.1967
12365TIP3   OH258585   1.736   4.137  13.169 -0.0002 -0.4422 -0.5699
12365TIP3    H158586   1.659   4.174  13.125  0.3732  1.7201  0.5293
12365TIP3    H258587   1.810   4.189  13.137  0.6102 -0.5463  0.6224
12366TIP3   OH258588   5.537   2.190  13.097  0.7206 -0.1136  0.3448
12366TIP3    H158589   5.538   2.285  13.097  0.4377 -0.1066  0.1022
12366TIP3    H258590   5.625   2.164  13.122  1.0076  0.2173 -0.3044
12367TIP3   OH258591   5.266   5.596   2.442  0.2331  0.1725  0.3816
12367TIP3    H158592   5.290   5.504   2.451  0.5879  0.5489  3.6684
12367TIP3    H258593   5.173   5.599   2.464 -0.2856  0.3501 -1.6977
12368TIP3   OH258594   5.153   2.652  13.665  0.8081 -0.1951  0.5619
12368TIP3    H158595   5.127   2.577  13.612 -0.7851 -0.7407  2.0511
12368TIP3    H258596   5.132   2.626  13.755  0.9177  1.7485  1.1735
12369TIP3   OH258597   5.551   4.043  13.554  0.2721  0.1449 -0.0079
12369TIP3    H158598   5.587   4.037  13.643  1.1599  0.5714 -0.3389
12369TIP3    H258599   5.517   4.133  13.549 -3.9281 -1.2341  1.4680
12370TIP3   OH258600   0.320   1.348   4.753  0.2831  0.2392 -1.1153
12370TIP3    H158601   0.240   1.297   4.766  0.0697  0.3139 -2.0516
12370TIP3    H258602   0.381   1.316   4.819 -0.3194 -0.2456 -0.7905
12371TIP3   OH258603   1.531   2.776   5.079  0.2254  0.5456  0.4332
12371TIP3    H158604   1.563   2.866   5.079  1.8027  0.0093  1.9624
12371TIP3    H258605   1.444   2.781   5.039  1.1749  2.4165 -1.5168
12372TIP3   OH258606   1.847   2.280  16.629  0.0476 -0.3420  0.0357
12372TIP3    H158607   1.890   2.272  16.544  1.4890 -0.2380  0.7450
12372TIP3    H258608   1.780   2.211  16.628  0.0936 -0.3946 -1.1322
12373TIP3   OH258609   1.024   0.955   4.729  0.3797 -0.2552 -0.0831
12373TIP3    H158610   1.083   0.996   4.665 -0.3688 -0.0828 -0.6842
12373TIP3    H258611   1.055   0.865   4.736  0.9981 -0.0395 -0.0449
12374TIP3   OH258612   3.709   2.662   5.949 -0.2984 -0.3271 -0.2827
12374TIP3    H158613   3.711   2.573   5.912 -0.5537  0.4710 -2.2537
12374TIP3    H258614   3.789   2.703   5.916 -1.6901  1.1444 -1.8576
12375TIP3   OH258615   6.522   0.290  16.035  0.6080 -0.5049  0.2070
12375TIP3    H158616   6.505   0.308  16.128  2.0516  2.2815  0.0013
12375TIP3    H258617   6.438   0.305  15.992  0.5345  0.7141  0.7526
12376TIP3   OH258618   3.137   1.469   0.171  0.3818 -0.4771 -0.6796
12376TIP3    H158619   3.059   1.455   0.116 -1.1637  1.5069  0.9068
12376TIP3    H258620   3.114   1.428   0.254  1.1255 -0.0846 -0.2830
12377TIP3   OH258621   4.940   2.828   3.424  0.3932  0.1988  0.1398
12377TIP3    H158622   4.997   2.831   3.347  1.5352  0.1309  0.9659
12377TIP3    H258623   4.962   2.746   3.467  0.7130  0.8456  1.2415
12378TIP3   OH258624   2.357   0.265   0.296 -0.3328  0.6099  0.4742
12378TIP3    H158625   2.416   0.324   0.248  1.2984  0.2690  2.0000
12378TIP3    H258626   2.270   0.302   0.281  0.3885  1.9054 -0.7281
12379TIP3   OH258627   0.468   1.523  11.885 -0.5445 -0.4764 -0.0405
12379TIP3    H158628   0.457   1.618  11.884  1.2119 -0.2552  0.4550
12379TIP3    H258629   0.390   1.491  11.930 -0.4981  0.8314  1.0021
12380TIP3   OH258630   0.640   1.043   2.404  0.1103 -0.8519  0.0913
12380TIP3    H158631   0.713   1.097   2.436 -0.1655 -0.2918 -0.2254
12380TIP3    H258632   0.606   1.090   2.328  0.1791 -1.7223 -0.4871
12381TIP3   OH258633   3.043   4.280   5.002  0.1149 -0.8265 -0.4362
12381TIP3    H158634   3.001   4.302   5.085 -0.6171 -0.6059 -0.8590
12381TIP3    H258635   3.136   4.302   5.015 -0.2406  0.5208 -0.1434
12382TIP3   OH258636   0.742   3.175   1.605 -0.3173  0.9932 -0.1387
12382TIP3    H158637   0.656   3.161   1.647 -1.2054  1.9743 -1.5808
12382TIP3    H258638   0.796   3.212   1.675 -1.3517  1.2470  0.5499
12383TIP3   OH258639   0.528   2.801  12.935 -0.1198 -0.0862 -0.5867
12383TIP3    H158640   0.461   2.856  12.895 -0.5005 -0.2080 -0.1276
12383TIP3    H258641   0.497   2.712  12.920  0.3838 -0.1732 -1.1375
12384TIP3   OH258642   6.521   1.274  10.286 -0.2262  0.0989  0.3580
12384TIP3    H158643   6.563   1.190  10.307  2.4582  1.0470 -1.1165
12384TIP3    H258644   6.544   1.331  10.360 -1.0751 -0.1038  0.7873
12385TIP3   OH258645   6.735   2.607   4.556  0.2513  0.6490  0.1704
12385TIP3    H158646   6.716   2.700   4.543  1.6496  0.8920 -0.1681
12385TIP3    H258647   6.736   2.596   4.651 -0.3559  0.8844  0.2073
12386TIP3   OH258648   0.109   0.640   6.885  0.3645 -0.0782  0.3024
12386TIP3    H158649   0.026   0.597   6.904  0.6244 -0.8110 -0.1884
12386TIP3    H258650   0.111   0.647   6.789  0.0200  1.6530  0.4058
12387TIP3   OH258651   4.499   4.315  16.059  0.5493  0.2148  0.1917
12387TIP3    H158652   4.526   4.238  16.109  1.3674  0.4022  0.0445
12387TIP3    H258653   4.406   4.326  16.080  0.4856 -0.6763  0.3895
12388TIP3   OH258654   3.409   5.228   6.405 -0.0800  0.3833  0.1562
12388TIP3    H158655   3.468   5.215   6.480 -1.9813 -0.4224  1.5402
12388TIP3    H258656   3.433   5.314   6.370  4.4285 -1.4245 -1.6092
12389TIP3   OH258657   4.725   2.664   0.714 -0.4388 -1.1406  0.7809
12389TIP3    H158658   4.651   2.691   0.770 -1.3229 -0.7359 -0.5657
12389TIP3    H258659   4.801   2.673   0.771 -1.2577 -0.1711  1.7692
12390TIP3   OH258660   4.150   4.670  13.103  0.0506 -0.4102 -0.1429
12390TIP3    H158661   4.130   4.700  13.191  0.3126  0.1814 -0.2823
12390TIP3    H258662   4.176   4.749  13.056  1.0117 -0.8923 -0.4385
12391TIP3   OH258663   0.256   3.129  12.004 -0.5959 -0.4387 -0.0423
12391TIP3    H158664   0.322   3.104  11.939 -0.0262  0.4218  0.1950
12391TIP3    H258665   0.177   3.148  11.953  0.1171  1.1680 -0.5918
12392TIP3   OH258666   1.760   1.120  11.511  0.5167 -0.0548 -0.4458
12392TIP3    H158667   1.667   1.112  11.488  0.2257  1.0954  0.2682
12392TIP3    H258668   1.769   1.068  11.590  1.2081 -2.8284 -2.2599
12393TIP3   OH258669   3.089   0.836  11.433  0.5816 -0.0474 -0.0730
12393TIP3    H158670   3.136   0.820  11.515  0.5261 -1.6491 -0.3374
12393TIP3    H258671   3.022   0.900  11.456  2.6393  1.9915  0.3944
12394TIP3   OH258672   3.914   4.783   3.423  0.3364  0.5104 -0.1620
12394TIP3    H158673   4.004   4.783   3.454  0.3162 -1.9841  0.0101
12394TIP3    H258674   3.900   4.872   3.389  2.5631  1.1744  0.5837
12395TIP3   OH258675   6.130   1.373   4.917 -0.2074  0.0233 -0.1896
12395TIP3    H158676   6.167   1.285   4.923 -2.0269 -0.7136  0.8283
12395TIP3    H258677   6.160   1.407   4.833  1.6212 -1.0405  0.0154
12396TIP3   OH258678   0.559   5.677   0.377  0.0800 -0.9349  0.3247
12396TIP3    H158679   0.609   5.713   0.305  0.7799 -2.4697  0.0171
12396TIP3    H258680   0.468   5.678   0.347  0.3742 -1.6053 -0.6010
12397TIP3   OH258681   2.119   3.810   5.956 -0.1932 -0.3851  0.5336
12397TIP3    H158682   2.129   3.715   5.953 -1.1249 -0.4740  0.2357
12397TIP3    H258683   2.191   3.844   5.903 -1.7268 -1.0479 -2.0485
12398TIP3   OH258684   1.313   3.356  12.670 -0.6450  0.1016  0.3952
12398TIP3    H158685   1.327   3.380  12.761  0.8814  1.4888 -0.1687
12398TIP3    H258686   1.255   3.425  12.636  0.2105  0.5890 -0.1086
12399TIP3   OH258687   5.402   6.132   5.246  0.2990  0.0284  0.6731
12399TIP3    H158688   5.412   6.223   5.217 -1.7756  0.3295  0.7824
12399TIP3    H258689   5.440   6.080   5.176 -1.2277  0.8966 -0.8394
12400TIP3   OH258690   6.220   1.499   5.162  0.0589  0.6287  0.1355
12400TIP3    H158691   6.142   1.535   5.204  0.2789  0.0356  1.0649
12400TIP3    H258692   6.187   1.446   5.090 -0.4248 -0.1689  0.9493
12401TIP3   OH258693   6.140   4.700   5.011  0.1523  0.3212  0.1359
12401TIP3    H158694   6.054   4.739   4.994 -0.2467  0.2142  1.7820
12401TIP3    H258695   6.158   4.646   4.934 -1.3144  0.2672 -0.1844
12402TIP3   OH258696   5.309   3.011  11.328 -0.1717  0.0560 -0.4074
12402TIP3    H158697   5.216   3.030  11.344 -0.6258 -1.7113 -0.8783
12402TIP3    H258698   5.323   3.037  11.236 -0.9242 -2.2634 -1.2147
12403TIP3   OH258699   0.717   6.815   0.433  0.1687  0.1829  0.1056
12403TIP3    H158700   0.738   6.904   0.460 -0.1064  0.0177  0.8724
12403TIP3    H258701   0.626   6.820   0.402 -0.0901  0.0318  0.8212
12404TIP3   OH258702   1.847   4.700  16.080 -0.0289  0.3057  0.3376
12404TIP3    H158703   1.905   4.627  16.060  0.0598  0.1469  1.1552
12404TIP3    H258704   1.823   4.736  15.995  0.9237  0.1022 -0.0214
12405TIP3   OH258705   6.592   0.778  12.333  0.8268  0.5307  0.3725
12405TIP3    H158706   6.571   0.691  12.369  1.1028 -0.3554 -1.5301
12405TIP3    H258707   6.639   0.822  12.404  2.2678 -1.5511  0.7797
12406TIP3   OH258708   0.575   0.689   6.561  0.3796  0.4405  0.0347
12406TIP3    H158709   0.553   0.778   6.590 -1.9800 -0.4581  1.0775
12406TIP3    H258710   0.525   0.677   6.481 -0.1693 -0.3632  0.5008
12407TIP3   OH258711   5.216   0.079   2.525 -0.3333 -0.3194 -0.1779
12407TIP3    H158712   5.172  -0.004   2.540 -1.4190  0.0612 -1.1241
12407TIP3    H258713   5.291   0.057   2.471 -1.3622 -0.5330 -1.5586
12408TIP3   OH258714   1.279   5.991   2.529  0.5414 -0.2882  0.3360
12408TIP3    H158715   1.322   6.034   2.456 -1.2334 -0.1696 -0.6551
12408TIP3    H258716   1.264   6.060   2.593 -0.1321  0.0896 -0.2322
12409TIP3   OH258717   6.175   6.276   0.567 -0.1123 -0.4204 -0.0813
12409TIP3    H158718   6.241   6.329   0.524 -1.2609  0.6854 -0.4952
12409TIP3    H258719   6.166   6.199   0.511 -0.6882  0.4181 -1.1607
12410TIP3   OH258720   0.648   3.690  13.716 -0.5064  0.1448  0.1080
12410TIP3    H158721   0.691   3.767  13.753  0.8311 -0.6634  0.2788
12410TIP3    H258722   0.568   3.723  13.675  0.3710  1.6923 -0.3578
12411TIP3   OH258723   1.105   5.447   0.621  0.0564  0.1067 -0.1046
12411TIP3    H158724   1.172   5.503   0.582 -0.1966 -0.5679 -1.5172
12411TIP3    H258725   1.022   5.489   0.598 -0.0726  0.0616  0.2695
12412TIP3   OH258726   0.408   1.716  14.106 -0.9196  0.1462 -0.0065
12412TIP3    H158727   0.313   1.718  14.101 -0.9168  0.1960 -0.0437
12412TIP3    H258728   0.431   1.623  14.099 -0.8425  0.3089 -2.7550
12413TIP3   OH258729   5.318   3.713   4.162  0.1791  0.4683 -0.3337
12413TIP3    H158730   5.283   3.774   4.097  0.9696  0.8729 -0.3794
12413TIP3    H258731   5.329   3.766   4.241  1.9492  0.6613 -0.6994
12414TIP3   OH258732   5.343   6.622  11.207 -0.4477  0.1980 -0.4536
12414TIP3    H158733   5.371   6.622  11.116  1.8838  1.3848  0.2353
12414TIP3    H258734   5.406   6.678  11.252 -1.9788  0.2102  1.7706
12415TIP3   OH258735   5.140   4.359   5.844  0.6572 -0.6162  0.0411
12415TIP3    H158736   5.144   4.374   5.749  0.2787 -0.4139  0.0570
12415TIP3    H258737   5.224   4.317   5.865 -0.1080 -2.5327 -0.7128
12416TIP3   OH258738   1.421   0.678  14.748  0.9816 -0.0090  0.3197
12416TIP3    H158739   1.454   0.730  14.821  1.8404  1.6854 -1.2520
12416TIP3    H258740   1.498   0.633  14.713  0.6086 -0.6626  0.3229
12417TIP3   OH258741   0.605   0.953   4.967  0.1329 -0.9272 -0.1575
12417TIP3    H158742   0.649   0.919   5.045  1.2728 -0.2070 -0.4833
12417TIP3    H258743   0.642   1.040   4.953 -1.5746 -0.2057 -0.3025
12418TIP3   OH258744   4.141   4.884   5.018 -0.7511  0.5842 -0.3286
12418TIP3    H158745   4.196   4.960   4.997  1.8941 -1.1360  0.1901
12418TIP3    H258746   4.203   4.811   5.025 -3.3320 -1.7929 -1.6328
12419TIP3   OH258747   6.735   2.228  15.992  0.3629  0.2379  0.7268
12419TIP3    H158748   6.642   2.221  16.013  0.3126  2.0749  1.2327
12419TIP3    H258749   6.750   2.161  15.925 -1.5053  0.4887  0.0280
12420TIP3   OH258750   5.229   1.210   1.389  0.3618  0.2450  0.1784
12420TIP3    H158751   5.319   1.236   1.410 -0.6747  1.8514  2.8629
12420TIP3    H258752   5.201   1.271   1.321  1.2642 -0.2463 -0.6490
12421TIP3   OH258753   3.029   0.945  11.860  0.0334 -0.1406 -0.1023
12421TIP3    H158754   3.085   0.889  11.807  1.1875  0.0336  0.9322
12421TIP3    H258755   3.089   0.998  11.912 -1.0710  0.7576  0.2864
12422TIP3   OH258756   2.509   5.211   1.920  0.0967 -0.8701  1.0091
12422TIP3    H158757   2.487   5.292   1.874  1.5000  0.1241  2.0460
12422TIP3    H258758   2.441   5.149   1.894 -1.4195  0.8668  0.7923
12423TIP3   OH258759   4.364   1.694  16.197  0.1587 -0.3108 -0.2277
12423TIP3    H158760   4.325   1.779  16.176  0.7519 -0.0795 -0.4124
12423TIP3    H258761   4.317   1.631  16.143 -0.5720 -0.1541  0.2203
12424TIP3   OH258762   2.821   4.617   0.940 -0.4290 -0.0075  0.3154
12424TIP3    H158763   2.817   4.522   0.945  1.5370 -0.2126 -1.0803
12424TIP3    H258764   2.817   4.646   1.031 -2.0029 -1.3629  0.6975
12425TIP3   OH258765   4.514   0.222  15.654 -0.2871  0.3026  0.5368
12425TIP3    H158766   4.466   0.235  15.735 -3.2836 -1.9479 -0.8077
12425TIP3    H258767   4.459   0.262  15.586  1.9919  1.8166 -0.5160
12426TIP3   OH258768   2.586   0.650   0.320 -0.1417  0.5296 -0.1784
12426TIP3    H158769   2.619   0.679   0.405 -0.0352  0.8590 -0.3297
12426TIP3    H258770   2.660   0.606   0.279 -0.2742  0.1312  0.0114
12427TIP3   OH258771   0.814   0.120   0.716  0.7291  0.0489  0.0112
12427TIP3    H158772   0.771   0.204   0.704  0.4148 -0.1023  0.0641
12427TIP3    H258773   0.782   0.065   0.644  0.2208 -0.3056  0.4993
12428TIP3   OH258774   2.094   0.556   2.278 -0.1110  0.1540  0.0745
12428TIP3    H158775   2.135   0.476   2.313 -1.1035 -0.8739 -1.0453
12428TIP3    H258776   2.163   0.622   2.283  0.6492 -0.7100  1.2775
12429TIP3   OH258777   5.980   3.668  11.320 -0.2109  0.2056 -0.5187
12429TIP3    H158778   6.032   3.664  11.400  0.4189  0.7448 -0.9026
12429TIP3    H258779   6.027   3.615  11.257 -0.9221 -0.5568 -0.4190
12430TIP3   OH258780   0.051   1.450  14.350 -0.7744  0.4402 -0.2495
12430TIP3    H158781   0.017   1.361  14.354 -1.1977  0.6183  0.2213
12430TIP3    H258782  -0.011   1.497  14.294 -1.5538  0.8697  0.9597
12431TIP3   OH258783   2.893   4.503  10.305  0.1952 -0.0615 -0.1344
12431TIP3    H158784   2.923   4.413  10.316  0.0753 -0.0690  0.1420
12431TIP3    H258785   2.969   4.551  10.271 -0.3301 -0.7078 -2.3337
12432TIP3   OH258786   5.151   3.998  15.214 -0.1267  0.0100  0.6791
12432TIP3    H158787   5.110   4.084  15.212 -1.4215 -0.6305 -0.9465
12432TIP3    H258788   5.131   3.964  15.301 -0.9231  0.7001  0.7689
12433TIP3   OH258789   2.172   0.299   5.669  0.2651  0.0473  0.1903
12433TIP3    H158790   2.203   0.326   5.755  0.6471 -2.2209  0.8011
12433TIP3    H258791   2.249   0.310   5.612  0.2858  0.6262  0.3234
12434TIP3   OH258792   4.012   6.800   0.786  0.2767 -0.2574 -0.2859
12434TIP3    H158793   4.097   6.838   0.807  0.4897 -1.3058  0.7861
12434TIP3    H258794   4.032   6.710   0.758 -0.5423 -0.8324  0.9116
12435TIP3   OH258795   4.366   4.443   2.292 -0.5500 -0.0041 -0.3004
12435TIP3    H158796   4.382   4.399   2.209 -2.5334  1.4256 -1.4911
12435TIP3    H258797   4.274   4.426   2.311  0.1269 -1.1537  2.1382
12436TIP3   OH258798   6.472   5.027   1.767 -0.5190 -0.0551 -0.2508
12436TIP3    H158799   6.480   4.932   1.758 -1.4772 -0.0799 -0.8740
12436TIP3    H258800   6.393   5.050   1.719 -0.4473  1.0318  0.1184
12437TIP3   OH258801   5.264   3.659  13.708 -0.2544  0.7378 -0.3618
12437TIP3    H158802   5.294   3.744  13.677 -0.3196  0.0443 -2.4372
12437TIP3    H258803   5.331   3.630  13.770 -0.6080  2.6032  0.9094
12438TIP3   OH258804   5.803   4.559  17.128  0.1729  0.4584  0.1166
12438TIP3    H158805   5.865   4.549  17.056  0.4105  0.7203  0.2818
12438TIP3    H258806   5.811   4.479  17.178 -0.0600  0.2358 -0.2033
12439TIP3   OH258807   0.851   1.336   0.832 -0.2171  0.5568 -0.0110
12439TIP3    H158808   0.925   1.280   0.810  0.2531  0.7295  1.0534
12439TIP3    H258809   0.799   1.342   0.752 -1.8077 -3.6809  0.6223
12440TIP3   OH258810   0.043   3.934   2.452  0.1562 -0.0817  0.1588
12440TIP3    H158811   0.113   3.970   2.398  0.1176 -1.0146 -0.5225
12440TIP3    H258812  -0.021   3.900   2.389 -1.3354  1.5425  0.7446
12441TIP3   OH258813   5.126   4.995   2.531  0.3389  0.2693  0.2119
12441TIP3    H158814   5.184   5.069   2.546  0.0548  0.1413  2.1186
12441TIP3    H258815   5.184   4.923   2.505  0.3374  1.9038 -4.9184
12442TIP3   OH258816   5.682   3.271  12.552 -1.3415  0.4694 -0.1027
12442TIP3    H158817   5.661   3.363  12.537 -0.7639  0.5313 -0.5954
12442TIP3    H258818   5.598   3.229  12.570 -1.4790  1.2819  1.1542
12443TIP3   OH258819   6.252   0.709  13.073 -0.1381  0.3334 -0.0834
12443TIP3    H158820   6.176   0.653  13.053 -1.1782  1.6426  0.1076
12443TIP3    H258821   6.326   0.649  13.073 -1.2613 -1.1021  0.3469
12444TIP3   OH258822   5.814   0.400  16.313 -0.4691 -0.4436 -0.1901
12444TIP3    H158823   5.770   0.352  16.244  0.1779 -1.4254  0.0711
12444TIP3    H258824   5.900   0.421  16.277 -1.6442  2.8540 -1.3008
12445TIP3   OH258825   0.527   0.418  12.756 -0.1963 -0.2772  0.0001
12445TIP3    H158826   0.540   0.510  12.779 -0.2750 -0.1540 -0.4404
12445TIP3    H258827   0.494   0.420  12.666  1.8053 -0.8213 -0.7793
12446TIP3   OH258828   5.869   6.616  17.290  0.4780  0.7779 -0.3861
12446TIP3    H158829   5.951   6.622  17.339 -0.9920  0.8853  2.1184
12446TIP3    H258830   5.848   6.707  17.268  2.2403  0.5862 -3.2226
12447TIP3   OH258831   1.458   5.560   0.892  0.3805  0.2981  0.3427
12447TIP3    H158832   1.364   5.579   0.896  0.3873  0.7245 -1.1615
12447TIP3    H258833   1.498   5.627   0.948  0.0045  1.9309 -1.2828
12448TIP3   OH258834   4.195   0.842  16.204  0.1246 -0.3280 -0.6891
12448TIP3    H158835   4.125   0.898  16.236 -0.2879 -0.9526 -0.4936
12448TIP3    H258836   4.152   0.759  16.182  0.9933 -1.1685  0.6851
12449TIP3   OH258837   4.521   5.511   6.783 -0.6700 -0.2620 -0.3028
12449TIP3    H158838   4.610   5.489   6.754 -0.0987  1.7796 -0.1677
12449TIP3    H258839   4.492   5.434   6.831  1.0566 -0.9235 -0.2829
12450TIP3   OH258840   3.361   0.386   5.209 -0.1771 -0.0956  0.0469
12450TIP3    H158841   3.377   0.311   5.266  0.0608  1.1761  1.6748
12450TIP3    H258842   3.319   0.451   5.266 -2.0294  0.3569 -1.7614
12451TIP3   OH258843   1.893   0.175  14.570 -0.4262 -0.1960 -0.0774
12451TIP3    H158844   1.801   0.148  14.560 -0.6658  0.9878 -1.3666
12451TIP3    H258845   1.938   0.132  14.498 -0.0872 -0.2739  0.1829
12452TIP3   OH258846   5.869   0.143   1.215  0.0719  0.1602 -0.6145
12452TIP3    H158847   5.893   0.083   1.286  0.6151  2.0904  0.8779
12452TIP3    H258848   5.938   0.132   1.150  1.7423  1.2229  0.9279
12453TIP3   OH258849   2.245   4.710   2.951  0.1575 -0.2694  0.1791
12453TIP3    H158850   2.289   4.644   3.004 -1.1495  0.4631  2.2584
12453TIP3    H258851   2.156   4.676   2.939  0.5471 -0.5957 -1.8672
12454TIP3   OH258852   1.466   0.913   0.977 -0.1611  0.0044  0.1948
12454TIP3    H158853   1.485   1.006   0.991 -2.3150  0.4592  0.3583
12454TIP3    H258854   1.505   0.869   1.052 -0.0639  0.9114  0.6873
12455TIP3   OH258855   6.375   1.974  14.352  0.0429 -0.2534 -0.6355
12455TIP3    H158856   6.429   1.962  14.430 -0.9675 -1.0053 -0.0438
12455TIP3    H258857   6.292   2.008  14.385 -0.3625 -0.4986 -1.3942
12456TIP3   OH258858   5.029   5.231  10.316 -0.1019  0.2856 -0.1043
12456TIP3    H158859   4.965   5.213  10.385  1.6916  0.3494  1.6391
12456TIP3    H258860   5.070   5.146  10.299  0.9084  0.6613  0.4158
12457TIP3   OH258861   0.171   5.339  17.201  0.1668 -0.3239 -0.1427
12457TIP3    H158862   0.232   5.312  17.133 -0.0030 -2.3330  0.4633
12457TIP3    H258863   0.123   5.259  17.223 -2.1680  1.0494 -0.0751
12458TIP3   OH258864   2.332   3.815  16.905 -0.1768  0.3244  0.1395
12458TIP3    H158865   2.276   3.783  16.976  0.6472  1.4102  1.3148
12458TIP3    H258866   2.288   3.894  16.874 -0.5756 -0.1907 -0.6304
12459TIP3   OH258867   6.581   5.431   3.310  0.5698 -0.0087  0.0195
12459TIP3    H158868   6.605   5.410   3.401 -0.4741 -1.0321  0.0663
12459TIP3    H258869   6.488   5.413   3.305  0.9766 -1.7855 -1.7628
12460TIP3   OH258870   5.688   4.697   3.410 -0.6074 -0.4262 -0.2735
12460TIP3    H158871   5.629   4.693   3.335 -0.5216  1.5856 -0.4733
12460TIP3    H258872   5.646   4.643   3.477 -1.9620 -0.1757 -0.9025
12461TIP3   OH258873   2.307   5.460   2.485  0.2792  0.0814 -0.2673
12461TIP3    H158874   2.376   5.443   2.422 -0.8144 -0.9306 -1.2273
12461TIP3    H258875   2.234   5.404   2.457 -0.0586 -0.7779  2.1829
12462TIP3   OH258876   6.441   4.576   4.517  0.5586  0.2051 -0.0412
12462TIP3    H158877   6.523   4.543   4.481  1.0568 -0.8231  1.9729
12462TIP3    H258878   6.462   4.664   4.549  0.7630  0.1020  0.1066
12463TIP3   OH258879   3.827   3.145  14.816  0.2410 -0.5229 -0.0190
12463TIP3    H158880   3.739   3.167  14.846  0.7651 -1.1832  2.0820
12463TIP3    H258881   3.814   3.087  14.741 -1.0893 -0.6458  0.3077
12464TIP3   OH258882   2.338   5.552  16.277  0.6708  0.2574  0.4043
12464TIP3    H158883   2.259   5.504  16.252  1.2189 -1.1570  1.3511
12464TIP3    H258884   2.308   5.642  16.292 -0.0770  0.6747 -3.0551
12465TIP3   OH258885   4.528   1.988  15.074 -0.3982  1.2766 -0.0917
12465TIP3    H158886   4.585   2.018  15.145 -0.8525  1.2267  0.2984
12465TIP3    H258887   4.567   1.906  15.044  0.5548  1.9922 -0.8125
12466TIP3   OH258888   0.718   6.017  11.842  0.1688 -0.5431  0.3396
12466TIP3    H158889   0.668   6.020  11.924  0.2163 -1.4426  0.4017
12466TIP3    H258890   0.762   6.102  11.838 -0.6075 -0.1154  0.7610
12467TIP3   OH258891   2.662   1.222  12.864  0.2372  0.2649  0.4453
12467TIP3    H158892   2.582   1.256  12.905  0.5330  1.4790  0.0106
12467TIP3    H258893   2.639   1.212  12.772 -0.0970 -1.4986  0.6814
12468TIP3   OH258894   0.226   3.495  11.545 -0.1800  0.0764  0.1496
12468TIP3    H158895   0.175   3.454  11.616 -1.2268  1.6268  0.3046
12468TIP3    H258896   0.190   3.583  11.537 -0.7181 -0.3967 -2.9966
12469TIP3   OH258897   2.941   0.944   0.760 -0.0117  0.3000  0.6960
12469TIP3    H158898   3.028   0.981   0.749  0.1490 -0.2848 -0.1161
12469TIP3    H258899   2.954   0.850   0.750 -0.5860  0.1178  1.5809
12470TIP3   OH258900   0.614   4.704   5.883  0.1024  0.1452 -0.4880
12470TIP3    H158901   0.522   4.709   5.910 -0.0203 -0.4058 -0.7932
12470TIP3    H258902   0.660   4.670   5.959  0.0161  0.1846 -0.4185
12471TIP3   OH258903   4.396   4.566  14.808 -0.4043 -0.2382 -0.2404
12471TIP3    H158904   4.439   4.545  14.891 -1.0183  1.2113  0.4547
12471TIP3    H258905   4.306   4.586  14.832 -0.2677  1.4546 -1.1022
12472TIP3   OH258906   3.853   1.584   1.764 -0.2770 -0.2972 -0.0963
12472TIP3    H158907   3.932   1.532   1.778 -0.2629 -0.2624 -0.0441
12472TIP3    H258908   3.873   1.669   1.804  0.3999  0.3753 -1.8278
12473TIP3   OH258909   4.338   0.181   4.995 -0.2201 -0.7662  0.7128
12473TIP3    H158910   4.268   0.246   4.985  0.1519 -0.4961 -0.2441
12473TIP3    H258911   4.301   0.114   5.052 -1.1446 -0.4602  0.4832
12474TIP3   OH258912   0.467   3.146   4.104  0.2073 -0.0618  0.6438
12474TIP3    H158913   0.401   3.093   4.059 -0.3635 -0.7077  2.2039
12474TIP3    H258914   0.417   3.212   4.151  0.6015 -0.9653  2.3798
12475TIP3   OH258915   6.422   6.681   5.231 -0.7920 -0.3770 -0.5082
12475TIP3    H158916   6.447   6.717   5.316  1.1352 -1.5711 -0.5233
12475TIP3    H258917   6.355   6.740   5.198 -1.2676  0.3429  1.6513
12476TIP3   OH258918   2.267   1.812  13.703 -0.1201  0.3672  0.2224
12476TIP3    H158919   2.291   1.900  13.733  2.1753  0.9601 -3.0934
12476TIP3    H258920   2.350   1.764  13.699 -1.0153 -1.1750 -0.3618
12477TIP3   OH258921   0.611   4.736  17.002 -0.0726 -0.0375 -0.1398
12477TIP3    H158922   0.527   4.721  16.960 -0.4616 -0.1633  0.6767
12477TIP3    H258923   0.668   4.766  16.931 -0.9953  0.7396 -0.5660
12478TIP3   OH258924   6.552   1.167  15.398 -0.2827  0.2126 -0.3710
12478TIP3    H158925   6.489   1.229  15.435  0.1476  0.3276  0.1696
12478TIP3    H258926   6.500   1.114  15.337 -0.9928  0.0187  0.3940
12479TIP3   OH258927   2.150   4.610   1.854  0.5977  0.1039 -0.0047
12479TIP3    H158928   2.175   4.658   1.775  0.5168  0.9743  0.4956
12479TIP3    H258929   2.211   4.537   1.858 -1.7169 -2.0967 -2.8866
12480TIP3   OH258930   3.056   1.570  14.576 -0.2269  0.0792 -0.1378
12480TIP3    H158931   3.088   1.654  14.544 -0.3254 -0.0307 -0.5247
12480TIP3    H258932   2.980   1.592  14.630 -2.0569  0.0363 -2.5856
12481TIP3   OH258933   3.527   3.209  12.740  1.6177 -0.5066 -0.5750
12481TIP3    H158934   3.587   3.259  12.797  0.0052  2.3064 -1.2345
12481TIP3    H258935   3.517   3.265  12.663 -1.9976 -0.8299 -0.3858
12482TIP3   OH258936   2.002   0.857  14.664  0.3339  0.3185 -0.1820
12482TIP3    H158937   2.016   0.909  14.743  0.1501 -0.0096  0.0647
12482TIP3    H258938   2.015   0.767  14.691  0.9838  0.2517 -0.6901
12483TIP3   OH258939   4.353   6.295   2.209  0.3202  0.2496  0.8003
12483TIP3    H158940   4.449   6.293   2.213  0.5293  1.8761 -2.3393
12483TIP3    H258941   4.331   6.388   2.205 -1.1890 -0.1954 -1.8497
12484TIP3   OH258942   2.304   3.580   3.898  0.1603 -0.6920 -0.3175
12484TIP3    H158943   2.283   3.672   3.913  0.5366 -0.3592 -1.7183
12484TIP3    H258944   2.395   3.580   3.869 -0.0233 -1.4420 -0.9171
12485TIP3   OH258945   6.127   4.348   4.119  0.0602 -0.1999 -0.8205
12485TIP3    H158946   6.210   4.393   4.135  0.0981 -0.7421  0.6144
12485TIP3    H258947   6.133   4.318   4.028  1.2645  0.1243 -0.8567
12486TIP3   OH258948   1.888   5.526   4.781  0.0952 -0.0832  0.0323
12486TIP3    H158949   1.873   5.517   4.875 -2.8567  0.7997 -0.2824
12486TIP3    H258950   1.941   5.450   4.757  2.4564  0.6695  2.6981
12487TIP3   OH258951   1.265   1.786   1.625  0.4365  0.1676 -0.0635
12487TIP3    H158952   1.197   1.736   1.580 -2.0840  0.8944  2.7336
12487TIP3    H258953   1.321   1.720   1.665  0.1737 -0.4385 -0.6793
12488TIP3   OH258954   3.853   3.110   1.531  0.0540  0.2057 -0.0756
12488TIP3    H158955   3.900   3.055   1.594 -1.5136  0.4062  1.3047
12488TIP3    H258956   3.798   3.048   1.482 -0.3325  0.2996  0.2322
12489TIP3   OH258957   4.779   6.601  15.736 -0.4531 -0.2526  0.3890
12489TIP3    H158958   4.755   6.543  15.664  2.1149 -1.0650  0.0987
12489TIP3    H258959   4.790   6.542  15.811 -1.4555  0.3658  1.0285
12490TIP3   OH258960   4.812   3.621  14.167  0.1999  0.6102  0.0960
12490TIP3    H158961   4.776   3.702  14.131 -0.2173  0.1666 -0.4822
12490TIP3    H258962   4.833   3.568  14.091 -0.3371 -0.1775  0.4984
12491TIP3   OH258963   5.521   0.787  12.801 -0.5455 -0.3630 -0.0045
12491TIP3    H158964   5.513   0.712  12.742  1.2775 -0.5376 -0.0521
12491TIP3    H258965   5.453   0.773  12.867 -0.8623 -1.5476 -0.5700
12492TIP3   OH258966   4.247   6.401  12.518  0.1233 -0.6581  0.2483
12492TIP3    H158967   4.311   6.443  12.460  0.0973 -1.1720 -0.1470
12492TIP3    H258968   4.189   6.353  12.460  0.4960 -1.7206  0.7446
12493TIP3   OH258969   5.070   5.456   2.972 -0.2891 -0.0248 -0.3366
12493TIP3    H158970   5.000   5.454   2.907 -0.5989 -1.6331  0.0314
12493TIP3    H258971   5.053   5.536   3.023 -1.0674  0.2999 -1.0950
12494TIP3   OH258972   6.314   2.856   5.436  0.2154 -0.6016  0.7956
12494TIP3    H158973   6.255   2.928   5.413  2.0890 -0.0598 -2.6841
12494TIP3    H258974   6.280   2.781   5.386  0.8173 -0.9903  0.9644
12495TIP3   OH258975   1.213   4.238   1.207  0.4262 -0.2066 -0.3384
12495TIP3    H158976   1.260   4.211   1.286 -0.9461  0.6281  0.7995
12495TIP3    H258977   1.218   4.333   1.207  0.1428 -0.1884 -1.0836
12496TIP3   OH258978   4.213   4.509   2.664 -0.0360  0.3737  0.3445
12496TIP3    H158979   4.169   4.428   2.638  0.2557  0.0973  0.7158
12496TIP3    H258980   4.206   4.565   2.587 -0.0955 -0.0645  0.0280
12497TIP3   OH258981   6.763   4.135  16.560  0.1683 -0.2264 -0.1030
12497TIP3    H158982   6.769   4.093  16.645 -0.3196  0.6953  0.3900
12497TIP3    H258983   6.766   4.229  16.579  0.7438 -0.0229 -1.1499
12498TIP3   OH258984   2.185   3.821   0.034 -0.0782 -0.0040  0.4276
12498TIP3    H158985   2.137   3.904   0.045 -0.6028 -0.5018  2.0952
12498TIP3    H258986   2.266   3.846  -0.010 -0.6799  1.2471 -0.0014
12499TIP3   OH258987   1.359   6.316   3.792 -0.8114 -0.1505 -0.2347
12499TIP3    H158988   1.410   6.377   3.739 -0.1662  1.0255  1.7023
12499TIP3    H258989   1.289   6.369   3.829 -2.4235 -1.3817 -1.4348
12500TIP3   OH258990   1.392   6.381   0.518 -0.0663  0.7160 -0.8737
12500TIP3    H158991   1.428   6.388   0.429 -0.1892 -0.0397 -0.9882
12500TIP3    H258992   1.415   6.292   0.545  2.0233  1.7043  0.7491
12501TIP3   OH258993   3.622   1.149  16.779  0.0596  0.0318  0.0407
12501TIP3    H158994   3.604   1.241  16.798 -0.7281  0.3945 -2.3450
12501TIP3    H258995   3.703   1.130  16.826 -0.0470  1.7827  0.9825
12502TIP3   OH258996   4.366   5.944  11.920  0.0171  0.2149  0.6261
12502TIP3    H158997   4.407   5.894  11.991  2.7394  0.5670 -0.6058
12502TIP3    H258998   4.343   5.879  11.855  0.3106  0.1834  0.5506
12503TIP3   OH258999   3.169   3.131  12.218 -0.0355 -0.3764 -0.4341
12503TIP3    H159000   3.234   3.154  12.284 -0.0718 -0.1629 -0.4698
12503TIP3    H259001   3.103   3.081  12.265  0.4961 -1.1837 -0.5385
12504TIP3   OH259002   1.388   5.607   0.308 -0.3177 -0.0657 -0.3665
12504TIP3    H159003   1.482   5.601   0.322 -0.2709  0.3664 -0.4911
12504TIP3    H259004   1.372   5.700   0.291 -0.5219 -0.4092 -2.1221
12505TIP3   OH259005   1.180   2.535  14.938 -0.2632 -0.4101  0.0866
12505TIP3    H159006   1.248   2.496  14.993 -1.0929 -0.9249  0.7623
12505TIP3    H259007   1.188   2.630  14.952 -0.8093 -0.5662  1.5172
12506TIP3   OH259008   1.914   4.300   3.530  0.5953  0.5183  0.2177
12506TIP3    H159009   1.906   4.206   3.514  1.6500  0.4676 -0.0246
12506TIP3    H259010   2.004   4.321   3.507  0.1787  1.7221 -0.3797
12507TIP3   OH259011   1.174   2.850  12.555 -0.7805 -0.0682  0.4440
12507TIP3    H159012   1.198   2.775  12.502 -1.8765  0.4142 -0.7821
12507TIP3    H259013   1.116   2.815  12.622 -0.3073 -0.5139  0.6141
12508TIP3   OH259014   4.967   3.503   4.536 -0.0401 -0.5972  0.0283
12508TIP3    H159015   5.017   3.473   4.612 -1.0403 -0.0578  0.9174
12508TIP3    H259016   4.878   3.513   4.569 -0.6952 -1.3227 -1.4701
12509TIP3   OH259017   1.011   0.727   0.517 -0.0505 -0.0245  0.0171
12509TIP3    H159018   0.929   0.680   0.535 -0.3058  0.7792  0.9691
12509TIP3    H259019   0.996   0.770   0.433 -1.2273  1.4706  0.9648
12510TIP3   OH259020   6.350   4.620  11.389 -0.1861  0.1500 -0.0751
12510TIP3    H159021   6.259   4.611  11.418 -0.2343 -0.4685 -0.4318
12510TIP3    H259022   6.399   4.637  11.470 -0.5262 -0.1530  0.1922
12511TIP3   OH259023   4.437   3.136   1.052  0.0985  0.4166  0.3984
12511TIP3    H159024   4.393   3.166   1.131  0.0087 -0.3478  0.6434
12511TIP3    H259025   4.458   3.044   1.069  1.9706  0.8042  0.3691
12512TIP3   OH259026   2.031   6.547  15.395  0.5424 -0.6385 -0.0408
12512TIP3    H159027   2.081   6.469  15.420  0.0057 -0.5878  1.2287
12512TIP3    H259028   2.026   6.599  15.475 -0.2337  0.0749 -0.5489
12513TIP3   OH259029   0.581   0.126  11.157  0.2521 -0.2969  0.0607
12513TIP3    H159030   0.510   0.179  11.122 -1.3433 -1.8290  0.9073
12513TIP3    H259031   0.623   0.088  11.080 -0.6514 -0.3951 -0.3912
12514TIP3   OH259032   6.040   2.812  14.029 -0.2642 -0.2676 -0.5191
12514TIP3    H159033   5.968   2.870  14.052 -0.3572 -0.3903 -0.4961
12514TIP3    H259034   6.099   2.815  14.105 -0.3745 -0.3671 -0.4301
12515TIP3   OH259035   4.839   5.000  14.552  0.3429  0.1484 -0.4243
12515TIP3    H159036   4.748   5.029  14.564  0.9795  1.1491  2.2864
12515TIP3    H259037   4.832   4.904  14.546 -0.9739  0.2759 -1.2758
12516TIP3   OH259038   0.155   1.176  11.341  0.1863 -0.2415  0.0097
12516TIP3    H159039   0.138   1.136  11.256  1.5015 -1.2541  0.2115
12516TIP3    H259040   0.190   1.105  11.395 -3.0340 -0.2785  2.2372
12517TIP3   OH259041   0.088   6.819  14.917 -0.0726 -0.0287  0.2812
12517TIP3    H159042   0.038   6.861  14.847  0.1274 -1.1951 -0.5702
12517TIP3    H259043   0.022   6.787  14.978 -0.3049 -0.1611 -0.0350
12518TIP3   OH259044   2.116   0.415  16.157  0.0959  0.6657  0.0983
12518TIP3    H159045   2.056   0.482  16.191 -0.0801  1.3525 -1.5403
12518TIP3    H259046   2.148   0.371  16.236 -0.1248  2.3725  1.1830
12519TIP3   OH259047   2.780   0.563  11.846  0.1811  0.1774 -0.4522
12519TIP3    H159048   2.699   0.614  11.845 -0.1875 -0.4071 -0.4315
12519TIP3    H259049   2.811   0.565  11.756 -0.1139 -0.0131 -0.5569
12520TIP3   OH259050   2.598   5.021  12.838 -0.8603 -0.2561 -0.0129
12520TIP3    H159051   2.585   5.013  12.743  0.7987  0.4319 -0.3116
12520TIP3    H259052   2.560   5.106  12.860 -0.9483 -0.2701 -0.1075
12521TIP3   OH259053   3.904   6.374  14.297 -0.1110 -0.0281  0.4281
12521TIP3    H159054   3.860   6.289  14.299  2.4379 -1.3870  1.8944
12521TIP3    H259055   3.880   6.415  14.380 -0.6795  0.3361  0.0843
12522TIP3   OH259056   4.751   0.826   3.061  0.3433  0.0084  0.6187
12522TIP3    H159057   4.703   0.763   3.116  0.5514  0.5608  1.4468
12522TIP3    H259058   4.747   0.908   3.110 -1.7526  1.2018 -1.4553
12523TIP3   OH259059   2.290   0.791   5.384 -0.4046 -0.0265 -0.5141
12523TIP3    H159060   2.219   0.753   5.333  0.9331 -0.2319 -2.3182
12523TIP3    H259061   2.295   0.739   5.464 -1.4915 -0.7626 -0.9284
12524TIP3   OH259062   4.817   2.368  16.136 -0.3850 -0.1531  0.1508
12524TIP3    H159063   4.878   2.335  16.202  1.3470 -0.1493 -1.4394
12524TIP3    H259064   4.835   2.315  16.058 -1.7027  0.5442 -0.6425
12525TIP3   OH259065   0.964   5.382   2.739  0.5897 -0.2094  0.9251
12525TIP3    H159066   0.955   5.471   2.706  0.0317 -0.7162 -0.3571
12525TIP3    H259067   1.058   5.370   2.753  0.8460  0.0380 -0.5062
12526TIP3   OH259068   2.412   6.151   5.944 -0.3462 -0.2145  0.1569
12526TIP3    H159069   2.432   6.228   5.997  0.5954  0.0011 -0.5144
12526TIP3    H259070   2.468   6.082   5.980 -0.1513 -0.2220 -0.1588
12527TIP3   OH259071   3.511   0.938   5.508 -0.2373 -0.1424 -0.2284
12527TIP3    H159072   3.558   0.882   5.570 -1.2933 -2.2487 -1.2956
12527TIP3    H259073   3.432   0.964   5.555  0.7621  1.4002  0.6645
12528TIP3   OH259074   4.324   1.373  17.034  0.3282 -0.7185  0.5393
12528TIP3    H159075   4.306   1.453  16.985  0.9410 -1.1764 -0.4598
12528TIP3    H259076   4.419   1.371  17.042  0.3605 -1.6824 -0.0314
12529TIP3   OH259077   1.704   2.087   5.503  0.5017  0.3569 -0.7296
12529TIP3    H159078   1.767   2.155   5.527  1.2614  0.5718 -3.1841
12529TIP3    H259079   1.619   2.125   5.524  1.0514  1.1697  0.0323
12530TIP3   OH259080   5.776   2.121   3.799 -0.1250  0.0532  0.4740
12530TIP3    H159081   5.818   2.148   3.718 -1.8335  0.0527 -0.4400
12530TIP3    H259082   5.848   2.109   3.861  1.0230  2.0762 -0.4375
12531TIP3   OH259083   5.881   0.565  13.594 -0.3995  0.2355 -0.0080
12531TIP3    H159084   5.799   0.582  13.641 -0.0384  1.9523  0.0385
12531TIP3    H259085   5.913   0.652  13.571  1.1459 -0.4580 -0.4884
12532TIP3   OH259086   1.707   2.086  15.061 -0.5837  0.2490 -0.5238
12532TIP3    H159087   1.701   2.147  15.135  0.5274 -0.4439  0.1704
12532TIP3    H259088   1.701   2.141  14.983  0.6187  1.2887  0.0917
12533TIP3   OH259089   4.034   3.386  15.880  0.1140  0.3333 -0.2471
12533TIP3    H159090   4.096   3.454  15.907  0.6609 -0.2999  0.1094
12533TIP3    H259091   4.084   3.305  15.885 -0.4805 -0.0749 -0.8658
12534TIP3   OH259092   0.699   4.618   0.657  0.4127  0.0256 -0.0460
12534TIP3    H159093   0.636   4.690   0.663 -0.2445 -0.5311 -0.2769
12534TIP3    H259094   0.744   4.618   0.741 -2.2676 -1.7820  1.4319
12535TIP3   OH259095   4.373   3.098  12.511  0.5633 -0.2734  0.1671
12535TIP3    H159096   4.361   3.003  12.515  0.4161 -0.2594  0.0584
12535TIP3    H259097   4.467   3.110  12.517  0.7038 -0.5097 -1.3230
12536TIP3   OH259098   2.127   6.808  16.843  0.1732 -0.3051  0.1598
12536TIP3    H159099   2.061   6.767  16.900 -0.3906  2.0628  1.2799
12536TIP3    H259100   2.210   6.791  16.887 -0.0330 -0.4497  0.4997
12537TIP3   OH259101   4.613   0.830  13.476 -0.3351 -0.3021  0.3163
12537TIP3    H159102   4.676   0.813  13.546  0.0221 -0.9236 -0.1443
12537TIP3    H259103   4.549   0.759  13.484 -1.6574  1.0184  1.5470
12538TIP3   OH259104   3.444   5.527   1.943  0.5757  0.1146  0.4177
12538TIP3    H159105   3.434   5.574   2.026  0.3065  0.3788  0.2384
12538TIP3    H259106   3.363   5.546   1.896  1.4965  1.4386 -0.6485
12539TIP3   OH259107   1.819   6.204  14.260 -0.6769  0.1344 -0.0741
12539TIP3    H159108   1.750   6.207  14.327  0.2964  1.2202  0.9213
12539TIP3    H259109   1.839   6.296  14.242  1.7815 -0.1332  1.0290
12540TIP3   OH259110   5.590   6.640  12.238  0.3616  0.0650  0.3837
12540TIP3    H159111   5.541   6.712  12.277  0.3996  0.4476 -0.2806
12540TIP3    H259112   5.682   6.659  12.259  0.2546 -0.5968  1.5364
12541TIP3   OH259113   3.348   1.371   2.436 -0.3768  0.3147 -0.3725
12541TIP3    H159114   3.402   1.438   2.478 -1.2696  0.7564  0.1057
12541TIP3    H259115   3.263   1.414   2.424 -1.4458 -1.2079  1.3726
12542TIP3   OH259116   1.584   0.689  16.270 -1.0889  0.2289  0.5484
12542TIP3    H159117   1.650   0.747  16.306  1.5982 -1.5186 -1.3784
12542TIP3    H259118   1.563   0.628  16.341  0.6448 -0.2470  0.6640
12543TIP3   OH259119   5.259   3.998  14.853 -0.3694  0.2179 -0.1708
12543TIP3    H159120   5.304   3.951  14.783 -0.3195  0.2018 -0.1274
12543TIP3    H259121   5.166   3.988  14.833 -0.3214  2.7419 -1.9289
12544TIP3   OH259122   3.893   5.061   3.295 -0.1147 -0.0917 -0.0388
12544TIP3    H159123   3.956   5.123   3.259 -0.2142 -0.5422 -1.0281
12544TIP3    H259124   3.855   5.018   3.218 -0.4732 -0.9538  0.6029
12545TIP3   OH259125   5.556   4.807   2.628  0.5157  0.3831 -0.1059
12545TIP3    H159126   5.494   4.851   2.570 -1.4856  0.5009  2.0422
12545TIP3    H259127   5.611   4.878   2.661  0.4242  0.5781 -0.3649
12546TIP3   OH259128   0.053   1.047   1.476  0.6749 -0.0277  0.1860
12546TIP3    H159129   0.031   1.059   1.568 -0.1593  1.3325 -0.1671
12546TIP3    H259130   0.057   1.136   1.441  1.6668 -0.4971 -0.9404
12547TIP3   OH259131   0.434   0.933  17.069 -0.2548 -0.5859 -0.1407
12547TIP3    H159132   0.443   0.948  17.163 -0.5343 -0.3355 -0.1479
12547TIP3    H259133   0.353   0.882  17.061  1.0260 -2.6975 -0.0565
12548TIP3   OH259134   2.627   3.404   0.269  0.5111  0.3385  0.2435
12548TIP3    H159135   2.633   3.454   0.351 -1.9140  0.9789  0.0699
12548TIP3    H259136   2.617   3.313   0.298 -2.9142  0.8240  0.7789
12549TIP3   OH259137   4.377   5.558  11.932 -0.3179  0.3686 -0.7437
12549TIP3    H159138   4.415   5.586  12.016  1.3401 -1.0614 -0.9911
12549TIP3    H259139   4.296   5.608  11.925 -0.4530  0.5548  1.6930
12550TIP3   OH259140   2.217   2.675   4.255 -0.3694 -0.0118  0.0996
12550TIP3    H159141   2.304   2.690   4.292 -0.3340 -0.4936  0.2212
12550TIP3    H259142   2.225   2.699   4.163 -0.6897  2.0300  0.5844
12551TIP3   OH259143   2.709   4.586  11.927  0.6692 -0.2417 -0.0236
12551TIP3    H159144   2.666   4.664  11.964 -2.0802 -1.3350 -0.7802
12551TIP3    H259145   2.774   4.622  11.867  1.7403  1.4923  2.0723
12552TIP3   OH259146   5.088   0.547  15.452 -0.1110  0.4641 -0.2442
12552TIP3    H159147   5.070   0.607  15.525 -1.5194  0.2312 -0.3970
12552TIP3    H259148   5.099   0.462  15.492 -1.0293  0.3104 -0.3103
12553TIP3   OH259149   2.794   4.545  13.067 -0.2876  0.2849  0.4210
12553TIP3    H159150   2.745   4.519  13.145 -0.4017  0.9035  0.5534
12553TIP3    H259151   2.742   4.616  13.029  1.0640  1.7043  1.1706
12554TIP3   OH259152   6.335   2.629   2.487 -0.3723  0.6155  0.3635
12554TIP3    H159153   6.324   2.544   2.445 -2.8014  1.7086 -1.3697
12554TIP3    H259154   6.313   2.614   2.579  0.8402 -0.9478  0.4110
12555TIP3   OH259155   5.814   5.198  13.565 -0.0497 -0.3404  0.6044
12555TIP3    H159156   5.834   5.204  13.472 -1.2025 -0.1379  0.3556
12555TIP3    H259157   5.787   5.287  13.590  0.7967 -0.2652  1.2572
12556TIP3   OH259158   0.866   4.465  13.274  0.2393  0.2339  0.8404
12556TIP3    H159159   0.796   4.447  13.210  1.8735  0.0499 -0.9275
12556TIP3    H259160   0.843   4.550  13.310 -0.6362  0.4175 -0.1074
12557TIP3   OH259161   1.158   0.309  16.317  0.2415 -0.6822 -0.3556
12557TIP3    H159162   1.078   0.310  16.370  0.5193 -0.2697  0.0577
12557TIP3    H259163   1.169   0.217  16.291  0.3362 -0.9547  0.6547
12558TIP3   OH259164   2.628   3.971   3.346 -0.2477 -0.6317  0.5047
12558TIP3    H159165   2.545   3.993   3.304 -0.1333 -1.6075 -0.2519
12558TIP3    H259166   2.647   4.046   3.402 -1.1967 -0.0110  0.0118
12559TIP3   OH259167   0.250   2.265  12.235  0.2419 -0.7350 -0.2103
12559TIP3    H159168   0.159   2.269  12.205 -0.0595 -0.3125  0.7327
12559TIP3    H259169   0.246   2.222  12.320  1.2607 -3.1968 -1.3799
12560TIP3   OH259170   1.802   0.427  15.762  0.0562  0.3561  0.2505
12560TIP3    H159171   1.834   0.378  15.687 -2.7861  0.4464 -1.0922
12560TIP3    H259172   1.845   0.512  15.755 -0.4695  0.4959 -1.5084
12561TIP3   OH259173   0.516   2.407  16.778  0.4605 -0.2321  0.8637
12561TIP3    H159174   0.482   2.319  16.796 -0.6296  0.0982  0.4906
12561TIP3    H259175   0.540   2.404  16.685  1.2890 -0.4069  1.0814
12562TIP3   OH259176   6.684   3.449  16.060 -0.5051 -0.2809 -1.0513
12562TIP3    H159177   6.713   3.531  16.019 -0.7338 -0.0013 -0.6585
12562TIP3    H259178   6.638   3.477  16.139  0.7812 -0.8595 -0.0837
12563TIP3   OH259179   6.695   2.597   0.346 -0.0592 -0.7519  0.4634
12563TIP3    H159180   6.632   2.576   0.276 -1.1152 -1.7432  1.6874
12563TIP3    H259181   6.731   2.682   0.321 -1.2420 -0.5802 -0.7176
12564TIP3   OH259182   1.050   3.652  15.389  0.0144 -0.6361 -0.2430
12564TIP3    H159183   0.992   3.581  15.415 -3.2744  1.5018 -1.4402
12564TIP3    H259184   1.021   3.727  15.440  1.0920  0.7399 -1.5998
12565TIP3   OH259185   3.318   1.400  12.693  0.3975  0.2065  0.4366
12565TIP3    H159186   3.290   1.316  12.658  0.7870 -0.4267  1.6009
12565TIP3    H259187   3.320   1.459  12.618 -2.3069 -0.1696  0.0368
12566TIP3   OH259188   1.994   3.453  11.534  0.0275  0.1176  0.3364
12566TIP3    H159189   1.996   3.542  11.498 -0.9858  0.1816  0.4388
12566TIP3    H259190   2.087   3.428  11.540  0.2743  0.7368 -0.7365
12567TIP3   OH259191   6.671   3.617   3.071 -0.3940 -0.5381  0.2725
12567TIP3    H159192   6.618   3.684   3.114  0.3495 -0.5038  1.1471
12567TIP3    H259193   6.611   3.544   3.057 -1.3289  0.4517 -1.0780
12568TIP3   OH259194   1.878   3.416  11.029  0.4553 -0.6023 -0.7440
12568TIP3    H159195   1.877   3.493  11.086 -1.3155 -1.6666  0.7288
12568TIP3    H259196   1.868   3.451  10.940  0.4691  0.9066 -0.1555
12569TIP3   OH259197   0.599   1.568   1.563 -0.3253 -0.1632  0.4340
12569TIP3    H159198   0.675   1.549   1.618 -0.7502  1.8626  1.7511
12569TIP3    H259199   0.636   1.583   1.476  0.6484 -0.3647  0.8051
12570TIP3   OH259200   1.906   6.608   4.215  0.1615 -0.1385 -0.3193
12570TIP3    H159201   1.940   6.665   4.284 -2.2495  0.1504  0.6778
12570TIP3    H259202   1.925   6.519   4.246 -0.7554 -0.0058  0.6586
12571TIP3   OH259203   2.802   5.475  15.837 -0.2021  0.0574 -0.5503
12571TIP3    H159204   2.724   5.436  15.797 -1.2804  3.4744 -1.9394
12571TIP3    H259205   2.770   5.518  15.915  0.2587  1.5223 -1.1517
12572TIP3   OH259206   5.529   1.661  13.686  0.1442 -0.1179  0.3115
12572TIP3    H159207   5.475   1.699  13.756 -0.2767  0.8043 -0.5073
12572TIP3    H259208   5.487   1.577  13.667 -1.4568  0.9084 -0.8234
12573TIP3   OH259209   0.432   3.373   0.391  0.4738 -0.1414 -0.7461
12573TIP3    H159210   0.453   3.320   0.468  1.3088 -1.4705 -1.8560
12573TIP3    H259211   0.348   3.413   0.412  1.2738  0.4820  1.3369
12574TIP3   OH259212   6.302   2.051   6.165 -0.5069 -0.1204  0.2969
12574TIP3    H159213   6.225   2.098   6.198 -1.6879 -1.8687  0.0448
12574TIP3    H259214   6.372   2.078   6.225 -1.3990  1.0979  0.8366
12575TIP3   OH259215   3.202   0.901  16.598 -0.6053  0.4558  0.2044
12575TIP3    H159216   3.213   0.816  16.555  0.0736 -0.4193  2.0283
12575TIP3    H259217   3.285   0.946  16.581 -0.2419  0.0169  0.7881
12576TIP3   OH259218   6.723   4.866   2.355 -0.0106 -0.1651  0.6785
12576TIP3    H159219   6.648   4.829   2.308  1.5064 -1.0487 -1.1000
12576TIP3    H259220   6.736   4.952   2.315 -0.7630  0.4757  1.7768
12577TIP3   OH259221   3.602   5.974   3.398 -0.1537  0.7137  0.8949
12577TIP3    H159222   3.677   5.949   3.345 -0.8183 -0.5726  0.5316
12577TIP3    H259223   3.624   6.060   3.433 -0.0561  2.0075 -2.1780
12578TIP3   OH259224   4.177   6.670  12.594 -0.1867  0.0053  0.1080
12578TIP3    H159225   4.224   6.675  12.511  0.5331 -0.6451  0.4703
12578TIP3    H259226   4.128   6.588  12.589 -1.4315  0.7624 -0.3376
12579TIP3   OH259227   0.924   5.976   3.623  0.3296 -0.2098 -0.3223
12579TIP3    H159228   0.834   5.954   3.598  0.4503 -0.4395 -0.5562
12579TIP3    H259229   0.928   5.961   3.717  0.5452 -1.6474 -0.5583
12580TIP3   OH259230   0.857   6.142   5.644  0.5154 -0.5009  0.1765
12580TIP3    H159231   0.926   6.190   5.598 -0.1784  0.7113  0.4047
12580TIP3    H259232   0.817   6.206   5.702 -0.9486 -1.1468 -0.0886
12581TIP3   OH259233   1.975   1.367  15.547 -0.2921  0.3584 -0.2215
12581TIP3    H159234   1.950   1.298  15.486 -1.9733  0.4403  0.3321
12581TIP3    H259235   1.962   1.328  15.633  0.1673  0.8854  0.0875
12582TIP3   OH259236   6.580   5.357  13.437  0.8383 -0.1389 -0.4887
12582TIP3    H159237   6.535   5.282  13.476 -0.5759  0.6857 -0.5119
12582TIP3    H259238   6.673   5.340  13.455  0.5654 -1.9812 -0.6672
12583TIP3   OH259239   4.087   5.968   3.062 -0.2070 -0.0089  0.0848
12583TIP3    H159240   4.168   5.985   3.014  0.4160  0.5329  1.3153
12583TIP3    H259241   4.037   5.909   3.005 -0.2562  2.0074 -2.0116
12584TIP3   OH259242   5.716   2.520   3.659 -0.3318  0.1272 -0.4741
12584TIP3    H159243   5.650   2.511   3.592 -1.1916  1.9926  0.0864
12584TIP3    H259244   5.788   2.463   3.631 -2.2460 -2.0946 -0.9582
12585TIP3   OH259245   2.233   5.546   4.833 -0.4506  0.4883 -0.0002
12585TIP3    H159246   2.325   5.549   4.859 -0.7445  0.3796  1.0719
12585TIP3    H259247   2.217   5.630   4.790  0.2363  0.3642 -0.5061
12586TIP3   OH259248   4.859   5.037   2.593  0.0056 -0.1215  0.0945
12586TIP3    H159249   4.858   5.131   2.575  2.3633  0.5308  3.0276
12586TIP3    H259250   4.944   5.006   2.561 -0.5790 -1.1792 -0.4779
12587TIP3   OH259251   6.143   1.869   0.856 -0.3013 -0.3264 -0.7185
12587TIP3    H159252   6.083   1.943   0.863  0.2438 -0.1825  3.7786
12587TIP3    H259253   6.200   1.877   0.932  2.5436 -2.9936 -2.4557
12588TIP3   OH259254   2.719   1.860  11.387 -0.2444 -0.1697 -0.2766
12588TIP3    H159255   2.661   1.791  11.419  1.8089 -0.9340  2.0209
12588TIP3    H259256   2.752   1.903  11.466 -2.2545  4.2057 -1.6453
12589TIP3   OH259257   5.417   2.674  12.727 -0.3342  0.3805  0.7220
12589TIP3    H159258   5.446   2.711  12.644 -1.5933  0.3092  0.2298
12589TIP3    H259259   5.470   2.596  12.740 -1.6824 -0.9012 -1.1781
12590TIP3   OH259260   2.792   2.836  16.459 -0.0931 -0.4442 -0.0434
12590TIP3    H159261   2.865   2.890  16.490  0.8029 -0.4917 -2.0236
12590TIP3    H259262   2.771   2.780  16.534  1.2130  0.2874  0.9012
12591TIP3   OH259263   1.703   4.482  15.778 -0.4901  0.3965  0.1173
12591TIP3    H159264   1.660   4.407  15.736 -0.8487  0.2895  0.6712
12591TIP3    H259265   1.631   4.538  15.806 -0.2352  0.7054  0.1532
12592TIP3   OH259266   1.013   5.917   2.452  0.3063 -0.6860  0.9814
12592TIP3    H159267   1.015   5.829   2.415 -0.4289 -0.3976  0.2388
12592TIP3    H259268   1.105   5.941   2.462  0.5498 -0.2237 -1.9588
12593TIP3   OH259269   6.357   4.342  16.950 -0.1770 -0.6322 -0.4893
12593TIP3    H159270   6.408   4.303  17.021 -0.9189  0.2759  0.5542
12593TIP3    H259271   6.363   4.437  16.965 -2.6771 -0.5295  0.0148
12594TIP3   OH259272   4.702   1.457   2.808 -0.5672  0.3137  0.0457
12594TIP3    H159273   4.628   1.511   2.837 -0.7249  0.5488 -0.7980
12594TIP3    H259274   4.736   1.503   2.731  0.7865  0.4966  0.7384
12595TIP3   OH259275   3.967   1.357   4.832 -0.6539 -0.6181  0.2814
12595TIP3    H159276   4.006   1.444   4.840 -1.6209 -0.0235 -1.4299
12595TIP3    H259277   3.935   1.337   4.920  0.8874  0.1244  1.0242
12596TIP3   OH259278   5.793   6.243  12.019 -0.0400 -0.3612 -0.4153
12596TIP3    H159279   5.857   6.230  12.089 -0.3204  0.4885  0.0171
12596TIP3    H259280   5.715   6.274  12.065  0.2221  1.5679 -1.2292
12597TIP3   OH259281   3.911   1.808  12.104  0.5752  0.2983 -0.6920
12597TIP3    H159282   3.825   1.844  12.082 -0.2972 -0.1333  1.8865
12597TIP3    H259283   3.915   1.726  12.055 -0.6897  0.0770 -0.4491
12598TIP3   OH259284   1.422   1.793   6.645 -0.4071 -0.9745 -0.3279
12598TIP3    H159285   1.346   1.834   6.685  1.2033  0.6087  1.1695
12598TIP3    H259286   1.437   1.714   6.697 -0.9748 -1.2731 -0.6055
12599TIP3   OH259287   3.313   5.104  16.179 -0.8037 -0.2146  0.2856
12599TIP3    H159288   3.370   5.048  16.231  0.2629  0.4873 -0.1133
12599TIP3    H259289   3.268   5.044  16.120 -0.3751 -0.7626  0.5099
12600TIP3   OH259290   1.874   1.864   2.408 -0.3445  0.0838  0.2621
12600TIP3    H159291   1.813   1.854   2.482  0.2840  0.6062  0.8526
12600TIP3    H259292   1.918   1.779   2.402  0.7401  0.5323  1.5110
12601TIP3   OH259293   0.881   5.475   3.900 -0.0958  0.1694 -0.2059
12601TIP3    H159294   0.804   5.423   3.876 -0.2893 -0.6401  2.0794
12601TIP3    H259295   0.882   5.546   3.836 -0.0195 -2.4356 -3.1745
12602TIP3   OH259296   6.654   2.311   4.639 -0.2600  0.3034  0.4048
12602TIP3    H159297   6.641   2.324   4.545  1.9890 -1.5970 -0.2381
12602TIP3    H259298   6.672   2.398   4.673  2.8522  0.5635 -1.6743
12603TIP3   OH259299   1.391   5.136   0.016  0.1935 -0.2076 -0.0670
12603TIP3    H159300   1.409   5.202  -0.051  0.0767 -1.0915 -0.9809
12603TIP3    H259301   1.334   5.073  -0.027 -0.0167 -0.7010  0.9243
12604TIP3   OH259302   4.169   5.633   2.901 -0.1049  0.2199 -0.6021
12604TIP3    H159303   4.081   5.672   2.906  0.5737  1.7357 -0.0889
12604TIP3    H259304   4.219   5.696   2.849  0.5843 -0.8263 -1.2196
12605TIP3   OH259305   4.468   5.732   0.961  0.5922  0.3717  0.5888
12605TIP3    H159306   4.555   5.756   0.931  0.7421  1.3321  1.7524
12605TIP3    H259307   4.483   5.677   1.038  0.1812 -0.4559  0.0926
12606TIP3   OH259308   6.633   0.265  11.989  0.2427  0.0971  0.0086
12606TIP3    H159309   6.540   0.282  11.976 -0.3018 -1.4938  1.7147
12606TIP3    H259310   6.661   0.223  11.908 -0.0331  2.3553 -1.3105
12607TIP3   OH259311   2.909   4.025  11.518  0.4372  0.0234 -0.1356
12607TIP3    H159312   2.884   3.972  11.594  0.2235 -0.8995 -0.8472
12607TIP3    H259313   2.834   4.019  11.458  0.6108  0.7393 -0.4380
12608TIP3   OH259314   1.293   5.869   5.686 -0.2904  0.1054 -0.1967
12608TIP3    H159315   1.289   5.904   5.775 -0.1646  0.2819 -0.2592
12608TIP3    H259316   1.352   5.794   5.692 -1.5576 -0.8769  0.1946
12609TIP3   OH259317   4.723   3.193  11.377  0.1371  0.2616 -0.1374
12609TIP3    H159318   4.629   3.181  11.367 -0.2564  2.5466  0.5849
12609TIP3    H259319   4.757   3.106  11.398 -1.4649 -1.0652 -2.8063
12610TIP3   OH259320   2.609   6.374  14.778 -0.0311 -0.3525  0.5069
12610TIP3    H159321   2.641   6.337  14.860 -0.6795  0.8096  1.3026
12610TIP3    H259322   2.672   6.346  14.712  2.9665  2.3565  2.1192
12611TIP3   OH259323   0.682   3.299   3.085  0.5413 -0.4767  0.0482
12611TIP3    H159324   0.644   3.300   3.173 -0.5299  1.6795 -0.4011
12611TIP3    H259325   0.740   3.375   3.083 -0.1118  0.0035 -1.3842
12612TIP3   OH259326   4.792   0.343  11.895  0.0918  0.3079 -0.4905
12612TIP3    H159327   4.780   0.299  11.979 -0.3766  0.7852 -0.3080
12612TIP3    H259328   4.887   0.346  11.883  0.1189 -0.8982 -0.5843
12613TIP3   OH259329   5.656   5.204   1.281 -0.9778 -0.0388  0.2252
12613TIP3    H159330   5.626   5.221   1.192 -2.3228  0.6447  0.7836
12613TIP3    H259331   5.597   5.136   1.314 -0.1955 -0.6163  0.4373
12614TIP3   OH259332   2.404   2.644   4.695 -0.6190  0.5765  0.0441
12614TIP3    H159333   2.326   2.617   4.647 -1.6496  1.5220  1.1633
12614TIP3    H259334   2.440   2.562   4.729 -1.1725  0.1420 -0.3947
12615TIP3   OH259335   1.587   5.231   5.535 -0.4495 -0.1559  0.5898
12615TIP3    H159336   1.651   5.268   5.595  1.9900  0.0910 -2.0355
12615TIP3    H259337   1.545   5.306   5.494 -0.8021 -0.3104  0.6641
12616TIP3   OH259338   6.510   5.500  13.007  0.2848  0.6984  0.3023
12616TIP3    H159339   6.486   5.587  12.975  0.8123  0.7151 -0.0664
12616TIP3    H259340   6.596   5.483  12.967 -0.2468 -0.3976 -0.3983
12617TIP3   OH259341   5.370   3.284   3.904 -0.4800  0.2541  0.2264
12617TIP3    H159342   5.307   3.347   3.940 -0.7725  0.6034 -0.8830
12617TIP3    H259343   5.338   3.199   3.935 -0.5350  0.5722  1.0717
12618TIP3   OH259344   4.502   1.141   0.321  0.4046 -0.1285  0.1483
12618TIP3    H159345   4.444   1.214   0.344  0.2245 -0.3419  0.3831
12618TIP3    H259346   4.443   1.076   0.281  0.7813  0.4039 -1.2790
12619TIP3   OH259347   3.453   1.065   5.195  0.1676 -0.1187 -0.2522
12619TIP3    H159348   3.445   1.000   5.265  1.7558  2.0047  1.9475
12619TIP3    H259349   3.533   1.040   5.148  1.3229  0.7513  1.1974
12620TIP3   OH259350   6.645   4.273   3.563  0.4716  0.1614 -0.3760
12620TIP3    H159351   6.645   4.342   3.496 -1.2601 -0.0700 -0.6438
12620TIP3    H259352   6.707   4.304   3.628 -1.7672  3.0409  0.5223
12621TIP3   OH259353   2.244   1.291   2.325  0.4049 -0.1103  0.0602
12621TIP3    H159354   2.270   1.380   2.350  0.0859  0.2202 -0.7791
12621TIP3    H259355   2.315   1.260   2.269 -0.3714  0.3096 -1.1666
12622TIP3   OH259356   3.399   3.396   2.551  0.3175  0.5333 -0.1515
12622TIP3    H159357   3.333   3.379   2.619  0.7481  0.9590  0.3725
12622TIP3    H259358   3.442   3.477   2.578  1.1674  0.1730 -0.4092
12623TIP3   OH259359   3.987   3.426  11.531  0.0051 -0.3225  0.0928
12623TIP3    H159360   3.928   3.391  11.464 -1.8686 -1.5397  2.2995
12623TIP3    H259361   4.023   3.348  11.574  0.0583  0.4484  1.4513
12624TIP3   OH259362   6.745   3.079  13.297 -0.3201  0.1675  0.6533
12624TIP3    H159363   6.650   3.089  13.309 -0.4105  1.7881 -1.1060
12624TIP3    H259364   6.782   3.158  13.336  0.2180  0.1152  0.2529
12625TIP3   OH259365   2.520   0.184   3.953 -0.4663 -0.2249  0.8393
12625TIP3    H159366   2.591   0.166   4.015  1.5781  2.0428 -0.7686
12625TIP3    H259367   2.538   0.125   3.879  0.2890  0.9978  0.0375
12626TIP3   OH259368   0.160   4.711   3.730 -0.1272  0.1512 -0.0310
12626TIP3    H159369   0.229   4.674   3.786 -0.7706 -1.7501 -0.4817
12626TIP3    H259370   0.206   4.737   3.650  0.5940  1.8109  0.8855
12627TIP3   OH259371   0.279   4.373  17.127 -0.1999  0.2129  0.6591
12627TIP3    H159372   0.368   4.409  17.122  0.0505 -0.2477  1.6937
12627TIP3    H259373   0.284   4.290  17.081  0.2822 -0.5199  2.0076
12628TIP3   OH259374   1.624   5.704  15.697 -0.5269 -0.3873 -0.5080
12628TIP3    H159375   1.686   5.633  15.682  0.5343  0.1182  1.3823
12628TIP3    H259376   1.648   5.771  15.633  1.3317  0.0818  0.6671
12629TIP3   OH259377   0.508   2.951  13.239 -0.5757 -0.1713  0.1811
12629TIP3    H159378   0.587   2.930  13.190  0.8677  0.4693  2.1580
12629TIP3    H259379   0.442   2.970  13.173  1.2440  0.4115 -1.4900
12630TIP3   OH259380   4.800   3.818  15.460  0.3990  0.4417  0.7959
12630TIP3    H159381   4.777   3.892  15.404 -0.6857 -1.9870 -2.1061
12630TIP3    H259382   4.718   3.790  15.499  0.7078  0.4372  1.4428
12631TIP3   OH259383   0.865   4.319   4.526 -0.5682 -0.5673 -0.1826
12631TIP3    H159384   0.888   4.255   4.458 -2.0928 -2.9818  1.4727
12631TIP3    H259385   0.774   4.298   4.549  0.0078 -0.0481  2.8033
12632TIP3   OH259386   4.363   5.254   0.809  0.1411 -0.3374 -0.1375
12632TIP3    H159387   4.312   5.320   0.856 -0.6671  0.0238 -1.5333
12632TIP3    H259388   4.325   5.171   0.836 -0.4774 -0.1201 -0.3423
12633TIP3   OH259389   0.946   5.171  13.180 -0.5420  0.5551  0.3961
12633TIP3    H159390   1.019   5.111  13.193 -0.7794 -0.0185 -0.7980
12633TIP3    H259391   0.966   5.247  13.234  2.0665  1.4058 -1.6571
12634TIP3   OH259392   5.399   6.103  15.148 -0.2927  0.2261 -0.6118
12634TIP3    H159393   5.455   6.106  15.070  0.3132 -0.5377 -0.2161
12634TIP3    H259394   5.337   6.032  15.131 -1.1256  1.0505 -1.0333
12635TIP3   OH259395   1.213   3.064   1.648 -0.1659 -0.1790  0.1193
12635TIP3    H159396   1.256   3.120   1.583  0.9347 -0.0054  0.9705
12635TIP3    H259397   1.129   3.107   1.665  1.0910  1.8172  1.5202
12636TIP3   OH259398   2.708   0.330   1.968 -0.4659  0.1062  0.3661
12636TIP3    H159399   2.612   0.329   1.973 -0.5752  2.0248 -1.1179
12636TIP3    H259400   2.729   0.403   1.910  2.0351  1.9140  3.3916
12637TIP3   OH259401   6.268   3.113   0.730  0.0776 -0.1380  0.2170
12637TIP3    H159402   6.331   3.177   0.695 -0.5376  0.1340 -0.4139
12637TIP3    H259403   6.183   3.144   0.698 -0.4688 -0.0893  1.6632
12638TIP3   OH259404   3.017   1.819  15.615 -0.0836 -0.3153  0.2547
12638TIP3    H159405   3.110   1.802  15.604 -0.2238  0.0134 -1.5893
12638TIP3    H259406   3.006   1.828  15.710  1.8338  0.0928  0.4706
12639TIP3   OH259407   0.196   4.086   0.634  0.5920  0.1930 -0.1914
12639TIP3    H159408   0.252   4.045   0.700  0.9193  0.0536 -0.5507
12639TIP3    H259409   0.118   4.112   0.682  0.7727 -0.0213  0.2270
12640TIP3   OH259410   6.720   5.879   2.103 -0.4380  0.2626  0.2760
12640TIP3    H159411   6.640   5.854   2.149 -0.3957 -1.3367 -0.4948
12640TIP3    H259412   6.721   5.826   2.024  1.9395 -0.6019  0.8219
12641TIP3   OH259413   3.551   1.321  14.979 -0.2938  0.0924 -0.5221
12641TIP3    H159414   3.601   1.266  14.920  1.2786  0.2664  0.6130
12641TIP3    H259415   3.467   1.276  14.989  0.5528 -1.5094 -0.5037
12642TIP3   OH259416   4.538   3.295  14.978 -0.4899  0.5744  0.0244
12642TIP3    H159417   4.469   3.230  14.965  1.0292 -0.9699 -0.5193
12642TIP3    H259418   4.575   3.274  15.064 -1.1540  1.8630  0.6458
12643TIP3   OH259419   2.625   5.770   5.283 -0.1945 -0.0569  0.3036
12643TIP3    H159420   2.532   5.753   5.297 -0.2888 -0.0318 -0.2778
12643TIP3    H259421   2.660   5.786   5.370 -0.2603 -2.4386  0.8052
12644TIP3   OH259422   1.108   3.928   0.190 -0.2108  0.2066  0.0339
12644TIP3    H159423   1.145   4.015   0.200 -2.3004  1.4187 -2.3076
12644TIP3    H259424   1.019   3.935   0.222 -0.1705 -1.2775  0.5415
12645TIP3   OH259425   6.492   4.957   3.743  0.0761  0.6289 -0.4879
12645TIP3    H159426   6.404   4.992   3.738 -0.5435 -0.6582  0.8099
12645TIP3    H259427   6.484   4.868   3.709  0.9847  0.6986 -0.8860
12646TIP3   OH259428   1.028   1.811   1.466  0.3369  0.1923  0.3195
12646TIP3    H159429   1.017   1.718   1.449  0.3366  0.1617  0.4799
12646TIP3    H259430   0.993   1.823   1.555 -1.2691  0.6563 -0.3571
12647TIP3   OH259431   3.552   6.279  13.799 -0.2251 -0.0932  0.0468
12647TIP3    H159432   3.589   6.234  13.875  1.1159  0.1680 -0.4275
12647TIP3    H259433   3.496   6.347  13.836 -0.0871 -0.3844  0.7959
12648TIP3   OH259434   2.537   1.277   1.355 -0.6060  0.2609  0.0005
12648TIP3    H159435   2.504   1.314   1.436 -1.4865  1.1872 -0.7663
12648TIP3    H259436   2.538   1.183   1.369 -0.4671  0.4353  1.1825
12649TIP3   OH259437   1.210   2.698  10.474 -0.6749  0.4664 -0.0020
12649TIP3    H159438   1.147   2.646  10.424 -0.2447  0.7172 -0.8211
12649TIP3    H259439   1.294   2.654  10.459 -0.2262  1.6647 -1.1030
12650TIP3   OH259440   3.921   4.704  13.371 -0.2642  0.2574 -0.2458
12650TIP3    H159441   3.888   4.760  13.442  0.9558  0.7665 -0.0602
12650TIP3    H259442   4.013   4.731  13.361  0.4342 -1.9566  0.0638
12651TIP3   OH259443   2.360   5.121  14.195  0.2596  0.0196  0.5321
12651TIP3    H159444   2.273   5.102  14.160  1.7060 -0.1637 -3.1347
12651TIP3    H259445   2.343   5.157  14.282 -3.4539 -0.4069  0.0667
12652TIP3   OH259446   0.143   5.965  11.206  0.0285 -0.3561  0.1878
12652TIP3    H159447   0.059   6.010  11.213  0.1821 -0.1144  0.4538
12652TIP3    H259448   0.121   5.880  11.168 -0.3756 -0.4178  0.5585
12653TIP3   OH259449   6.419   0.446   6.250  0.3062 -0.0648 -0.4759
12653TIP3    H159450   6.452   0.367   6.292  2.6144  1.2762  0.3672
12653TIP3    H259451   6.389   0.501   6.322 -0.2746  0.2821 -0.9700
12654TIP3   OH259452   1.817   6.010  15.801  0.5337 -0.4712  0.0420
12654TIP3    H159453   1.784   6.064  15.874 -2.9504 -0.3150 -1.5403
12654TIP3    H259454   1.816   5.921  15.835  0.4971 -0.2212  0.7054
12655TIP3   OH259455   2.175   2.757   4.867  0.2757  1.3474 -0.4379
12655TIP3    H159456   2.196   2.848   4.844 -0.8195  1.9110  0.7322
12655TIP3    H259457   2.087   2.744   4.834  0.3426  0.7779 -0.3935
12656TIP3   OH259458   2.996   6.606   4.246  0.4347  0.0585  0.1253
12656TIP3    H159459   2.979   6.665   4.319  0.4400  0.6122 -0.3093
12656TIP3    H259460   3.008   6.520   4.285  0.3301  0.3356  0.7611
12657TIP3   OH259461   0.299   1.861   5.866  0.1780  0.1796 -0.1603
12657TIP3    H159462   0.233   1.868   5.797 -1.3078  0.3620  1.2655
12657TIP3    H259463   0.262   1.907   5.941  0.9619 -1.5671  1.3603
12658TIP3   OH259464   0.811   4.486   2.118  0.2799 -0.3467  0.3013
12658TIP3    H159465   0.796   4.424   2.190  0.2516 -0.5848  0.0937
12658TIP3    H259466   0.780   4.439   2.041 -1.4121  0.6181  0.3714
12659TIP3   OH259467   0.279   4.459   1.858  0.2155  0.1672 -0.0342
12659TIP3    H159468   0.373   4.478   1.850  0.2877  0.0512  0.4937
12659TIP3    H259469   0.262   4.392   1.792  0.5613 -0.0009  0.0473
12660TIP3   OH259470   2.015   5.486  15.336 -0.2415  0.5776  0.1392
12660TIP3    H159471   1.982   5.446  15.256 -2.1566 -2.0639  2.1387
12660TIP3    H259472   1.964   5.566  15.346  0.7225  1.4527 -1.7678
12661TIP3   OH259473   3.175   3.030  14.462  0.1991 -0.0523 -0.2411
12661TIP3    H159474   3.151   3.047  14.553  1.7195  1.8912 -0.1585
12661TIP3    H259475   3.228   3.105  14.437  2.8383 -2.2538 -1.5962
12662TIP3   OH259476   3.372   6.178  15.594  0.2506 -0.5861 -0.4574
12662TIP3    H159477   3.363   6.135  15.679  0.8506 -0.3716 -0.2807
12662TIP3    H259478   3.289   6.224  15.582  0.8826  0.9568  0.9000
12663TIP3   OH259479   6.046   1.426   4.622  0.0546  0.3104 -0.7397
12663TIP3    H159480   5.979   1.388   4.678  0.3406  1.7251  0.6055
12663TIP3    H259481   6.031   1.520   4.626  2.5054  0.7190  0.1324
12664TIP3   OH259482   5.320   5.548   4.391 -0.4170  0.2905 -0.2506
12664TIP3    H159483   5.230   5.567   4.365 -0.5063 -1.1236 -1.0129
12664TIP3    H259484   5.360   5.509   4.314  0.5827  0.0716  0.3699
12665TIP3   OH259485   1.238   0.721   0.152  0.0890 -0.2085 -0.6343
12665TIP3    H159486   1.244   0.740   0.059 -0.6414  1.4859 -0.3498
12665TIP3    H259487   1.186   0.793   0.188  1.8351  0.1081  1.3487
12666TIP3   OH259488   0.124   6.164   3.191 -0.4227  0.4326  0.0256
12666TIP3    H159489   0.211   6.158   3.152 -1.4370  0.3442 -2.3387
12666TIP3    H259490   0.067   6.120   3.128 -2.1114  0.0824  1.7647
12667TIP3   OH259491   4.916   4.504  15.544  0.4965  0.0824 -0.8000
12667TIP3    H159492   4.992   4.452  15.518  0.3832 -0.4580 -0.0733
12667TIP3    H259493   4.941   4.543  15.628  0.5528  1.1613 -1.2981
12668TIP3   OH259494   5.897   2.581   0.176  0.0589 -0.1197  0.0247
12668TIP3    H159495   5.869   2.510   0.118  0.1219 -0.1605  0.0449
12668TIP3    H259496   5.894   2.543   0.264  1.2215 -0.4513 -0.0691
12669TIP3   OH259497   6.138   4.565  11.221 -0.0174  0.0554 -1.0613
12669TIP3    H159498   6.162   4.620  11.146 -1.5154  1.9532 -0.1881
12669TIP3    H259499   6.049   4.592  11.242 -0.5423 -2.3124 -0.2185
12670TIP3   OH259500   4.125   6.619  16.364  0.1723 -0.2250  0.2227
12670TIP3    H159501   4.049   6.642  16.311 -0.5754  0.2523  1.4636
12670TIP3    H259502   4.121   6.524  16.372 -0.0470 -0.2424 -0.0859
12671TIP3   OH259503   2.563   5.969   0.948 -0.1305  0.6841  0.3800
12671TIP3    H159504   2.658   5.976   0.954 -0.2527  1.8870  1.2311
12671TIP3    H259505   2.530   6.021   1.022 -1.4391 -0.1141  0.3861
12672TIP3   OH259506   3.060   3.508   0.370  0.0508 -0.4834 -0.1437
12672TIP3    H159507   3.088   3.508   0.461 -1.3686 -1.4573  0.3159
12672TIP3    H259508   3.139   3.483   0.320  0.5215 -1.1733  0.9260
12673TIP3   OH259509   5.462   2.693  17.041 -0.0577 -0.6673  0.1652
12673TIP3    H159510   5.548   2.719  17.075 -0.6796  0.5342  0.8402
12673TIP3    H259511   5.482   2.623  16.979  1.5375  0.5534 -0.7382
12674TIP3   OH259512   0.629   1.556  16.872 -0.1477 -0.2349 -0.2092
12674TIP3    H159513   0.678   1.536  16.792  1.3564  0.5185  0.5046
12674TIP3    H259514   0.672   1.633  16.908 -0.1105 -1.2063  1.9139
12675TIP3   OH259515   0.613   1.021  11.751  0.2351  0.3057  0.3410
12675TIP3    H159516   0.611   0.933  11.787 -0.7962  0.5086  0.8000
12675TIP3    H259517   0.538   1.024  11.691  1.2724  0.3221 -0.9985
12676TIP3   OH259518   0.178   5.449  12.254 -0.3358  0.3592 -0.1098
12676TIP3    H159519   0.194   5.479  12.165 -0.2257 -1.0720 -0.5818
12676TIP3    H259520   0.091   5.411  12.252  0.9104 -2.5847 -0.4075
12677TIP3   OH259521   0.407   0.297   4.495 -0.1511  0.3007  0.3258
12677TIP3    H159522   0.455   0.369   4.454 -2.4461  1.8121  0.1555
12677TIP3    H259523   0.325   0.292   4.445 -0.3177 -2.0185  0.7597
12678TIP3   OH259524   0.440   1.190  10.818 -0.2748  0.1474 -0.4993
12678TIP3    H159525   0.424   1.163  10.908  1.3633 -1.5772 -0.6679
12678TIP3    H259526   0.376   1.141  10.766 -0.3729  0.1553 -0.3839
12679TIP3   OH259527   3.596   3.747  16.441 -0.1927 -0.1067  0.0904
12679TIP3    H159528   3.505   3.719  16.435 -0.1380 -0.0571 -1.2186
12679TIP3    H259529   3.593   3.842  16.427 -0.1102  0.1722  1.8605
12680TIP3   OH259530   6.577   2.950  16.892 -0.6100  0.6405  0.0014
12680TIP3    H159531   6.529   2.886  16.943  0.6145 -0.2750  0.0157
12680TIP3    H259532   6.509   3.005  16.852 -1.6736 -1.0258 -0.5001
12681TIP3   OH259533   4.866   3.553   1.553  0.3207 -0.2311 -0.5596
12681TIP3    H159534   4.799   3.604   1.508  1.5615  0.6563 -1.4277
12681TIP3    H259535   4.921   3.618   1.596  0.3363 -0.9833  0.5697
12682TIP3   OH259536   5.757   4.965  16.065 -0.1063 -0.4404 -0.1564
12682TIP3    H159537   5.715   4.997  16.145 -2.9780  0.5521 -1.9820
12682TIP3    H259538   5.791   5.044  16.023 -0.5220 -0.6905 -0.9625
12683TIP3   OH259539   1.227   3.503  13.177 -0.5331  0.1230 -0.2030
12683TIP3    H159540   1.171   3.533  13.106  0.8152  1.0065 -0.9221
12683TIP3    H259541   1.251   3.414  13.153 -1.2055 -0.0805 -0.1400
12684TIP3   OH259542   4.840   3.992   2.250  0.1667  0.1462  0.1561
12684TIP3    H159543   4.873   3.902   2.254 -2.2457 -0.7103  1.9148
12684TIP3    H259544   4.851   4.018   2.159  0.6487 -2.0264 -0.4296
12685TIP3   OH259545   4.146   1.184   3.369 -0.2119  0.1145  0.4395
12685TIP3    H159546   4.062   1.209   3.406 -0.8080  0.5370 -1.1605
12685TIP3    H259547   4.194   1.266   3.362 -0.1391  0.0511  0.1903
12686TIP3   OH259548   6.548   4.947   5.618 -0.4100  0.1530  0.1899
12686TIP3    H159549   6.569   4.984   5.703 -0.8117  0.1368  0.3006
12686TIP3    H259550   6.466   4.990   5.592  0.7983  1.7030 -1.1535
12687TIP3   OH259551   0.641   4.789  11.924 -0.2332  0.4771 -0.7155
12687TIP3    H159552   0.565   4.847  11.916  0.2251  0.8253 -2.9351
12687TIP3    H259553   0.667   4.772  11.834  1.9757 -0.1289  0.0217
12688TIP3   OH259554   1.694   4.046   4.110  0.2546  0.0429  0.5913
12688TIP3    H159555   1.692   4.078   4.200 -0.1382  0.1058  0.5621
12688TIP3    H259556   1.743   4.113   4.061 -0.0561  0.3057  0.6421
12689TIP3   OH259557   3.343   6.107  14.794 -0.0422  0.3304 -0.2645
12689TIP3    H159558   3.391   6.178  14.838  1.0793 -0.9913  0.6743
12689TIP3    H259559   3.320   6.047  14.865 -0.3900 -0.5861 -1.1560
12690TIP3   OH259560   5.685   0.655   1.572  0.2546 -0.0800  0.1536
12690TIP3    H159561   5.712   0.747   1.570  0.4980 -0.1489  0.1776
12690TIP3    H259562   5.677   0.635   1.665  0.4233 -0.1467  0.1536
12691TIP3   OH259563   0.123   3.370   5.597 -0.3253  0.1255 -0.2019
12691TIP3    H159564   0.189   3.334   5.538 -0.0542  0.9522 -0.4096
12691TIP3    H259565   0.051   3.307   5.594  1.3436 -1.9796  1.7708
12692TIP3   OH259566   3.759   4.688   3.827  0.3063  0.2457 -0.1731
12692TIP3    H159567   3.827   4.671   3.762  0.6201 -0.9992  0.4617
12692TIP3    H259568   3.697   4.745   3.783  0.8115 -0.1202 -1.3748
12693TIP3   OH259569   2.046   3.970  11.257  0.5366 -0.5207 -0.2785
12693TIP3    H159570   2.041   3.997  11.165  1.1669  0.2700 -0.0807
12693TIP3    H259571   2.139   3.974  11.277  0.1992  1.2992  0.9998
12694TIP3   OH259572   1.022   5.423  17.021  0.0681  0.1176 -0.4173
12694TIP3    H159573   1.044   5.386  17.106  0.8394  0.6895 -0.3543
12694TIP3    H259574   1.091   5.488  17.005 -1.0205  1.2035 -0.7183
12695TIP3   OH259575   4.083   5.738   4.877  0.4178 -0.0787  0.4962
12695TIP3    H159576   4.071   5.684   4.799  0.3529  1.0536 -0.2968
12695TIP3    H259577   4.007   5.796   4.877  0.1062 -0.4914  1.7429
12696TIP3   OH259578   0.835   0.632   3.109  0.0549 -0.1449 -0.2685
12696TIP3    H159579   0.883   0.714   3.120 -1.1106  0.2594  2.0822
12696TIP3    H259580   0.743   0.657   3.113 -0.3242 -1.4619 -0.3934
12697TIP3   OH259581   5.192   3.857   3.938 -0.3350  0.0868  0.5004
12697TIP3    H159582   5.127   3.863   4.008 -0.1198  0.7617  0.6482
12697TIP3    H259583   5.162   3.784   3.884 -0.9485  0.0791  0.8420
12698TIP3   OH259584   3.978   3.917  14.690  0.3587  0.1074 -0.1944
12698TIP3    H159585   4.036   3.981  14.730  0.7900  0.0196 -0.6790
12698TIP3    H259586   4.036   3.848  14.658 -0.0652 -0.3123 -0.0679
12699TIP3   OH259587   6.129   4.634   0.134  0.6168  0.1612 -0.4457
12699TIP3    H159588   6.187   4.610   0.062 -2.9862 -1.2014 -3.0637
12699TIP3    H259589   6.134   4.730   0.138  2.1780  0.1236 -1.3745
12700TIP3   OH259590   6.644   4.739   1.488  0.4621 -0.7354 -0.0507
12700TIP3    H159591   6.685   4.680   1.425  0.4000 -0.1146 -0.6825
12700TIP3    H259592   6.635   4.687   1.568  1.2676 -1.2881 -0.3094
12701TIP3   OH259593   4.800   0.261   3.536  0.5067 -0.6438  0.4583
12701TIP3    H159594   4.875   0.316   3.559  0.9908 -0.4178 -1.6016
12701TIP3    H259595   4.784   0.208   3.615  1.6435  0.6189  1.5601
12702TIP3   OH259596   0.483   1.334  11.721  0.4042 -0.3567 -0.2350
12702TIP3    H159597   0.496   1.410  11.778  0.5099 -0.7932  0.3344
12702TIP3    H259598   0.411   1.358  11.664 -0.7498 -0.4905  1.1309
12703TIP3   OH259599   1.084   6.177   2.889  0.1011  0.1009  0.5922
12703TIP3    H159600   1.102   6.234   2.963  0.2844 -0.6633  1.1426
12703TIP3    H259601   1.150   6.200   2.824  1.5206 -0.9601  1.6347
12704TIP3   OH259602   0.331   1.329  13.765  0.1054  0.3911 -0.0836
12704TIP3    H159603   0.258   1.388  13.785 -1.1845 -0.8882 -0.8937
12704TIP3    H259604   0.391   1.383  13.714 -0.9111  1.1181 -0.5509
12705TIP3   OH259605   1.198   2.141  13.521 -0.3527 -0.0229 -0.2275
12705TIP3    H159606   1.194   2.215  13.460  1.1110  1.0491  0.9279
12705TIP3    H259607   1.169   2.066  13.470 -0.5440  1.1098 -1.8214
12706TIP3   OH259608   3.878   3.334   3.649 -0.0955  0.2941 -0.1806
12706TIP3    H159609   3.812   3.318   3.716 -0.3973 -0.6474 -0.6983
12706TIP3    H259610   3.898   3.428   3.657  1.0537 -0.1206  2.2822
12707TIP3   OH259611   3.627   4.624  12.580  0.0914 -0.3900  0.0496
12707TIP3    H159612   3.693   4.573  12.626  1.3747  0.2543 -1.0515
12707TIP3    H259613   3.662   4.713  12.578 -1.5281  0.2854  0.8028
12708TIP3   OH259614   3.876   4.396  17.212  0.0926 -0.6816 -0.0034
12708TIP3    H159615   3.897   4.404  17.305 -1.1422 -0.5990  0.2886
12708TIP3    H259616   3.897   4.482  17.175  0.0470 -0.5276  0.3215
12709TIP3   OH259617   6.165   6.264  13.719 -0.0584 -0.1921 -0.1419
12709TIP3    H159618   6.227   6.308  13.778  1.5952 -0.3824 -1.6793
12709TIP3    H259619   6.201   6.175  13.710 -2.1218 -1.1927  1.1492
12710TIP3   OH259620   6.716   5.540  14.450 -0.2361  0.4649  0.3554
12710TIP3    H159621   6.779   5.495  14.394 -0.4946 -0.3551  0.7230
12710TIP3    H259622   6.729   5.502  14.537 -1.9668 -0.4912  0.2160
12711TIP3   OH259623   6.458   3.627  15.309 -0.8454 -0.4774 -0.2379
12711TIP3    H159624   6.494   3.548  15.269  1.4106  0.8375 -0.9067
12711TIP3    H259625   6.464   3.612  15.403 -0.4781 -1.1218 -0.3642
12712TIP3   OH259626   3.857   3.482   2.687  0.3946 -0.3047 -0.2259
12712TIP3    H159627   3.835   3.481   2.780  0.8514 -1.3356 -0.1255
12712TIP3    H259628   3.797   3.419   2.647  0.5481 -0.2479 -0.5491
12713TIP3   OH259629   2.627   0.212   3.367  0.7530  0.4038 -0.5279
12713TIP3    H159630   2.600   0.126   3.397  3.0320  0.3818  1.6324
12713TIP3    H259631   2.651   0.199   3.275  0.4321 -1.1018 -0.4045
12714TIP3   OH259632   5.800   5.527   5.133 -0.3310 -0.2666 -0.4902
12714TIP3    H159633   5.733   5.492   5.074 -0.4130 -1.7591  0.4537
12714TIP3    H259634   5.847   5.450   5.165  0.9902  0.6738 -0.1274
12715TIP3   OH259635   4.546   2.407   3.848 -0.1162  0.3877 -0.1870
12715TIP3    H159636   4.636   2.374   3.850 -0.3389 -0.3109 -1.2986
12715TIP3    H259637   4.518   2.406   3.940  0.9198  0.3790  0.1372
12716TIP3   OH259638   6.628   5.001  15.651  0.8730  0.0970 -0.0242
12716TIP3    H159639   6.563   4.931  15.663 -1.8696  1.6737 -4.2104
12716TIP3    H259640   6.695   4.960  15.596  0.2691  0.1413 -0.8160
12717TIP3   OH259641   3.800   4.858  13.607  0.0829 -0.3490  0.6732
12717TIP3    H159642   3.793   4.765  13.629  0.0418 -0.4264  0.3370
12717TIP3    H259643   3.713   4.894  13.626  0.4851 -0.0821  2.1444
12718TIP3   OH259644   2.609   3.243  12.060  0.4450 -0.3835 -0.2337
12718TIP3    H159645   2.576   3.329  12.034  0.7165 -0.5614 -1.1745
12718TIP3    H259646   2.581   3.185  11.989  1.1128 -0.8920 -0.0805
12719TIP3   OH259647   4.877   5.076   6.972 -0.2577  0.0171  0.2411
12719TIP3    H159648   4.844   4.986   6.984 -0.2668 -0.0996 -0.6582
12719TIP3    H259649   4.815   5.130   7.021  0.5014 -0.5837  1.9232
12720TIP3   OH259650   4.979   1.228  16.856 -0.2974  0.4804  0.0645
12720TIP3    H159651   4.931   1.148  16.833  0.6186  0.2126 -0.9363
12720TIP3    H259652   4.941   1.296  16.800  1.0585  0.0924 -1.3437
12721TIP3   OH259653   6.563   6.368   3.540  0.1982  0.1069  0.2329
12721TIP3    H159654   6.537   6.305   3.607  2.5786 -1.1882 -0.0141
12721TIP3    H259655   6.638   6.328   3.497  0.6148  2.3067 -1.1749
12722TIP3   OH259656   5.404   5.032   5.186 -0.5015  0.4579 -0.5095
12722TIP3    H159657   5.373   4.971   5.253 -0.5092 -0.5877 -1.4518
12722TIP3    H259658   5.398   5.118   5.228  1.6946 -0.3651  1.6658
12723TIP3   OH259659   3.129   1.410   0.601  0.5487  0.3275  0.0065
12723TIP3    H159660   3.089   1.430   0.686  0.8436  0.1653  0.1854
12723TIP3    H259661   3.223   1.404   0.619  0.6264  0.4139 -0.3561
12724TIP3   OH259662   1.326   6.210   1.237 -0.3228  0.7161  0.0373
12724TIP3    H159663   1.367   6.283   1.285  2.0651  1.4837 -3.0213
12724TIP3    H259664   1.377   6.133   1.264  1.5689  1.2753 -1.7945
12725TIP3   OH259665   0.847   5.724   3.148  0.0250 -0.4846 -0.4554
12725TIP3    H159666   0.914   5.752   3.086 -0.4311  0.2032 -0.6393
12725TIP3    H259667   0.812   5.642   3.111 -0.3142 -0.0241 -1.1514
12726TIP3   OH259668   1.046   6.718   2.935  0.7568  0.2977  0.3602
12726TIP3    H159669   1.041   6.813   2.946  1.0561  0.2847  0.6051
12726TIP3    H259670   1.091   6.706   2.852 -0.4358  0.3820 -0.3111
12727TIP3   OH259671   0.485   0.706  15.704  0.4261 -0.3993  0.2481
12727TIP3    H159672   0.538   0.756  15.642 -1.8935  0.9440 -0.7001
12727TIP3    H259673   0.482   0.618  15.667  1.2459 -0.2664 -0.1531
12728TIP3   OH259674   0.198   0.164   1.745 -0.1611  0.1807  0.5005
12728TIP3    H159675   0.249   0.245   1.753  0.9717 -0.6213  1.6073
12728TIP3    H259676   0.131   0.185   1.680  1.6284  1.2493 -1.0575
12729TIP3   OH259677   6.798   2.915  17.075 -0.4211  0.6773  0.1988
12729TIP3    H159678   6.727   2.882  17.020  0.5288 -1.5573  0.2932
12729TIP3    H259679   6.754   2.950  17.152 -1.3794 -1.3036  0.5669
12730TIP3   OH259680   5.674   6.210  15.266  0.3529 -0.0006  0.0207
12730TIP3    H159681   5.609   6.224  15.335  0.8852  0.8909  0.3516
12730TIP3    H259682   5.649   6.126  15.226 -1.0818  0.3949  0.0474
12731TIP3   OH259683   5.598   0.865  10.411 -0.1337 -0.1278  0.0689
12731TIP3    H159684   5.611   0.923  10.336 -0.3451 -0.5116 -0.2651
12731TIP3    H259685   5.602   0.777  10.375 -2.4979 -0.2942  0.1068
12732TIP3   OH259686   1.208   1.223  11.572  0.1982  0.3865  1.1682
12732TIP3    H159687   1.194   1.212  11.666 -2.1176  0.1281  0.8041
12732TIP3    H259688   1.140   1.283  11.543  1.3114  1.0209 -0.2442
12733TIP3   OH259689   3.098   1.369   3.410 -0.1561  0.6019  0.0962
12733TIP3    H159690   3.044   1.448   3.410  0.6350  1.1947  2.8859
12733TIP3    H259691   3.160   1.382   3.482  1.2153 -1.7384 -0.6088
12734TIP3   OH259692   5.349   1.343   4.660  0.0048  0.3811  1.2543
12734TIP3    H159693   5.306   1.363   4.577 -0.3025 -0.6567  1.1558
12734TIP3    H259694   5.308   1.261   4.689  2.2627 -0.8952  0.9181
12735TIP3   OH259695   3.115   2.132   3.202 -0.0001 -0.3798 -0.1145
12735TIP3    H159696   3.039   2.098   3.154  0.4517 -0.6418 -0.6396
12735TIP3    H259697   3.140   2.211   3.154  0.2110 -0.4263 -0.0811
12736TIP3   OH259698   3.068   0.590  15.272 -0.0618 -0.1091 -0.2660
12736TIP3    H159699   3.069   0.540  15.353 -1.3481 -0.2092 -0.2970
12736TIP3    H259700   3.123   0.540  15.212 -1.0155 -1.2899 -0.1821
12737TIP3   OH259701   6.333   5.260  17.114  0.0720 -0.5185  0.6577
12737TIP3    H159702   6.248   5.283  17.152  0.5152 -0.7613  1.8463
12737TIP3    H259703   6.324   5.280  17.021 -1.0060  0.2637  0.9080
12738TIP3   OH259704   3.918   6.300   6.429 -0.4489  0.1064 -0.0003
12738TIP3    H159705   3.941   6.390   6.408 -2.0802  0.0786 -2.0466
12738TIP3    H259706   4.002   6.254   6.429  0.3422  1.5102  0.5602
12739TIP3   OH259707   4.956   2.859  16.909 -0.0960  0.3235  0.1993
12739TIP3    H159708   4.976   2.815  16.826 -0.3992 -0.2092  0.4038
12739TIP3    H259709   5.034   2.912  16.928  0.1884  0.0329 -0.1589
12740TIP3   OH259710   4.349   1.906  14.130 -0.5915  0.0368  0.1751
12740TIP3    H159711   4.321   1.851  14.057  0.3239  0.8475 -0.7900
12740TIP3    H259712   4.270   1.918  14.182 -1.8004  1.3388 -1.9075
12741TIP3   OH259713   1.375   5.689   6.370 -0.6371 -0.5323  0.2527
12741TIP3    H159714   1.361   5.780   6.347 -1.3651 -0.2664  1.7009
12741TIP3    H259715   1.291   5.646   6.354 -0.3541 -0.9232 -0.2359
12742TIP3   OH259716   5.286   5.476  15.883  0.5679 -0.2495  0.3853
12742TIP3    H159717   5.286   5.534  15.807  1.2435 -0.9849 -0.1826
12742TIP3    H259718   5.287   5.388  15.846 -1.1699 -0.6506  1.2372
12743TIP3   OH259719   4.590   3.063  15.721  0.2044 -0.3402  0.1107
12743TIP3    H159720   4.520   3.003  15.746  0.9052 -0.8602  0.8543
12743TIP3    H259721   4.628   3.023  15.643  1.1730 -1.2934  1.0485
12744TIP3   OH259722   6.672   1.631  12.424 -0.5312  0.1411 -0.0247
12744TIP3    H159723   6.765   1.650  12.418 -1.1404  3.9406  1.4110
12744TIP3    H259724   6.629   1.701  12.373 -2.7129  0.2016  1.8103
12745TIP3   OH259725   4.793   3.429  14.998  0.8364  0.3501  0.0396
12745TIP3    H159726   4.743   3.368  14.945  1.0354 -0.9474  1.3166
12745TIP3    H259727   4.738   3.444  15.075  0.4567  2.3705 -0.5857
12746TIP3   OH259728   6.454   0.262   0.716  0.7942 -0.4210 -0.1727
12746TIP3    H159729   6.495   0.334   0.668  1.3024 -1.7403 -1.7870
12746TIP3    H259730   6.476   0.184   0.665 -1.6080 -1.4608  0.2930
12747TIP3   OH259731   3.695   4.018  13.084  0.1834 -0.0467  0.0705
12747TIP3    H159732   3.706   4.094  13.142 -0.8522  1.2727 -1.4177
12747TIP3    H259733   3.757   4.033  13.013  0.8033 -1.2062  0.3597
12748TIP3   OH259734   5.935   5.720   2.013 -0.6229  0.1487 -0.3968
12748TIP3    H159735   5.866   5.785   2.014  0.3444  1.1985 -0.7309
12748TIP3    H259736   5.934   5.684   1.925 -1.6426 -0.8261  0.0055
12749TIP3   OH259737   3.449   2.858   1.277 -0.5133  0.0064 -0.0283
12749TIP3    H159738   3.364   2.816   1.265 -0.9726  1.0718 -0.5461
12749TIP3    H259739   3.511   2.800   1.233 -0.8189 -1.3342  1.2840
12750TIP3   OH259740   4.277   1.040  12.641  0.3006  0.3561  0.4232
12750TIP3    H159741   4.183   1.037  12.658  0.0537 -0.9474 -1.0338
12750TIP3    H259742   4.305   1.126  12.673 -1.3269  0.6551  1.0928
12751TIP3   OH259743   1.805   3.420  16.924  0.0483 -0.1182 -0.0622
12751TIP3    H159744   1.877   3.405  16.985  0.2913 -1.3925 -0.6557
12751TIP3    H259745   1.728   3.430  16.980  0.4731  0.0071  0.5125
12752TIP3   OH259746   1.225   3.689  15.672 -0.1869  0.2385 -0.2359
12752TIP3    H159747   1.142   3.679  15.718 -0.3001  1.3780 -0.1669
12752TIP3    H259748   1.256   3.776  15.699 -0.5896  1.2244 -2.8385
12753TIP3   OH259749   4.749   5.626   6.227  0.3021 -0.0709  0.6880
12753TIP3    H159750   4.825   5.666   6.270  0.9155  0.3698 -0.7852
12753TIP3    H259751   4.676   5.645   6.286  1.3996 -0.8849  2.3419
12754TIP3   OH259752   6.465   0.008   0.986 -0.2336 -0.2595 -0.0965
12754TIP3    H159753   6.399  -0.057   1.008 -1.4743  1.1746  0.5632
12754TIP3    H259754   6.430   0.053   0.909 -0.5071  1.1358  0.8166
12755TIP3   OH259755   1.193   5.040   5.720  0.0075  0.0854 -0.3186
12755TIP3    H159756   1.174   5.095   5.644  2.6027  1.2858 -0.1659
12755TIP3    H259757   1.261   4.979   5.689 -0.5144 -0.8931  0.4365
12756TIP3   OH259758   4.547   0.491   5.705 -0.2169  0.2184 -0.2971
12756TIP3    H159759   4.626   0.494   5.759  1.0808 -1.5730 -2.0335
12756TIP3    H259760   4.512   0.403   5.717 -1.9876  0.9894  0.4537
12757TIP3   OH259761   4.217   2.655   2.445 -0.4401 -0.4365  0.3568
12757TIP3    H159762   4.253   2.646   2.534 -0.3690  0.2388  0.3991
12757TIP3    H259763   4.185   2.568   2.424 -2.1267 -0.2000  1.7666
12758TIP3   OH259764   6.550   5.565  17.014  0.2210  0.1335 -0.2224
12758TIP3    H159765   6.644   5.564  17.031  0.3714  2.6479 -0.7726
12758TIP3    H259766   6.537   5.637  16.953 -1.6288 -2.5051 -3.0872
12759TIP3   OH259767   5.320   0.046   4.746  0.0675  0.0497  0.1207
12759TIP3    H159768   5.304   0.138   4.725 -1.9250 -0.1373  0.7687
12759TIP3    H259769   5.388   0.019   4.684 -2.6537  0.6938 -3.2612
12760TIP3   OH259770   4.962   1.011  12.574 -0.2364  0.2929  0.4718
12760TIP3    H159771   4.979   0.917  12.580  4.7497  0.8565 -2.1758
12760TIP3    H259772   5.011   1.049  12.647  0.3614  1.0502 -0.3115
12761TIP3   OH259773   6.812   3.840  12.357 -0.0868 -0.6366  0.0442
12761TIP3    H159774   6.827   3.813  12.448  1.2933 -2.6177 -0.7475
12761TIP3    H259775   6.728   3.801  12.334 -2.0957  2.5960  1.4519
12762TIP3   OH259776   0.663   3.359   2.040  0.1091 -0.0710  0.0439
12762TIP3    H159777   0.725   3.367   2.112  1.5450 -0.6341 -1.1109
12762TIP3    H259778   0.699   3.290   1.984  0.4013  2.1368 -2.6044
12763TIP3   OH259779   1.678   2.088  16.084 -0.0450 -0.3051  0.0238
12763TIP3    H159780   1.703   2.172  16.121 -1.0256  0.1784 -0.3882
12763TIP3    H259781   1.760   2.044  16.064  0.4543  1.3062 -1.4645
12764TIP3   OH259782   1.174   4.681   2.902  0.0922  0.0961  0.0816
12764TIP3    H159783   1.172   4.634   2.986 -0.0808 -0.7774 -0.4071
12764TIP3    H259784   1.258   4.727   2.903  0.5708 -0.7722  0.2779
12765TIP3   OH259785   4.210   0.449  12.939 -0.1192  0.2562 -0.1405
12765TIP3    H159786   4.215   0.391  13.015  1.7009  1.3427  0.5917
12765TIP3    H259787   4.262   0.405  12.872  0.1558  0.3925 -0.0169
12766TIP3   OH259788   6.659   1.111   4.254 -0.1155  0.2989  0.2086
12766TIP3    H159789   6.641   1.017   4.258  0.8714  0.1508  1.9096
12766TIP3    H259790   6.738   1.118   4.201  0.1650  0.0905  0.5885
12767TIP3   OH259791   0.350   6.203  14.607 -0.3037 -0.0448 -0.1030
12767TIP3    H159792   0.341   6.170  14.696 -0.0655  0.1798  0.0026
12767TIP3    H259793   0.335   6.126  14.551  0.6767 -0.4203  0.1502
12768TIP3   OH259794   6.508   4.812  15.396 -0.1694  0.0288  0.2416
12768TIP3    H159795   6.532   4.903  15.380 -0.3842 -0.1356 -1.0341
12768TIP3    H259796   6.433   4.796  15.339  1.2502 -1.6045 -1.2337
12769TIP3   OH259797   0.795   5.277   1.533  0.1080  0.1161  0.1610
12769TIP3    H159798   0.830   5.266   1.445  0.3830  2.2524 -0.0332
12769TIP3    H259799   0.873   5.284   1.589  0.0873  3.6206 -0.1096
12770TIP3   OH259800   3.633   2.589   4.635  0.9726  0.2632 -0.2783
12770TIP3    H159801   3.622   2.551   4.722  1.8114 -1.0101 -0.7194
12770TIP3    H259802   3.682   2.523   4.586  0.5251  0.9786 -1.7091
12771TIP3   OH259803   4.330   3.912  14.214 -0.1710 -0.6667  0.1725
12771TIP3    H159804   4.246   3.919  14.259 -0.3138  0.7824 -0.3058
12771TIP3    H259805   4.327   3.979  14.146  1.4670 -0.4581  0.2786
12772TIP3   OH259806   5.757   5.287  15.489  0.7501 -0.1998 -0.0230
12772TIP3    H159807   5.748   5.328  15.574 -1.0852  1.6648 -1.0739
12772TIP3    H259808   5.753   5.193  15.506 -0.0445  0.1747  1.8776
12773TIP3   OH259809   0.611   1.784  14.801  1.0612 -0.3752  0.2404
12773TIP3    H159810   0.614   1.880  14.802 -1.2301 -0.2566 -0.9771
12773TIP3    H259811   0.701   1.758  14.783  1.6598  1.5567  0.2670
12774TIP3   OH259812   6.502   5.620   0.853 -0.1503  0.3008  0.1594
12774TIP3    H159813   6.444   5.547   0.875 -1.3920  1.9588  2.6135
12774TIP3    H259814   6.448   5.698   0.862  0.3628  1.4748 -5.2303
12775TIP3   OH259815   4.556   5.835   2.980 -0.0095  0.4223 -0.0395
12775TIP3    H159816   4.643   5.799   2.967  0.7606  2.1703  0.0957
12775TIP3    H259817   4.549   5.847   3.075  0.7598  2.9899 -0.2674
12776TIP3   OH259818   3.969   5.045  12.163 -0.1360 -0.0760  0.0878
12776TIP3    H159819   3.917   5.084  12.092  0.0660 -0.8575 -0.4900
12776TIP3    H259820   4.034   4.992  12.119  0.2418 -0.2553  0.8586
12777TIP3   OH259821   2.409   6.536   0.555  0.6724 -0.8282  0.1526
12777TIP3    H159822   2.366   6.456   0.524 -1.5727 -0.1107  1.3058
12777TIP3    H259823   2.490   6.505   0.596  0.1097 -2.4495  0.0822
12778TIP3   OH259824   0.918   4.103   4.760 -0.0776  0.3221  0.8481
12778TIP3    H159825   0.989   4.167   4.757  0.0848  0.0687 -0.7540
12778TIP3    H259826   0.838   4.155   4.751  0.0495  0.3269 -0.3326
12779TIP3   OH259827   1.465   3.063  14.503 -0.2312  0.2773 -0.5932
12779TIP3    H159828   1.484   3.078  14.596 -0.7522  1.9343 -0.7324
12779TIP3    H259829   1.487   3.146  14.461 -0.6524 -0.2479 -1.8571
12780TIP3   OH259830   0.873   3.250  15.681 -0.0435 -0.1829 -0.0488
12780TIP3    H159831   0.866   3.155  15.683 -0.8634 -0.1222  0.0130
12780TIP3    H259832   0.904   3.273  15.769  1.0801 -0.4599 -0.3656
12781TIP3   OH259833   0.597   3.101   1.007 -0.1365  0.2342 -0.2170
12781TIP3    H159834   0.583   3.063   0.920 -3.0224  0.9948 -0.1588
12781TIP3    H259835   0.525   3.065   1.060  0.9955  0.5700  1.5981
12782TIP3   OH259836   2.571   2.445   2.716  0.2773  0.1379 -0.3417
12782TIP3    H159837   2.481   2.435   2.746  1.2109  1.1154  3.0080
12782TIP3    H259838   2.592   2.362   2.673 -1.6503 -0.7709  0.4258
12783TIP3   OH259839   3.817   1.083   2.734 -0.3303  0.5938  0.2381
12783TIP3    H159840   3.825   1.013   2.799 -1.0231 -0.9421 -1.2980
12783TIP3    H259841   3.905   1.096   2.702 -0.3691 -0.4170 -0.3120
12784TIP3   OH259842   3.517   4.539  10.521 -0.4231 -0.1507  0.1854
12784TIP3    H159843   3.598   4.533  10.573 -1.2295  0.7596  1.5722
12784TIP3    H259844   3.471   4.457  10.540 -2.1667  1.4987  3.4193
12785TIP3   OH259845   3.513   0.465  15.680  0.2460  0.4080  0.0774
12785TIP3    H159846   3.453   0.431  15.612  0.0317  3.5995 -1.4239
12785TIP3    H259847   3.599   0.434  15.653 -0.1845 -0.6537 -0.1170
12786TIP3   OH259848   0.267   3.433  16.037  0.3617  0.1827  0.3519
12786TIP3    H159849   0.245   3.371  16.107  0.9351  0.5497  0.8619
12786TIP3    H259850   0.209   3.409  15.965  0.9721 -1.3019  0.3518
12787TIP3   OH259851   2.833   4.497  16.974 -0.1047  0.6614  0.4599
12787TIP3    H159852   2.803   4.437  16.906  0.4360 -0.0024  0.7970
12787TIP3    H259853   2.928   4.504  16.959  0.2405 -0.6309  2.0434
12788TIP3   OH259854   6.219   5.026  17.148 -0.0503  0.8248  0.0539
12788TIP3    H159855   6.138   5.069  17.122  0.6458  0.7001 -2.4089
12788TIP3    H259856   6.287   5.069  17.096  1.1768 -0.6448  0.3996
12789TIP3   OH259857   0.646   3.589  16.137 -0.4080 -0.5149  0.3854
12789TIP3    H159858   0.619   3.610  16.227 -0.2046  0.6150  0.1920
12789TIP3    H259859   0.690   3.668  16.107 -1.1928 -0.5992 -0.9976
12790TIP3   OH259860   6.464   2.287   3.014 -0.7084  0.1067  0.3961
12790TIP3    H159861   6.468   2.194   2.994 -1.1612 -0.1286  1.3530
12790TIP3    H259862   6.374   2.301   3.045  0.3487  0.1144  3.6552
12791TIP3   OH259863   2.802   3.397  11.803 -0.3641  0.0743 -0.1144
12791TIP3    H159864   2.731   3.361  11.750 -0.8549  1.2555 -0.2688
12791TIP3    H259865   2.770   3.482  11.832  0.6611  0.2595  0.4988
12792TIP3   OH259866   6.185   1.806  13.170  0.2633  0.5906  0.3641
12792TIP3    H159867   6.152   1.786  13.083  1.6438 -1.2268  0.2422
12792TIP3    H259868   6.281   1.804  13.161  0.4230 -0.6582  2.1510
12793TIP3   OH259869   2.727   6.221  11.396 -0.2095  0.0365 -0.1175
12793TIP3    H159870   2.637   6.236  11.365 -0.2803  0.0606  0.1036
12793TIP3    H259871   2.781   6.237  11.319 -0.4229 -0.3597 -0.3555
12794TIP3   OH259872   5.020   1.886  17.289  0.1148 -0.3191 -0.1209
12794TIP3    H159873   4.980   1.973  17.282 -2.3794 -1.5291 -1.3661
12794TIP3    H259874   5.055   1.883  17.378 -0.9765  1.4660  0.3930
12795TIP3   OH259875   3.762   5.885   1.347 -0.2026  0.0888 -0.0278
12795TIP3    H159876   3.816   5.836   1.285  0.1451 -0.8518  1.0117
12795TIP3    H259877   3.687   5.828   1.363 -0.7288  0.7129 -0.2441
12796TIP3   OH259878   6.460   2.838  15.591  0.0553 -0.3760 -0.6535
12796TIP3    H159879   6.434   2.768  15.652 -0.2093  0.7484  0.5483
12796TIP3    H259880   6.379   2.885  15.572  0.4481  0.3835 -0.4555
12797TIP3   OH259881   5.050   4.470  13.727 -0.0556  0.8088 -0.1108
12797TIP3    H159882   5.028   4.380  13.751  1.0505  0.3100 -0.8992
12797TIP3    H259883   5.090   4.506  13.806 -0.1922  0.4973  0.1035
12798TIP3   OH259884   5.596   6.436  11.242 -0.6334  0.7611 -0.1379
12798TIP3    H159885   5.632   6.508  11.190  2.2348  0.0105  0.7593
12798TIP3    H259886   5.551   6.479  11.314 -1.7657  1.7178 -1.3844
12799TIP3   OH259887   2.539   0.933   2.096  0.2296 -0.2590 -0.2854
12799TIP3    H159888   2.618   0.982   2.075 -1.4156  1.6066 -2.3002
12799TIP3    H259889   2.565   0.841   2.089  2.4608  0.3200  0.1105
12800TIP3   OH259890   6.514   6.697   0.077  0.1654  0.2829 -0.0502
12800TIP3    H159891   6.605   6.710   0.104 -0.0232 -3.4970  2.8141
12800TIP3    H259892   6.519   6.643  -0.002  0.4166 -0.4820  0.4826
12801TIP3   OH259893   1.513   6.100   2.416  0.0628  0.2474  0.1700
12801TIP3    H159894   1.569   6.146   2.478  1.8946 -1.1285 -0.3888
12801TIP3    H259895   1.499   6.163   2.345  0.4654  0.7915  0.5695
12802TIP3   OH259896   1.768   0.203   0.254 -0.3443 -0.4944 -0.0358
12802TIP3    H159897   1.676   0.214   0.277 -0.2840  1.0978 -0.5575
12802TIP3    H259898   1.772   0.117   0.211 -1.4410 -0.9091  0.6715
12803TIP3   OH259899   0.735   0.345  11.318 -0.1724 -0.1903  0.6072
12803TIP3    H159900   0.800   0.282  11.286 -0.4734  0.5032 -1.4560
12803TIP3    H259901   0.656   0.324  11.268 -0.6397  0.9732  0.8612
12804TIP3   OH259902   0.175   2.739  16.101  0.2684 -0.4575 -0.0679
12804TIP3    H159903   0.170   2.699  16.014  0.1235 -0.3864 -0.0915
12804TIP3    H259904   0.195   2.666  16.159  0.9564 -0.4116 -0.2421
12805TIP3   OH259905   2.229   0.601  11.344 -0.2347  0.2048  0.1987
12805TIP3    H159906   2.257   0.511  11.327  0.1255  0.4032 -0.2622
12805TIP3    H259907   2.216   0.605  11.439 -0.2866 -0.3430  0.2135
12806TIP3   OH259908   4.460   3.110   2.136 -0.0301 -0.2010  0.1799
12806TIP3    H159909   4.543   3.158   2.139 -0.6279  0.8264  0.5212
12806TIP3    H259910   4.476   3.038   2.074  0.8909  0.4119 -0.3068
12807TIP3   OH259911   5.806   5.709   2.915  0.0500  0.3474  0.1577
12807TIP3    H159912   5.894   5.746   2.918  0.2742 -0.2936  1.5363
12807TIP3    H259913   5.751   5.773   2.961  0.0487  0.0437  0.5793
12808TIP3   OH259914   1.164   6.783  15.287 -0.1477  0.2320 -0.4449
12808TIP3    H159915   1.083   6.771  15.237  0.0267 -1.8844 -0.2615
12808TIP3    H259916   1.139   6.841  15.359 -1.4131 -0.1090 -0.5899
12809TIP3   OH259917   6.618   0.824  15.390  0.4363 -0.3490  0.5962
12809TIP3    H159918   6.594   0.842  15.299 -1.6509  1.4682  1.4608
12809TIP3    H259919   6.667   0.742  15.386 -0.3343 -0.7314 -2.0765
12810TIP3   OH259920   4.432   2.404   4.106  0.4882 -0.1531 -0.5008
12810TIP3    H159921   4.499   2.420   4.172  0.7455  1.2364 -1.0870
12810TIP3    H259922   4.351   2.393   4.156  0.8525 -0.0927  0.1021
12811TIP3   OH259923   6.305   4.297   4.795  0.2433  0.1068 -0.0273
12811TIP3    H159924   6.269   4.260   4.875 -1.2636  2.6040  0.5332
12811TIP3    H259925   6.228   4.319   4.742  1.1478  0.3574 -1.2783
12812TIP3   OH259926   5.097   3.162   0.406  0.2835  0.2944  0.7411
12812TIP3    H159927   5.023   3.223   0.414 -0.8820 -0.9459 -0.3090
12812TIP3    H259928   5.142   3.189   0.326 -0.0006  0.0265  0.4903
12813TIP3   OH259929   0.204   2.639  10.916  0.0822 -0.5097  0.0941
12813TIP3    H159930   0.144   2.583  10.866 -0.6180  1.7407 -1.7276
12813TIP3    H259931   0.285   2.639  10.865 -0.0911  0.5090 -0.1918
12814TIP3   OH259932   3.474   6.025  14.445 -0.3221  0.5548 -0.6977
12814TIP3    H159933   3.393   6.053  14.404 -0.5859  0.6567 -0.1120
12814TIP3    H259934   3.472   6.065  14.532  0.0526  0.0316 -0.4462
12815TIP3   OH259935   6.801   5.229   6.859  0.2419  0.2758  0.7133
12815TIP3    H159936   6.868   5.257   6.797 -0.5865  1.9483  0.5507
12815TIP3    H259937   6.718   5.252   6.817 -0.4703 -1.9751  0.8107
12816TIP3   OH259938   3.180   0.481  15.536  0.0575  0.3172  0.0979
12816TIP3    H159939   3.216   0.397  15.566 -0.3313  0.0264 -0.2269
12816TIP3    H259940   3.247   0.516  15.477 -0.5023 -0.5911 -1.1227
12817TIP3   OH259941   1.073   3.205   5.114 -0.4165  0.1488  0.1715
12817TIP3    H159942   0.997   3.166   5.071 -1.1144  2.0848 -0.4006
12817TIP3    H259943   1.084   3.289   5.071  1.0344  0.6026  1.4027
12818TIP3   OH259944   3.376   4.940  15.092  0.2758  0.1823  0.3530
12818TIP3    H159945   3.409   5.011  15.036 -1.9139 -0.0386 -1.2937
12818TIP3    H259946   3.448   4.878  15.098  0.7022  0.4270 -1.8891
12819TIP3   OH259947   5.836   1.402  14.822 -0.2023 -0.0491 -0.2006
12819TIP3    H159948   5.853   1.484  14.776 -0.0288 -0.5435 -1.0384
12819TIP3    H259949   5.748   1.377  14.794 -0.3367 -0.0439  0.2167
12820TIP3   OH259950   6.397   4.728   6.593 -0.3893 -0.2196 -0.2112
12820TIP3    H159951   6.352   4.667   6.652 -0.2187 -0.0484  0.0977
12820TIP3    H259952   6.423   4.801   6.649  1.5678 -0.9838 -0.0748
12821TIP3   OH259953   5.393   6.802   3.311 -0.3484  0.1961  0.0353
12821TIP3    H159954   5.387   6.832   3.221 -2.0713  0.4172  0.2210
12821TIP3    H259955   5.441   6.719   3.305  1.3666  1.2220 -0.8335
12822TIP3   OH259956   0.803   0.415   3.274  0.2939 -0.1573 -0.3972
12822TIP3    H159957   0.842   0.433   3.359 -1.2556  1.5646 -0.0285
12822TIP3    H259958   0.813   0.497   3.226  0.7350 -0.9703 -1.7295
12823TIP3   OH259959   5.069   3.260   4.925 -0.2803  0.3792  0.1750
12823TIP3    H159960   5.002   3.317   4.965 -0.8332 -0.0371 -0.1441
12823TIP3    H259961   5.117   3.224   5.000 -1.4992 -0.6206  0.4950
12824TIP3   OH259962   2.321   6.682  15.569 -0.0968  0.1218 -0.1561
12824TIP3    H159963   2.233   6.678  15.605  0.5051  2.9981  1.7965
12824TIP3    H259964   2.321   6.763  15.516  0.7289 -1.0380 -1.9835
12825TIP3   OH259965   2.787   3.252   4.931  0.2761 -0.5130 -0.1636
12825TIP3    H159966   2.716   3.240   4.994  1.8111 -1.3455  1.4659
12825TIP3    H259967   2.748   3.234   4.846 -1.8490  0.6436  0.5427
12826TIP3   OH259968   4.812   2.182  11.978  0.0597  0.5628  0.2141
12826TIP3    H159969   4.801   2.250  11.912 -1.1537  0.3335  0.1725
12826TIP3    H259970   4.834   2.230  12.058 -0.5463  0.9847  0.1286
12827TIP3   OH259971   2.689   3.227   0.472  0.4240  1.1375  0.7084
12827TIP3    H159972   2.698   3.263   0.561  2.5035 -0.4640  1.1924
12827TIP3    H259973   2.716   3.135   0.481  0.4011  0.8882 -1.5440
12828TIP3   OH259974   4.199   2.351   0.774 -0.2901 -0.2283  0.0437
12828TIP3    H159975   4.189   2.301   0.855  2.3627 -2.6521 -1.0299
12828TIP3    H259976   4.273   2.409   0.790  0.1622 -0.6237 -0.5441
12829TIP3   OH259977   1.834   6.411   5.169  0.0846 -0.4097 -0.7196
12829TIP3    H159978   1.748   6.453   5.171  0.0743 -0.4653 -0.0409
12829TIP3    H259979   1.815   6.317   5.167  0.1424 -0.4549  0.6706
12830TIP3   OH259980   1.725   0.697   4.374 -0.1476 -0.1409 -0.0008
12830TIP3    H159981   1.631   0.709   4.386  0.1155  1.0852  0.9953
12830TIP3    H259982   1.736   0.684   4.280 -1.1113  1.6958 -0.4000
12831TIP3   OH259983   0.895   2.784  16.083  0.2020 -0.7189  0.4623
12831TIP3    H159984   0.865   2.793  15.993 -0.3434  1.6492  0.8548
12831TIP3    H259985   0.899   2.689  16.098 -0.8508 -1.1126 -1.6484
12832TIP3   OH259986   5.250   6.590   2.623 -0.1066  0.3895  0.0131
12832TIP3    H159987   5.155   6.593   2.610 -0.2745  0.0172  1.0776
12832TIP3    H259988   5.282   6.530   2.556 -0.6647  0.2272 -0.1068
12833TIP3   OH259989   2.156   4.864  11.662  1.1311  0.5097  0.2639
12833TIP3    H159990   2.094   4.916  11.611  1.2949 -1.4603 -2.0311
12833TIP3    H259991   2.102   4.817  11.726  0.3538 -0.4131 -1.0548
12834TIP3   OH259992   2.151   0.317  13.685  0.4302 -0.7510 -0.2660
12834TIP3    H159993   2.143   0.372  13.607 -0.0982 -1.4967 -0.7544
12834TIP3    H259994   2.189   0.235  13.652  1.9245 -0.4133  0.5718
12835TIP3   OH259995   6.243   5.838  13.090  0.3056 -0.1890  0.1363
12835TIP3    H159996   6.157   5.843  13.132 -1.1469  0.6340 -2.7568
12835TIP3    H259997   6.255   5.925  13.051  1.4192 -0.9851 -1.3583
12836TIP3   OH259998   1.907   4.249   4.007 -0.6587 -0.0497 -0.0160
12836TIP3    H159999   2.002   4.243   4.016 -0.6611 -0.0036  0.0392
12836TIP3    H260000   1.882   4.318   4.068 -0.4786  1.5175 -1.6825
12837TIP3   OH260001   6.655   0.811  12.761  0.4422  0.3903 -0.0500
12837TIP3    H160002   6.580   0.752  12.772  0.9687 -0.7160 -2.3017
12837TIP3    H260003   6.727   0.766  12.805  0.2260  0.6073  0.5342
12838TIP3   OH260004   3.924   3.058   0.359  0.1372  0.3068  0.3627
12838TIP3    H160005   3.907   3.023   0.446 -1.9301  0.9057  0.2337
12838TIP3    H260006   3.926   3.153   0.371 -0.8667  0.4309 -0.3386
12839TIP3   OH260007   1.802   0.872   2.459  0.3901  0.2517  0.4409
12839TIP3    H160008   1.846   0.792   2.487  0.8274  0.2087 -0.3344
12839TIP3    H260009   1.816   0.934   2.531  3.0502  0.7318 -0.3981
12840TIP3   OH260010   4.884   0.470  13.790 -0.1491  0.7819 -0.7173
12840TIP3    H160011   4.953   0.469  13.857  0.1202 -1.3806 -0.9939
12840TIP3    H260012   4.924   0.430  13.713 -1.0726  1.4746 -1.5762
12841TIP3   OH260013   3.903   6.695  10.791 -0.4228 -0.0538 -0.2077
12841TIP3    H160014   3.949   6.645  10.724 -0.6479 -1.0123  0.3431
12841TIP3    H260015   3.935   6.785  10.780  0.4340 -0.4237 -0.8175
12842TIP3   OH260016   1.376   5.753   3.454 -0.4913  0.7086  0.1677
12842TIP3    H160017   1.290   5.721   3.481 -1.3423  1.5235 -1.5114
12842TIP3    H260018   1.424   5.675   3.426 -1.1119  0.4151 -0.0615
12843TIP3   OH260019   6.155   5.200   3.152  0.2816 -0.8556  0.4692
12843TIP3    H160020   6.196   5.274   3.195 -0.7056  1.0597 -1.7644
12843TIP3    H260021   6.062   5.222   3.150 -0.0140 -2.1048 -0.2713
12844TIP3   OH260022   0.253   1.727  16.213 -0.5107 -0.1453 -0.9527
12844TIP3    H160023   0.267   1.724  16.308 -2.1817  0.7650 -0.6437
12844TIP3    H260024   0.335   1.696  16.175 -0.1355 -1.3754  0.8062
12845TIP3   OH260025   1.464   2.004   5.848  0.0490  0.4475  0.1126
12845TIP3    H160026   1.491   1.920   5.885  0.6084  0.2648 -0.6881
12845TIP3    H260027   1.535   2.064   5.868 -0.8163  1.0017  1.5876
12846TIP3   OH260028   0.140   0.740   2.570  0.4684  0.2043 -0.1216
12846TIP3    H160029   0.119   0.688   2.492  1.3955  1.0749 -0.9676
12846TIP3    H260030   0.061   0.789   2.588 -1.1066 -2.8867  1.8398
12847TIP3   OH260031   4.656   4.880  12.000 -0.3713 -0.1291 -0.6908
12847TIP3    H160032   4.633   4.968  11.970  0.1925  1.1103  2.4186
12847TIP3    H260033   4.673   4.889  12.093  0.1897 -3.4627 -0.3967
12848TIP3   OH260034   0.621   1.672   5.004 -0.2140 -0.5864  0.0035
12848TIP3    H160035   0.542   1.640   5.048 -0.7051  1.1904  0.4480
12848TIP3    H260036   0.648   1.748   5.055  1.6280 -0.9984 -0.3280
12849TIP3   OH260037   1.395   1.167  10.984 -0.5153 -0.2903 -0.4689
12849TIP3    H160038   1.405   1.172  10.888  0.5408 -0.1628 -0.3594
12849TIP3    H260039   1.322   1.226  11.003 -0.1011  0.4511 -1.1101
12850TIP3   OH260040   3.717   3.711  16.188  0.1402  0.4986 -0.4147
12850TIP3    H160041   3.717   3.622  16.153  2.3685 -0.2161  1.3004
12850TIP3    H260042   3.678   3.703  16.275  1.4547  0.9625  0.2305
12851TIP3   OH260043   3.875   3.829  13.857  0.4933  0.1619  1.0112
12851TIP3    H160044   3.902   3.777  13.933 -0.3488 -1.8000  0.0032
12851TIP3    H260045   3.780   3.839  13.868 -0.1902 -2.8838 -1.3592
12852TIP3   OH260046   0.873   6.155   4.722 -0.3714 -0.1429  0.0398
12852TIP3    H160047   0.943   6.156   4.657 -1.3517 -1.7972 -1.0900
12852TIP3    H260048   0.918   6.161   4.806  0.9917  0.8943 -0.7409
12853TIP3   OH260049   4.491   3.319  16.574  0.4194 -0.0523 -0.0955
12853TIP3    H160050   4.476   3.409  16.548 -0.0918 -0.1384 -0.1124
12853TIP3    H260051   4.586   3.309  16.575  0.5329  1.0639  1.8958
12854TIP3   OH260052   4.363   1.291   3.951  0.0800 -0.2738  0.0458
12854TIP3    H160053   4.362   1.289   4.047 -0.2503  1.0925  0.0812
12854TIP3    H260054   4.283   1.339   3.927 -0.5485 -1.7933 -0.9525
12855TIP3   OH260055   1.338   6.564  14.964  0.3316  0.3584 -0.1250
12855TIP3    H160056   1.370   6.651  14.987  0.0296  0.7518 -1.1816
12855TIP3    H260057   1.273   6.544  15.031  1.1769  0.4796  0.7510
12856TIP3   OH260058   5.496   5.629  10.560  0.3713  0.2390  0.1533
12856TIP3    H160059   5.486   5.549  10.509  2.0234 -0.9620  1.6523
12856TIP3    H260060   5.524   5.599  10.646  0.7823  2.4210  0.8082
12857TIP3   OH260061   1.125   5.374   0.002  0.0967  0.0858 -0.5233
12857TIP3    H160062   1.183   5.320  -0.052 -1.2191 -0.4161 -1.4626
12857TIP3    H260063   1.052   5.316   0.022 -0.0530  0.6976  0.7062
12858TIP3   OH260064   5.247   6.314  16.738 -0.3220  0.4012 -0.0280
12858TIP3    H160065   5.237   6.256  16.662 -1.7146  2.3114 -1.3572
12858TIP3    H260066   5.164   6.307  16.785  0.1022  0.1196  0.6933
12859TIP3   OH260067   4.889   4.478   0.116 -0.1489  0.7954  0.6872
12859TIP3    H160068   4.977   4.449   0.140 -0.5099  0.3741  1.5110
12859TIP3    H260069   4.830   4.418   0.162 -0.8619  0.2107 -0.9602
12860TIP3   OH260070   3.047   4.204  13.512 -0.2492 -0.0354 -0.3639
12860TIP3    H160071   3.003   4.120  13.510  1.1875 -0.7679 -2.1723
12860TIP3    H260072   3.050   4.232  13.421 -0.1146  1.6649  0.1453
12861TIP3   OH260073   0.795   0.776  16.102  0.3620 -0.6760  0.3317
12861TIP3    H160074   0.763   0.745  16.187  0.5402 -1.5378  0.0934
12861TIP3    H260075   0.803   0.696  16.050  0.3482 -0.1560 -0.4619
12862TIP3   OH260076   2.954   6.748   4.631 -0.6352 -0.5502 -0.0859
12862TIP3    H160077   2.942   6.821   4.691  3.9053  0.7978 -0.6032
12862TIP3    H260078   3.039   6.710   4.657 -0.6410 -2.6083 -2.9017
12863TIP3   OH260079   6.518   4.426  16.571  0.1009  0.0182  0.2335
12863TIP3    H160080   6.451   4.357  16.575  1.0557 -0.8482  1.5781
12863TIP3    H260081   6.566   4.418  16.653  0.6906  1.8371  0.0958
12864TIP3   OH260082   3.640   5.844  15.618  0.7174 -0.4970 -0.0234
12864TIP3    H160083   3.653   5.894  15.537  1.1656 -0.4177  0.1006
12864TIP3    H260084   3.560   5.793  15.601 -0.9566  1.8089  0.6213
12865TIP3   OH260085   6.578   0.495   0.619  0.5568  0.4182  0.5483
12865TIP3    H160086   6.568   0.480   0.525 -0.4734  1.3154  0.5082
12865TIP3    H260087   6.669   0.523   0.630  0.7069  0.2132 -0.1621
12866TIP3   OH260088   1.073   4.938   4.399 -0.1316  0.2995 -0.7032
12866TIP3    H160089   1.079   4.869   4.333 -1.6065 -1.3211  0.8049
12866TIP3    H260090   0.979   4.947   4.416  0.2052  0.8218  1.0088
12867TIP3   OH260091   3.563   0.048  11.801 -0.0365  0.0053  0.2146
12867TIP3    H160092   3.598   0.002  11.724  0.3145 -1.7638  1.4172
12867TIP3    H260093   3.479   0.083  11.771  0.3397 -0.2068 -1.1293
12868TIP3   OH260094   0.550   1.052   1.456  0.4370 -0.3113 -0.3259
12868TIP3    H160095   0.483   1.082   1.396  0.6910  1.1254  0.0955
12868TIP3    H260096   0.576   1.130   1.505 -0.3367 -1.5731  2.2211
12869TIP3   OH260097   5.150   1.690   0.555 -0.3797 -0.0021 -0.1978
12869TIP3    H160098   5.123   1.626   0.621 -0.0930 -0.0593 -0.1360
12869TIP3    H260099   5.112   1.657   0.473 -0.1747 -0.2913 -0.1794
12870TIP3   OH260100   1.107   0.640  16.397  0.1711 -0.6139 -0.1528
12870TIP3    H160101   1.044   0.569  16.385 -2.6810  2.0830 -2.1141
12870TIP3    H260102   1.154   0.644  16.314 -0.6923  0.6314 -0.6109
12871TIP3   OH260103   4.004   6.187  16.593 -0.3916  0.7326  0.1417
12871TIP3    H160104   4.025   6.098  16.622 -1.2838  0.2457 -0.6991
12871TIP3    H260105   4.038   6.243  16.663  1.2122 -0.1919  0.1312
12872TIP3   OH260106   2.289   3.954   0.817 -0.1772 -0.0966 -0.5441
12872TIP3    H160107   2.368   3.933   0.767  0.2232 -0.7388  0.3578
12872TIP3    H260108   2.321   3.994   0.898 -0.8109  0.5676 -0.6101
12873TIP3   OH260109   1.608   3.779  12.192 -0.2346  0.1803 -0.7071
12873TIP3    H160110   1.630   3.844  12.259 -2.2559  1.0950 -0.8986
12873TIP3    H260111   1.675   3.790  12.125 -0.4171  1.9307 -0.6245
12874TIP3   OH260112   0.080   4.548   1.677  0.3725 -0.4804 -0.4088
12874TIP3    H160113   0.108   4.496   1.752 -1.4977 -1.8276 -0.6169
12874TIP3    H260114   0.139   4.521   1.606  0.6975 -0.8555  0.0019
12875TIP3   OH260115   6.298   4.355   6.528  0.1452 -0.0134  0.3680
12875TIP3    H160116   6.215   4.311   6.505  0.7167 -0.5547 -0.7223
12875TIP3    H260117   6.359   4.326   6.461  1.1759  0.5520  1.0535
12876TIP3   OH260118   1.233   0.644   2.615  0.0943 -0.2435  0.0319
12876TIP3    H160119   1.167   0.677   2.677 -0.5910 -0.3647 -0.6323
12876TIP3    H260120   1.283   0.580   2.666 -2.8708 -3.1722 -0.5650
12877TIP3   OH260121   3.407   2.552   4.209  0.3898 -0.3809 -0.1330
12877TIP3    H160122   3.335   2.499   4.242 -0.6678 -0.2527 -2.1229
12877TIP3    H260123   3.403   2.540   4.114  2.1600  0.6899 -0.3607
12878TIP3   OH260124   2.214   3.962  14.136  0.0428  0.5212 -0.2773
12878TIP3    H160125   2.163   4.041  14.150 -2.4659 -1.0021 -0.5520
12878TIP3    H260126   2.199   3.939  14.044 -1.9827 -2.0498  0.6118
12879TIP3   OH260127   1.958   4.690  13.235  0.0099 -0.1755  0.6394
12879TIP3    H160128   1.982   4.597  13.238 -0.2438 -0.2018  2.0577
12879TIP3    H260129   1.871   4.693  13.276 -1.8327  0.1305 -2.9910
12880TIP3   OH260130   4.434   6.356  11.706  0.4248  0.1555  0.1642
12880TIP3    H160131   4.428   6.356  11.610  1.5787  1.8262  0.0670
12880TIP3    H260132   4.501   6.290  11.725  2.0394  1.6015 -0.3542
12881TIP3   OH260133   1.345   1.107  13.519  0.7290  0.4007 -0.4437
12881TIP3    H160134   1.322   1.089  13.428 -2.1677  0.1861  0.2579
12881TIP3    H260135   1.411   1.042  13.541 -2.3777 -3.0932 -0.9004
12882TIP3   OH260136   3.962   1.829   3.291  0.0926  0.0533  0.8111
12882TIP3    H160137   3.914   1.848   3.211  0.2597 -0.1347  0.6655
12882TIP3    H260138   3.927   1.891   3.355 -0.3876 -0.1206  0.7253
12883TIP3   OH260139   5.709   1.780   5.940  0.3238 -0.0525 -0.3164
12883TIP3    H160140   5.744   1.771   6.029  1.7297  0.7371 -0.7702
12883TIP3    H260141   5.653   1.704   5.929 -1.2305  0.7001  1.8544
12884TIP3   OH260142   2.916   5.113  12.983 -0.4021  0.1270  0.4903
12884TIP3    H160143   2.947   5.063  12.908  0.8689 -0.0278  1.1079
12884TIP3    H260144   2.852   5.174  12.947 -2.2847 -2.2007 -0.2080
12885TIP3   OH260145   6.043   5.907  14.834  0.1137 -0.2959 -0.1208
12885TIP3    H160146   6.127   5.865  14.816  0.7002  0.2897  1.1591
12885TIP3    H260147   5.981   5.834  14.845  0.8002 -0.7795  0.5733
12886TIP3   OH260148   0.029   3.719  14.065  0.0700  0.0265 -0.5043
12886TIP3    H160149   0.108   3.703  14.014  0.6186  1.3808 -0.1021
12886TIP3    H260150   0.009   3.812  14.051  0.5565  0.5684  2.1525
12887TIP3   OH260151   5.704   4.981  16.612 -0.0753 -0.7401  0.5377
12887TIP3    H160152   5.769   5.044  16.642 -0.2218 -0.5259  0.4030
12887TIP3    H260153   5.667   4.944  16.692 -0.0938 -0.5514  0.6154
12888TIP3   OH260154   1.257   4.566   0.776  0.2356 -0.5752 -0.5769
12888TIP3    H160155   1.217   4.575   0.690 -0.3447  0.2279 -0.2285
12888TIP3    H260156   1.297   4.651   0.793 -2.7712  0.5191  1.4795
12889TIP3   OH260157   3.493   1.595  14.084 -0.3535  0.0030  0.3488
12889TIP3    H160158   3.512   1.671  14.028 -2.0598  0.5839  0.5245
12889TIP3    H260159   3.463   1.528  14.023 -1.0523  0.2342  0.4375
12890TIP3   OH260160   0.854   3.448   1.766 -0.6786  0.2677 -0.4802
12890TIP3    H160161   0.764   3.473   1.746 -0.8147 -0.9628 -1.4868
12890TIP3    H260162   0.898   3.449   1.681  0.0789  0.1886 -0.0872
12891TIP3   OH260163   2.982   5.022  11.691 -0.5235  0.6501 -0.2974
12891TIP3    H160164   2.918   4.976  11.637  0.0498 -0.3920 -0.1030
12891TIP3    H260165   2.934   5.097  11.728 -1.6326 -0.1353 -0.1321
12892TIP3   OH260166   5.195   5.831   3.904 -0.2084  0.1386 -0.2525
12892TIP3    H160167   5.276   5.804   3.861 -2.1781 -2.3438 -2.5974
12892TIP3    H260168   5.176   5.918   3.868  0.1444 -0.3001 -1.5074
12893TIP3   OH260169   5.475   2.455  13.539 -0.1971  0.0059 -0.2817
12893TIP3    H160170   5.559   2.420  13.510  0.1556  1.6745 -1.3663
12893TIP3    H260171   5.475   2.444  13.634  0.6140 -1.3404 -0.4320
12894TIP3   OH260172   4.274   0.913   2.668  0.1052 -0.1769 -0.6964
12894TIP3    H160173   4.361   0.874   2.675 -0.3630 -0.8801  1.8433
12894TIP3    H260174   4.215   0.845   2.700 -1.1157  1.1965  0.0351
12895TIP3   OH260175   2.907   6.084   0.060  0.3267 -0.7568 -0.4124
12895TIP3    H160176   2.815   6.072   0.037  0.0608 -0.9879  0.7563
12895TIP3    H260177   2.917   6.040   0.144  0.9636  1.2753  0.6069
12896TIP3   OH260178   5.811   5.661   4.497  1.0038 -0.5000 -0.2485
12896TIP3    H160179   5.846   5.681   4.584  0.5549 -2.1938  0.3414
12896TIP3    H260180   5.720   5.636   4.514  0.3325  1.0687 -1.4426
12897TIP3   OH260181   4.874   4.950   6.490  0.7833 -0.0104 -0.7231
12897TIP3    H160182   4.947   5.011   6.477  0.6571  0.0142 -1.3459
12897TIP3    H260183   4.908   4.865   6.462  1.0592 -0.2975  0.4377
12898TIP3   OH260184   5.954   2.312   5.021  0.1448 -0.5146  0.2931
12898TIP3    H160185   5.940   2.219   5.040 -0.4394 -0.4421  0.2463
12898TIP3    H260186   5.995   2.313   4.935 -1.3329 -0.6817 -0.4341
12899TIP3   OH260187   5.299   0.790  13.078 -0.1610 -0.0228 -0.1456
12899TIP3    H160188   5.307   0.782  13.173  3.6448  1.9009 -0.2113
12899TIP3    H260189   5.257   0.875  13.065 -0.3858 -0.1421 -0.2022
12900TIP3   OH260190   1.801   6.372   2.465  0.3740 -0.1502 -0.3713
12900TIP3    H160191   1.770   6.319   2.539 -2.0577  1.0877 -0.4648
12900TIP3    H260192   1.728   6.431   2.446  1.5477  0.5510 -2.8223
12901TIP3   OH260193   2.750   2.913   1.716  0.0865 -0.0650 -0.5800
12901TIP3    H160194   2.806   2.974   1.669  0.0074  0.3661 -0.1193
12901TIP3    H260195   2.669   2.910   1.666  0.5209 -0.6947 -1.2535
12902TIP3   OH260196   5.946   4.476   3.874 -0.1547  0.2292  0.9393
12902TIP3    H160197   6.029   4.429   3.879 -0.3860 -0.1749  1.0080
12902TIP3    H260198   5.879   4.407   3.879 -0.4882  0.5335  0.6671
12903TIP3   OH260199   5.028   2.607  11.542 -0.4616 -0.3377  0.6716
12903TIP3    H160200   4.960   2.672  11.559 -0.7587 -0.2690 -0.7507
12903TIP3    H260201   5.014   2.540  11.608 -0.6340  0.6642  1.6711
12904TIP3   OH260202   3.332   4.987   2.985  0.4675  0.3572  0.0934
12904TIP3    H160203   3.265   4.992   3.054 -1.0560  1.3425 -1.4044
12904TIP3    H260204   3.365   4.898   2.990 -0.1598  0.1949  1.6131
12905TIP3   OH260205   6.304   5.426   0.915 -0.0718  0.3776 -0.2718
12905TIP3    H160206   6.280   5.356   0.975  0.6299 -0.0949 -0.5394
12905TIP3    H260207   6.272   5.396   0.830 -0.5206  0.7713 -0.2507
12906TIP3   OH260208   3.321   3.249  13.768 -0.0284  0.2146  0.5907
12906TIP3    H160209   3.315   3.165  13.722 -0.8642 -0.9466  2.7840
12906TIP3    H260210   3.230   3.275  13.783  0.1610  2.5525 -1.8427
12907TIP3   OH260211   3.280   1.608  16.371 -0.2776  0.0963  0.3081
12907TIP3    H160212   3.334   1.648  16.439 -0.3710 -1.3399  1.2654
12907TIP3    H260213   3.261   1.521  16.405 -2.1624  0.1416 -0.5823
12908TIP3   OH260214   2.646   5.466  11.635  0.3656  0.5713  0.6559
12908TIP3    H160215   2.706   5.393  11.628  0.1432  0.5781 -1.9622
12908TIP3    H260216   2.559   5.427  11.625  0.2377  1.1393 -0.6047
12909TIP3   OH260217   3.687   1.562  13.080 -0.9132  0.4182 -0.1302
12909TIP3    H160218   3.731   1.575  13.163 -1.6403 -2.2745  0.7086
12909TIP3    H260219   3.594   1.562  13.101 -1.0681 -1.6173 -0.7114
12910TIP3   OH260220   6.137   4.189  14.210 -0.2169  0.2632  0.8498
12910TIP3    H160221   6.077   4.147  14.272  0.8052 -0.4995  1.3329
12910TIP3    H260222   6.195   4.241  14.265 -0.7246  1.3808  0.3455
12911TIP3   OH260223   0.264   1.827   0.171 -0.1121 -0.6546 -0.1419
12911TIP3    H160224   0.326   1.760   0.201  3.7285  1.2706 -3.2573
12911TIP3    H260225   0.219   1.786   0.097 -1.6021 -1.5170  1.1894
12912TIP3   OH260226   2.309   0.497  11.046  0.4285  0.1692  0.2023
12912TIP3    H160227   2.271   0.570  10.997  2.0007  0.2829 -0.8801
12912TIP3    H260228   2.249   0.424  11.030  0.8949  0.2169 -1.8817
12913TIP3   OH260229   2.228   4.359   4.573  0.0848  0.0279 -0.0554
12913TIP3    H160230   2.150   4.311   4.547 -0.2000  0.2241  0.4282
12913TIP3    H260231   2.288   4.292   4.606  0.2378 -0.1568 -0.6921
12914TIP3   OH260232   3.248   4.318  12.824  0.4447 -0.1678 -0.3682
12914TIP3    H160233   3.317   4.362  12.774 -0.4958 -1.3124 -2.7335
12914TIP3    H260234   3.167   4.361  12.797 -0.1864 -1.5156 -0.6507
12915TIP3   OH260235   2.026   0.748   5.061 -0.2235 -0.4692 -0.1526
12915TIP3    H160236   2.089   0.703   5.004 -0.9983 -1.5562 -0.1441
12915TIP3    H260237   1.948   0.694   5.059 -0.9510  0.5491  0.3574
12916TIP3   OH260238   6.384   6.028  11.987  0.4769 -0.4084 -0.0118
12916TIP3    H160239   6.361   6.023  12.080 -3.1931  0.1383 -0.8370
12916TIP3    H260240   6.397   5.936  11.962  1.8327 -0.5400  1.0811
12917TIP3   OH260241   4.885   5.020   4.197 -0.1869  0.2064  0.5685
12917TIP3    H160242   4.956   5.014   4.261 -0.0345  0.6936  0.4514
12917TIP3    H260243   4.827   4.947   4.218 -0.1264  0.3544  1.2502
12918TIP3   OH260244   4.986   6.526  14.043  0.1858 -0.1911 -0.0845
12918TIP3    H160245   4.914   6.588  14.038  1.1156  0.9476  0.3919
12918TIP3    H260246   4.982   6.476  13.962 -1.5297 -0.5800  0.2304
12919TIP3   OH260247   4.608   4.486  11.624 -0.1025 -0.4447 -0.1240
12919TIP3    H160248   4.543   4.480  11.554  0.8538 -0.5688 -1.0149
12919TIP3    H260249   4.571   4.435  11.696 -0.6721 -1.1015 -0.8699
12920TIP3   OH260250   6.740   6.817  13.307 -0.0123 -0.2763  0.0510
12920TIP3    H160251   6.736   6.859  13.393 -0.7288 -1.5630  0.6547
12920TIP3    H260252   6.825   6.844  13.271  1.9315 -2.5753  2.6619
12921TIP3   OH260253   2.256   4.734   0.155  0.1730  0.3465 -0.7678
12921TIP3    H160254   2.258   4.643   0.186  0.3197 -0.1859 -2.3057
12921TIP3    H260255   2.184   4.774   0.203  0.0687 -0.6010 -0.1195
12922TIP3   OH260256   4.853   4.123   0.733  0.6503  0.3598  0.1683
12922TIP3    H160257   4.948   4.125   0.746  0.5542 -1.0452  1.2463
12922TIP3    H260258   4.830   4.214   0.712  2.3512  0.5311 -1.0805
12923TIP3   OH260259   1.654   3.791  15.619 -0.5408 -0.5328 -0.0524
12923TIP3    H160260   1.587   3.830  15.563 -2.1223 -0.6451  1.7061
12923TIP3    H260261   1.604   3.736  15.680  1.3791 -2.7257 -0.4063
12924TIP3   OH260262   3.396   2.633   5.169  0.3361  0.2701 -0.0186
12924TIP3    H160263   3.348   2.647   5.087  0.2046  0.9312  0.1673
12924TIP3    H260264   3.338   2.578   5.222  0.0350  0.5830 -0.0225
12925TIP3   OH260265   5.009   1.932   0.741 -0.5422 -0.2439  0.5324
12925TIP3    H160266   4.988   1.987   0.817 -0.5199  0.2155  0.2072
12925TIP3    H260267   5.026   1.846   0.778  0.2613  0.1734  1.1370
12926TIP3   OH260268   5.428   5.075  15.944  0.1173 -0.1469  0.2313
12926TIP3    H160269   5.334   5.083  15.927 -0.2555 -1.6355  1.4960
12926TIP3    H260270   5.469   5.092  15.859 -1.3021  0.0602 -0.4323
12927TIP3   OH260271   0.259   5.337   3.495 -0.1702 -0.1162 -0.1260
12927TIP3    H160272   0.275   5.312   3.586 -0.6381 -1.1508 -0.3260
12927TIP3    H260273   0.341   5.317   3.450 -0.5945 -1.4295 -0.3148
12928TIP3   OH260274   3.556   0.018   1.083 -1.1160 -0.0637  0.1236
12928TIP3    H160275   3.491   0.071   1.037 -0.8374  0.6040  0.4950
12928TIP3    H260276   3.637   0.030   1.034 -1.3071 -1.0243 -0.4331
12929TIP3   OH260277   3.172   3.684   5.513  0.0600  0.6967 -0.2263
12929TIP3    H160278   3.211   3.600   5.539  0.3762  1.1779  0.8861
12929TIP3    H260279   3.243   3.747   5.522 -0.3332  1.1785 -0.5146
12930TIP3   OH260280   5.007   4.488   1.689 -0.1537  0.3220  0.1016
12930TIP3    H160281   5.037   4.471   1.600 -0.7949 -0.5540  0.0462
12930TIP3    H260282   4.917   4.458   1.690  0.3613 -1.2413  1.5042
12931TIP3   OH260283   1.512   5.520   3.378 -0.8250 -0.2147  0.5195
12931TIP3    H160284   1.531   5.459   3.449  0.3209 -0.4611  0.0096
12931TIP3    H260285   1.524   5.469   3.299 -1.2140  0.3076  0.1202
12932TIP3   OH260286   6.812   5.239  16.086  0.0767  0.2834  0.3438
12932TIP3    H160287   6.862   5.257  16.007  0.7807 -0.7277  0.5615
12932TIP3    H260288   6.739   5.185  16.057 -0.2693  0.8241  0.2082
12933TIP3   OH260289   6.764   6.699   5.540 -0.4548  0.0111 -0.2441
12933TIP3    H160290   6.705   6.686   5.614  0.7114 -0.0098  0.6907
12933TIP3    H260291   6.818   6.619   5.538  0.4075  0.5876 -0.2852
12934TIP3   OH260292   2.101   5.330   0.918  0.1098  0.4342  0.5167
12934TIP3    H160293   2.140   5.247   0.946  3.8071  1.4183 -1.4618
12934TIP3    H260294   2.073   5.372   1.000  1.0817 -1.3492  1.8041
12935TIP3   OH260295   4.503   3.930  16.442 -0.1369  0.1991  0.0872
12935TIP3    H160296   4.414   3.932  16.477 -0.4069  0.7796 -0.6048
12935TIP3    H260297   4.547   4.004  16.485 -0.8663  1.7674 -1.7845
12936TIP3   OH260298   1.592   6.104  12.093  0.1059 -0.0252 -0.0005
12936TIP3    H160299   1.546   6.050  12.156  0.3574  0.4897  0.6268
12936TIP3    H260300   1.548   6.087  12.009 -0.3152 -0.5937  0.3382
12937TIP3   OH260301   0.003   2.148   4.810  0.0196 -0.5780 -0.1649
12937TIP3    H160302   0.071   2.109   4.755  0.6066  0.6303 -0.3353
12937TIP3    H260303  -0.056   2.191   4.748  0.9249  1.1588  0.1473
12938TIP3   OH260304   0.012   0.731   0.383  0.4615 -0.3346  0.1533
12938TIP3    H160305  -0.012   0.707   0.294  2.5465 -0.6798 -0.3490
12938TIP3    H260306   0.018   0.648   0.430  1.7670 -0.3713 -0.0426
12939TIP3   OH260307   4.582   3.506   2.478 -0.0181  0.5292 -0.0823
12939TIP3    H160308   4.561   3.581   2.534 -0.7207  0.9847 -0.9445
12939TIP3    H260309   4.658   3.535   2.426  0.0152  0.4638 -0.0711
12940TIP3   OH260310   3.348   2.401  11.136  0.5867 -0.1304 -0.2744
12940TIP3    H160311   3.444   2.397  11.141  0.6609 -0.6511 -1.7307
12940TIP3    H260312   3.326   2.488  11.169  1.4064 -0.7053  1.8649
12941TIP3   OH260313   0.653   5.121   3.759  1.0184 -0.3302 -0.7499
12941TIP3    H160314   0.663   5.099   3.852 -0.3445  0.3476 -0.4304
12941TIP3    H260315   0.712   5.061   3.714  3.6600  1.0827  0.7209
12942TIP3   OH260316   4.185   4.478  13.345 -0.1894 -0.3254 -0.3418
12942TIP3    H160317   4.238   4.551  13.377 -0.7854  0.6607 -1.5589
12942TIP3    H260318   4.165   4.501  13.254 -2.2297 -0.9339 -0.0711
12943TIP3   OH260319   1.221   6.096   3.469 -0.9563 -0.4077  0.1994
12943TIP3    H160320   1.275   6.017   3.467 -1.4892 -0.7760  0.3062
12943TIP3    H260321   1.282   6.167   3.448 -0.3909 -0.7952  0.5164
12944TIP3   OH260322   3.739   5.885  14.188 -0.2116  0.7926 -0.2139
12944TIP3    H160323   3.664   5.832  14.213 -0.1224  0.2722 -1.0530
12944TIP3    H260324   3.815   5.831  14.210 -0.1095  0.7698 -0.6244
12945TIP3   OH260325   1.340   1.198   3.484  0.8094 -0.2183 -0.0688
12945TIP3    H160326   1.401   1.167   3.551  1.8517  1.2501 -0.3287
12945TIP3    H260327   1.265   1.232   3.533  1.8852  1.5275  0.4021
12946TIP3   OH260328   5.731   1.193  12.567 -0.8451  0.4901 -0.4518
12946TIP3    H160329   5.743   1.251  12.642  2.3162 -2.3970  1.4121
12946TIP3    H260330   5.662   1.132  12.593 -0.5645  0.2191 -0.3347
12947TIP3   OH260331   0.795   0.716  14.652 -0.5440  0.0808 -0.0042
12947TIP3    H160332   0.866   0.778  14.636 -0.7798  0.4534  0.4066
12947TIP3    H260333   0.735   0.761  14.710 -2.3014  0.6030 -2.1590
12948TIP3   OH260334   4.954   1.006   3.709  0.1601  0.0957  0.2752
12948TIP3    H160335   4.932   0.916   3.731  1.4584 -0.6461 -1.3802
12948TIP3    H260336   4.928   1.057   3.786  0.3271 -1.8031  1.6096
12949TIP3   OH260337   5.403   6.095  12.821  0.4913 -0.1852  0.3179
12949TIP3    H160338   5.456   6.034  12.872  0.1638 -1.1134 -0.4357
12949TIP3    H260339   5.412   6.065  12.731 -0.3911  0.3464  0.0483
12950TIP3   OH260340   6.745   4.400  13.245  0.0055  0.5037 -0.4846
12950TIP3    H160341   6.727   4.395  13.338 -2.2184 -0.5390 -0.9265
12950TIP3    H260342   6.699   4.478  13.215 -1.8143 -0.7685 -1.1737
12951TIP3   OH260343   0.484   1.742   0.847 -0.2446 -0.5010 -0.5529
12951TIP3    H160344   0.483   1.797   0.768  1.1858 -0.2862 -0.4282
12951TIP3    H260345   0.566   1.693   0.842  0.9887  1.2041  1.9359
12952TIP3   OH260346   5.655   6.451   0.052 -0.9367  0.6959 -0.1126
12952TIP3    H160347   5.741   6.487   0.031 -0.6842  1.0705  1.5165
12952TIP3    H260348   5.603   6.527   0.077 -1.5691  0.3889 -0.4761
12953TIP3   OH260349   5.158   4.421   5.567  0.4297  0.7861  0.2849
12953TIP3    H160350   5.201   4.345   5.528  0.7398  1.5928 -0.9677
12953TIP3    H260351   5.226   4.488   5.570 -0.6866  2.0679 -1.6762
12954TIP3   OH260352   4.602   1.348  14.496 -0.1617 -0.4419  0.0846
12954TIP3    H160353   4.603   1.305  14.410  0.8305 -0.9534  0.3374
12954TIP3    H260354   4.567   1.281  14.555 -0.9733 -0.0433  0.0577
12955TIP3   OH260355   1.875   5.996  11.901 -0.1076  0.1306 -0.4497
12955TIP3    H160356   1.944   6.058  11.926  0.2445 -0.9960  1.4058
12955TIP3    H260357   1.808   6.006  11.968 -0.5228 -0.7544 -0.7264
12956TIP3   OH260358   2.884   0.336   1.311 -0.0592 -0.0189 -0.3408
12956TIP3    H160359   2.826   0.413   1.317 -0.7625 -0.5773  0.1740
12956TIP3    H260360   2.868   0.301   1.224  0.6523  0.7148 -0.7763
12957TIP3   OH260361   3.894   2.625  16.297 -0.0088  0.4008 -0.1218
12957TIP3    H160362   3.988   2.636  16.306  0.1849 -1.2702 -0.0771
12957TIP3    H260363   3.881   2.533  16.276 -1.6681  0.5162  0.2643
12958TIP3   OH260364   3.936   5.880   4.570  0.2405  0.0967  0.3707
12958TIP3    H160365   3.921   5.823   4.646 -0.1624 -1.5315 -0.8867
12958TIP3    H260366   3.855   5.930   4.560  0.3255  0.3704  1.0650
12959TIP3   OH260367   4.835   3.829  13.682  0.0589 -0.3313  0.1815
12959TIP3    H160368   4.850   3.734  13.678 -0.4161 -0.5030  2.0863
12959TIP3    H260369   4.832   3.856  13.590 -1.8108 -2.4859 -0.4599
12960TIP3   OH260370   0.673   0.796   2.273 -1.0270 -0.7827  0.0727
12960TIP3    H160371   0.768   0.801   2.265 -0.9696 -1.9765 -0.0512
12960TIP3    H260372   0.651   0.860   2.341  0.0123 -1.5947  1.1824
12961TIP3   OH260373   1.588   4.296   3.618  0.5024  0.1729 -0.0144
12961TIP3    H160374   1.532   4.343   3.679 -0.9538 -1.0334 -0.4049
12961TIP3    H260375   1.665   4.272   3.669 -1.2101 -1.8257  1.6842
12962TIP3   OH260376   4.309   1.821   3.938  0.0561  0.4109  0.3884
12962TIP3    H160377   4.254   1.848   4.011  0.6897  0.2649  0.9224
12962TIP3    H260378   4.322   1.900   3.886  1.7127  1.1212  1.8242
12963TIP3   OH260379   1.831   2.457  15.882  0.1478 -0.1453 -0.1354
12963TIP3    H160380   1.827   2.389  15.949  1.8732  0.5167  0.6822
12963TIP3    H260381   1.855   2.537  15.930  0.6874  0.4869 -1.4316
12964TIP3   OH260382   0.781   4.746   4.894 -0.0877  0.5564  0.3904
12964TIP3    H160383   0.858   4.689   4.885  0.2643  0.7918  1.9281
12964TIP3    H260384   0.815   4.835   4.886 -0.0472  0.6993  2.1498
12965TIP3   OH260385   4.789   6.142  11.943  0.1645 -0.0823 -0.0025
12965TIP3    H160386   4.880   6.126  11.918  0.5492 -0.5718  1.6194
12965TIP3    H260387   4.794   6.218  12.002 -0.2397 -1.1854  1.4858
12966TIP3   OH260388   4.191   0.939   3.504 -0.0966  0.5747 -0.4759
12966TIP3    H160389   4.279   0.942   3.543 -0.2226 -0.3307 -0.1191
12966TIP3    H260390   4.181   1.025   3.462  1.3829  0.3108 -1.4211
12967TIP3   OH260391   4.980   6.480   1.245  0.2167 -0.6913  0.5483
12967TIP3    H160392   5.031   6.482   1.164  1.5493 -0.4951  1.3617
12967TIP3    H260393   4.964   6.387   1.261  3.9456 -1.1444  2.4196
12968TIP3   OH260394   6.649   4.956   0.117 -0.5955 -0.0049  0.5132
12968TIP3    H160395   6.586   5.027   0.129  1.2851  1.8202 -0.0854
12968TIP3    H260396   6.718   4.974   0.181  1.2267  0.2450 -1.4737
12969TIP3   OH260397   5.908   5.819  11.662 -0.1199 -0.7605 -0.4241
12969TIP3    H160398   5.822   5.839  11.700 -0.2060 -1.1479 -0.4115
12969TIP3    H260399   5.945   5.904  11.639 -0.4106 -0.5784 -0.2157
12970TIP3   OH260400   2.884   2.856  12.479 -0.1556 -0.0730 -0.1901
12970TIP3    H160401   2.792   2.871  12.459 -0.3944 -1.3287 -0.1316
12970TIP3    H260402   2.887   2.764  12.507  1.2367 -0.2545 -0.9066
12971TIP3   OH260403   5.359   3.335  12.100  0.1044 -0.0432 -0.3378
12971TIP3    H160404   5.430   3.286  12.142  0.2779  0.2136 -0.3268
12971TIP3    H260405   5.280   3.287  12.124  0.3093 -0.5462 -0.6648
12972TIP3   OH260406   3.221   1.344   1.480 -0.8085  0.3702  0.7175
12972TIP3    H160407   3.233   1.289   1.557 -1.2863  0.9383  1.2026
12972TIP3    H260408   3.232   1.285   1.406  0.3765 -0.0360  1.2107
12973TIP3   OH260409   5.136   2.628   2.077  0.2570  0.3748 -0.2012
12973TIP3    H160410   5.102   2.579   2.152 -0.2892  1.7973  0.4984
12973TIP3    H260411   5.057   2.663   2.034  0.6766  1.1695 -0.3257
12974TIP3   OH260412   2.103   3.669   2.544  0.2626 -0.4920  0.3875
12974TIP3    H160413   2.061   3.585   2.566 -0.2679  0.4878  3.2919
12974TIP3    H260414   2.060   3.733   2.601  1.4517  1.5909 -0.9914
12975TIP3   OH260415   2.817   3.538   3.642 -0.5272 -0.3773 -0.0168
12975TIP3    H160416   2.894   3.507   3.595  0.1777  0.1699  0.7697
12975TIP3    H260417   2.756   3.567   3.573 -0.3909 -1.6351 -0.6650
12976TIP3   OH260418   0.908   4.503  13.896  0.4343 -0.1512  0.3530
12976TIP3    H160419   0.947   4.442  13.958 -2.6476 -0.7790  1.8045
12976TIP3    H260420   0.892   4.582  13.947  0.3661  0.2835 -0.3351
12977TIP3   OH260421   3.638   4.156  11.055 -0.1495  0.1104  0.2531
12977TIP3    H160422   3.624   4.067  11.021  0.5871 -0.1526  0.6258
12977TIP3    H260423   3.665   4.207  10.978 -1.0869  0.1425 -0.0652
12978TIP3   OH260424   2.767   4.078  16.737 -0.2406  0.0479 -1.0431
12978TIP3    H160425   2.795   4.042  16.821 -1.4543 -0.7105 -0.9546
12978TIP3    H260426   2.848   4.107  16.695  0.3611  0.5169  0.4199
12979TIP3   OH260427   3.033   0.506   1.661  0.3065  0.1028  0.2929
12979TIP3    H160428   3.021   0.557   1.582 -2.5992 -3.4575 -1.7022
12979TIP3    H260429   3.061   0.420   1.630  1.7207 -0.6118  3.3206
12980TIP3   OH260430   0.821   2.519  17.080  0.1797 -0.2667 -0.2484
12980TIP3    H160431   0.916   2.530  17.074  0.5515 -3.2008 -0.2561
12980TIP3    H260432   0.792   2.595  17.131  2.6441  0.1787  0.5888
12981TIP3   OH260433   2.009   3.946  16.181 -0.2141  0.1646  0.3025
12981TIP3    H160434   1.969   3.957  16.095  0.2381  0.4218  0.1226
12981TIP3    H260435   1.950   3.990  16.242  1.0270  2.7354 -0.2635
12982TIP3   OH260436   3.919   5.448   4.870  0.1556  0.2527  0.1739
12982TIP3    H160437   3.972   5.518   4.908  2.8655 -1.0499 -1.0796
12982TIP3    H260438   3.979   5.374   4.862 -1.7431 -1.1429 -1.6989
12983TIP3   OH260439   5.627   1.159  17.203 -0.4560 -0.3368 -0.0274
12983TIP3    H160440   5.641   1.079  17.253 -0.4539 -0.3706 -0.0829
12983TIP3    H260441   5.672   1.144  17.120 -0.0656 -0.1039  0.1385
12984TIP3   OH260442   5.373   4.574   5.550 -0.1705 -0.1161  0.0223
12984TIP3    H160443   5.388   4.625   5.470 -2.1482 -0.9929 -0.9704
12984TIP3    H260444   5.451   4.520   5.560  0.6580  0.9617 -0.5823
12985TIP3   OH260445   1.738   2.275  13.679 -0.2505  0.1404  0.3470
12985TIP3    H160446   1.741   2.246  13.587  0.5000  0.6850  0.1951
12985TIP3    H260447   1.690   2.206  13.724  1.1681 -1.1504 -0.0892
12986TIP3   OH260448   1.459   0.120   4.837  0.3741  0.7062  0.5774
12986TIP3    H160449   1.417   0.202   4.810  0.1074  0.6819  0.9088
12986TIP3    H260450   1.527   0.105   4.772  0.0104  0.8630  0.1575
12987TIP3   OH260451   1.593   3.784   2.174  0.2657  0.1149 -0.7510
12987TIP3    H160452   1.676   3.763   2.216 -1.4437 -0.0129  2.6874
12987TIP3    H260453   1.549   3.700   2.163 -0.6322  0.4680  0.1094
12988TIP3   OH260454   6.544   3.178   2.555  0.1623  0.1880  0.0896
12988TIP3    H160455   6.531   3.263   2.598 -1.1935 -0.2698  0.5811
12988TIP3    H260456   6.556   3.200   2.463  1.2658  1.0229  0.4097
12989TIP3   OH260457   6.347   1.048   2.340  0.9563  0.1901 -0.9387
12989TIP3    H160458   6.330   1.117   2.403  1.0041 -0.4581 -0.1982
12989TIP3    H260459   6.280   1.059   2.272  0.7952  0.7826 -0.6837
12990TIP3   OH260460   4.323   4.059   5.034  0.2352  0.3543 -0.4425
12990TIP3    H160461   4.319   4.047   5.128  1.7573 -0.3661 -0.4566
12990TIP3    H260462   4.347   3.973   4.999 -2.6377 -0.0140 -1.7000
12991TIP3   OH260463   2.968   5.328   5.612 -0.1522 -0.5559  0.4426
12991TIP3    H160464   2.889   5.274   5.606 -0.1745 -0.4410 -0.3091
12991TIP3    H260465   3.038   5.266   5.631 -0.0413 -0.9674 -1.2317
12992TIP3   OH260466   6.201   1.966   4.773 -0.0523  0.5594  0.1139
12992TIP3    H160467   6.295   1.973   4.783 -0.1391 -0.2317  1.6699
12992TIP3    H260468   6.175   1.900   4.837 -1.8240  1.7467  0.6712
12993TIP3   OH260469   1.078   0.654   0.777 -0.2363  0.6755 -0.0224
12993TIP3    H160470   1.101   0.684   0.690 -1.9711 -2.1885 -1.5576
12993TIP3    H260471   1.068   0.559   0.768 -2.5891  0.5655  2.7839
12994TIP3   OH260472   4.206   2.372  15.452 -0.2569  0.3061  0.5982
12994TIP3    H160473   4.230   2.297  15.399  0.8087 -0.1496  1.7169
12994TIP3    H260474   4.252   2.360  15.535 -1.1128  1.5120  1.2798
12995TIP3   OH260475   6.034   3.735  15.326 -0.4518  0.3168 -0.1228
12995TIP3    H160476   5.971   3.737  15.253  0.5921  0.1364 -1.0397
12995TIP3    H260477   6.119   3.742  15.284  0.0414  4.6054  1.3266
12996TIP3   OH260478   4.832   5.865  11.536  0.2815  0.1149  0.7736
12996TIP3    H160479   4.891   5.917  11.482  0.5767  0.5955  1.5482
12996TIP3    H260480   4.890   5.817  11.595 -0.1054  0.9168  1.8243
12997TIP3   OH260481   1.697   5.463  14.323  0.2541  0.4354 -0.3534
12997TIP3    H160482   1.791   5.458  14.342  0.8007 -2.3043 -3.3321
12997TIP3    H260483   1.688   5.542  14.269  0.7070  1.0873  0.5076
12998TIP3   OH260484   6.076   6.756   4.326 -0.1147  0.3138  0.2761
12998TIP3    H160485   6.096   6.709   4.407  0.8749  2.2161  1.1904
12998TIP3    H260486   5.984   6.738   4.309  0.1557 -1.6283  0.7809
12999TIP3   OH260487   1.329   6.635   6.677  1.0835  0.0024 -0.3457
12999TIP3    H160488   1.356   6.558   6.628  1.7361  0.9315 -1.4547
12999TIP3    H260489   1.357   6.617   6.767 -3.0527 -3.1563  0.4756
13000TIP3   OH260490   1.020   5.476   0.891  0.1165  0.6021  0.4292
13000TIP3    H160491   1.076   5.455   0.816  0.3828 -3.0024  1.5022
13000TIP3    H260492   0.931   5.457   0.861  0.3673 -2.6259  1.4362
13001TIP3   OH260493   3.834   6.317   1.806 -0.0735  0.0670 -0.5050
13001TIP3    H160494   3.902   6.378   1.835 -2.4270  2.5754  0.0072
13001TIP3    H260495   3.853   6.236   1.852  2.6070  0.6499 -0.4616
13002TIP3   OH260496   2.443   4.637  11.506 -0.5914 -0.4768 -0.6453
13002TIP3    H160497   2.380   4.640  11.578 -1.6665 -1.2262 -1.5396
13002TIP3    H260498   2.463   4.544  11.496  3.0826 -0.0565  1.6714
13003TIP3   OH260499   0.229   3.959  11.212  0.0670  0.6084 -0.6817
13003TIP3    H160500   0.243   4.013  11.134  1.6842 -0.4547 -1.1505
13003TIP3    H260501   0.190   3.878  11.178 -2.9040  1.6622  0.0832
13004TIP3   OH260502   1.490   1.707   5.972  0.0987 -0.1455 -0.2819
13004TIP3    H160503   1.466   1.616   5.987  0.2289  0.0143  1.0287
13004TIP3    H260504   1.585   1.708   5.979  0.0502  0.1992  0.4440
13005TIP3   OH260505   5.435   5.980   4.976  0.3706 -0.1981 -0.0713
13005TIP3    H160506   5.416   5.949   4.887 -0.9066  0.6579 -0.1066
13005TIP3    H260507   5.365   6.041   4.996  0.5010 -0.5757  1.6410
13006TIP3   OH260508   1.060   4.288   5.669 -0.1854  0.0684 -0.7469
13006TIP3    H160509   1.080   4.353   5.601 -3.8605 -0.7001 -2.7193
13006TIP3    H260510   1.101   4.207   5.637  2.6253  0.8811  0.6765
13007TIP3   OH260511   2.663   6.753   3.308 -0.1100  0.3031 -0.1360
13007TIP3    H160512   2.726   6.685   3.334 -1.3041 -0.9012 -0.3425
13007TIP3    H260513   2.627   6.722   3.225  0.1405  1.7445 -0.7931
13008TIP3   OH260514   6.514   2.107   0.319 -0.3751 -0.5445 -0.5586
13008TIP3    H160515   6.467   2.183   0.351  0.0120 -1.0103  1.1551
13008TIP3    H260516   6.480   2.093   0.230 -2.0009  0.3128 -0.0836
13009TIP3   OH260517   1.979   5.093  13.353  0.0046 -0.1046 -0.5512
13009TIP3    H160518   2.054   5.084  13.411 -1.7671  1.4494  2.0399
13009TIP3    H260519   1.919   5.023  13.380 -1.5230  1.6266  0.6035
13010TIP3   OH260520   0.745   1.746   3.321 -0.1248 -0.2876  0.1237
13010TIP3    H160521   0.836   1.774   3.312 -0.1412 -1.0082 -2.8870
13010TIP3    H260522   0.750   1.668   3.376  1.1190 -0.4655 -0.2155
13011TIP3   OH260523   3.214   2.993   2.408 -0.5370 -0.3469  0.1190
13011TIP3    H160524   3.162   2.917   2.437 -0.7700 -0.4638 -0.5823
13011TIP3    H260525   3.282   2.955   2.352 -0.0629 -0.1315  0.5554
13012TIP3   OH260526   0.535   3.044   2.593  0.4266  0.2526 -0.0598
13012TIP3    H160527   0.510   2.970   2.648  1.0007 -0.6906 -1.0603
13012TIP3    H260528   0.631   3.043   2.593  0.4327  0.5831 -0.6324
13013TIP3   OH260529   3.825   5.103   0.761 -0.3615 -0.2887 -0.6863
13013TIP3    H160530   3.741   5.116   0.805  0.1841  0.2598  0.2205
13013TIP3    H260531   3.804   5.050   0.684 -1.5787  0.0886 -0.6292
13014TIP3   OH260532   4.103   2.796  11.053 -0.7970 -0.7281 -0.1167
13014TIP3    H160533   4.117   2.784  10.959  0.0095  1.1282 -0.2522
13014TIP3    H260534   4.068   2.884  11.062 -0.5617 -0.7603  1.3520
13015TIP3   OH260535   3.105   2.754   2.512 -1.1279  0.5333  0.8276
13015TIP3    H160536   3.068   2.669   2.491 -1.4629  0.9604 -0.3371
13015TIP3    H260537   3.153   2.740   2.594 -1.4831 -0.6793  0.8319
13016TIP3   OH260538   5.673   4.520  15.416  0.1932 -0.4771 -0.6704
13016TIP3    H160539   5.591   4.569  15.411  0.2672 -0.0690  1.5887
13016TIP3    H260540   5.657   4.453  15.482  2.4161  1.1874  1.6919
13017TIP3   OH260541   2.114   6.405  17.077 -0.3534 -0.0379  0.4281
13017TIP3    H160542   2.093   6.316  17.103 -0.5460  0.4144  1.8653
13017TIP3    H260543   2.209   6.412  17.090 -0.4255  0.1450  0.8344
13018TIP3   OH260544   6.529   6.507   4.651  0.8895  0.0457 -0.5642
13018TIP3    H160545   6.444   6.483   4.687  0.3226  0.0536 -1.8557
13018TIP3    H260546   6.540   6.450   4.575  2.4979 -0.6576  0.1833
13019TIP3   OH260547   3.024   6.225  11.543  0.2520 -0.4702  0.1525
13019TIP3    H160548   2.939   6.267  11.559  0.2600 -0.8094  1.1306
13019TIP3    H260549   3.003   6.133  11.531  0.3787 -0.3967 -0.6485
13020TIP3   OH260550   1.575   4.387  12.371  0.3382 -0.4481 -0.0323
13020TIP3    H160551   1.556   4.478  12.393 -0.0681 -0.8147  1.2007
13020TIP3    H260552   1.651   4.364  12.426  1.6629 -0.2757 -1.7648
13021TIP3   OH260553   0.711   3.670   2.047 -0.3700  0.4409 -0.2201
13021TIP3    H160554   0.797   3.633   2.023 -0.4757  0.4203 -0.5721
13021TIP3    H260555   0.705   3.656   2.141  0.3656  1.1853 -0.0644
13022TIP3   OH260556   0.239   1.559   0.719  0.4048  0.0662  0.2164
13022TIP3    H160557   0.308   1.613   0.757 -0.7877  1.6067  0.2046
13022TIP3    H260558   0.278   1.526   0.637  2.2418 -1.6373  1.7326
13023TIP3   OH260559   1.299   3.722   5.603 -0.5448 -0.3038 -0.5351
13023TIP3    H160560   1.335   3.757   5.521 -0.4766  1.2097  0.1270
13023TIP3    H260561   1.224   3.669   5.576  0.5452 -1.2857 -1.7124
13024TIP3   OH260562   0.083   5.721   5.706 -0.8464 -0.4620  0.3198
13024TIP3    H160563   0.106   5.645   5.654 -0.7661 -1.2128  1.4427
13024TIP3    H260564   0.117   5.796   5.656 -1.1159 -1.1374 -0.8819
13025TIP3   OH260565   5.855   4.331   6.210  0.5177  0.2477 -0.6017
13025TIP3    H160566   5.908   4.302   6.135  1.7992 -0.7279  0.6553
13025TIP3    H260567   5.911   4.394   6.256  0.4745 -0.5405  0.5544
13026TIP3   OH260568   1.225   0.516   6.685 -0.1379 -0.7275  0.3336
13026TIP3    H160569   1.283   0.486   6.755  1.2978  0.9844 -0.0977
13026TIP3    H260570   1.158   0.567   6.730 -0.3438 -1.2705  0.6506
13027TIP3   OH260571   0.531   5.556   3.817  0.0263  0.6750  0.9448
13027TIP3    H160572   0.488   5.635   3.785  1.9199  1.3850  0.0495
13027TIP3    H260573   0.515   5.556   3.911 -1.2330  1.3329  0.7347
13028TIP3   OH260574   0.061   5.103  12.752  0.6517  0.3661  0.5011
13028TIP3    H160575   0.082   5.185  12.707  2.6610 -1.1860 -1.4815
13028TIP3    H260576  -0.022   5.121  12.796  1.7347  3.9184  1.2844
13029TIP3   OH260577   2.318   2.865  14.676 -0.2210 -0.1293  0.1643
13029TIP3    H160578   2.235   2.818  14.679 -0.5753  0.5501  1.3523
13029TIP3    H260579   2.344   2.874  14.768 -0.1800  2.0026 -0.0345
13030TIP3   OH260580   2.373   1.490   0.333 -0.1123 -0.0569 -1.1517
13030TIP3    H160581   2.302   1.444   0.289  0.4803 -2.6993  0.5704
13030TIP3    H260582   2.426   1.421   0.372  1.9457  2.0056 -0.1841
13031TIP3   OH260583   0.311   2.760  10.503 -0.8744  0.0106  0.0149
13031TIP3    H160584   0.277   2.840  10.542 -2.2360 -1.0197  1.0170
13031TIP3    H260585   0.245   2.737  10.437  0.8015  1.0902 -2.1060
13032TIP3   OH260586   3.393   5.340  14.058  0.2281 -0.4403 -0.0691
13032TIP3    H160587   3.308   5.307  14.088  0.5769  1.6967  3.5143
13032TIP3    H260588   3.372   5.413  14.000 -0.4002 -0.6458 -0.0986
13033TIP3   OH260589   2.250   5.068  11.995 -0.5119  0.3901  0.2120
13033TIP3    H160590   2.299   5.025  11.925 -2.1968 -0.7691 -0.2923
13033TIP3    H260591   2.260   5.162  11.976 -0.3590  0.1117 -1.1825
13034TIP3   OH260592   1.446   1.409   5.410 -0.1199 -0.4249 -0.3530
13034TIP3    H160593   1.398   1.418   5.493 -1.3784  0.4988 -1.1606
13034TIP3    H260594   1.538   1.410   5.435 -0.4696  0.8411  0.9440
13035TIP3   OH260595   6.697   1.900   6.283  0.2106 -0.4953 -0.8090
13035TIP3    H160596   6.679   1.816   6.240  1.5059 -0.8618 -0.6468
13035TIP3    H260597   6.792   1.902   6.293  0.4620  2.0747 -3.0454
13036TIP3   OH260598   0.427   4.675  16.701  0.0782  0.2577  0.2150
13036TIP3    H160599   0.392   4.647  16.617  0.9786  1.7518 -0.6790
13036TIP3    H260600   0.351   4.675  16.760 -0.8260  0.4914 -0.9269
13037TIP3   OH260601   3.227   3.687   4.939 -0.0923  0.7674 -0.5460
13037TIP3    H160602   3.154   3.698   4.878 -1.0493  1.4658  0.7238
13037TIP3    H260603   3.217   3.758   5.002  1.0675  0.2228  0.2621
13038TIP3   OH260604   2.973   1.573   1.095 -0.1486  0.0563 -0.1003
13038TIP3    H160605   2.913   1.511   1.138 -0.2604  0.5003  0.3924
13038TIP3    H260606   2.952   1.658   1.135  0.5862  0.2666 -0.1593
13039TIP3   OH260607   3.906   2.355  13.612 -0.0703  0.1785  0.5042
13039TIP3    H160608   3.983   2.370  13.667 -0.8263  0.7411  1.4337
13039TIP3    H260609   3.910   2.423  13.545  0.1677  0.2963  0.6405
13040TIP3   OH260610   3.674   6.217   4.226  0.4827  0.5112 -0.4196
13040TIP3    H160611   3.631   6.152   4.170  0.9668  0.9243 -1.2768
13040TIP3    H260612   3.611   6.234   4.296  0.4013 -0.9728 -0.1222
13041TIP3   OH260613   4.495   4.009   4.229 -0.0638 -0.4013 -0.3680
13041TIP3    H160614   4.536   4.057   4.157  0.3583  1.7926  1.2757
13041TIP3    H260615   4.497   4.070   4.303  0.1582 -2.8392  1.7157
13042TIP3   OH260616   0.835   4.086  16.286 -0.0316 -0.0074  0.0986
13042TIP3    H160617   0.865   4.012  16.234  0.9819 -0.3071  1.0965
13042TIP3    H260618   0.830   4.159  16.223 -2.4436 -1.2326 -1.1911
13043TIP3   OH260619   0.234   2.369   5.277 -0.5233 -0.0338 -0.0040
13043TIP3    H160620   0.194   2.336   5.196 -0.9515 -1.0555  0.6222
13043TIP3    H260621   0.323   2.393   5.251 -0.2712 -1.4898 -0.5048
13044TIP3   OH260622   3.053   0.523   3.545 -0.0431 -0.0326  0.2506
13044TIP3    H160623   2.968   0.481   3.537  0.2689 -1.4851  3.5686
13044TIP3    H260624   3.114   0.462   3.502 -0.5705  0.8495 -1.8268
13045TIP3   OH260625   1.898   2.691  14.908  0.4917 -0.1558 -0.6121
13045TIP3    H160626   1.839   2.617  14.894  1.2157 -0.5149 -1.8970
13045TIP3    H260627   1.941   2.673  14.992  0.7128 -1.2225 -0.9544
13046TIP3   OH260628   5.085   6.031  16.279  0.2481 -0.3679 -0.6526
13046TIP3    H160629   5.100   5.960  16.216 -1.4892 -0.0427 -1.4472
13046TIP3    H260630   5.016   6.085  16.240  1.5389  1.7846 -0.0644
13047TIP3   OH260631   4.903   3.403   2.550 -0.0123  0.0456  0.1913
13047TIP3    H160632   4.844   3.409   2.625 -0.8922  2.0524 -0.6276
13047TIP3    H260633   4.990   3.391   2.589 -0.6602 -0.5133  1.4702
13048TIP3   OH260634   1.109   0.313  13.511  0.5844 -0.4038 -0.6051
13048TIP3    H160635   1.147   0.389  13.466 -0.7586  1.7408  1.7483
13048TIP3    H260636   1.025   0.299  13.468  0.7765 -0.4902 -0.9560
13049TIP3   OH260637   5.996   1.725  16.284 -0.2947  0.4433  0.5305
13049TIP3    H160638   5.978   1.673  16.362  1.2694  2.3159  2.1927
13049TIP3    H260639   5.918   1.714  16.230 -1.2175 -1.2473  2.1487
13050TIP3   OH260640   3.327   3.279  14.448  0.2440 -0.0370 -0.5328
13050TIP3    H160641   3.301   3.351  14.391  0.9043  0.5441 -0.0991
13050TIP3    H260642   3.314   3.312  14.536 -2.2981 -1.4694 -0.3110
13051TIP3   OH260643   1.058   0.590  12.887  0.2564 -0.3648 -0.1275
13051TIP3    H160644   1.005   0.664  12.858 -0.0550 -0.5953 -0.1567
13051TIP3    H260645   1.015   0.560  12.967  1.0378  0.1922  0.5071
13052TIP3   OH260646   0.797   1.649   4.662  0.6235 -0.1048 -0.1982
13052TIP3    H160647   0.704   1.661   4.678  0.7017  0.6566 -0.2652
13052TIP3    H260648   0.827   1.594   4.734  0.2868  0.3745  0.3183
13053TIP3   OH260649   4.135   1.153  13.116  0.4610  0.4014 -0.3859
13053TIP3    H160650   4.230   1.163  13.115  0.4903  0.1418 -1.5857
13053TIP3    H260651   4.121   1.060  13.131  0.4348  0.2112 -1.5164
13054TIP3   OH260652   3.728   1.223   4.102 -0.3874 -0.3334  0.2532
13054TIP3    H160653   3.678   1.293   4.144 -2.0809 -1.2403 -0.2090
13054TIP3    H260654   3.670   1.189   4.034  1.6437 -0.0658 -1.6815
13055TIP3   OH260655   6.412   4.895   0.422  0.1115  0.2426  0.4818
13055TIP3    H160656   6.502   4.881   0.392 -0.1917  0.0515 -0.3586
13055TIP3    H260657   6.373   4.952   0.355 -0.0656  1.2535  1.4249
13056TIP3   OH260658   2.125   6.694  15.964 -0.0776 -0.0626 -0.1437
13056TIP3    H160659   2.100   6.698  15.872  0.9981 -1.7316 -0.5274
13056TIP3    H260660   2.217   6.666  15.963  0.8176  2.5686  1.3434
13057TIP3   OH260661   1.192   2.629   3.063  0.1968 -0.2602 -0.3529
13057TIP3    H160662   1.172   2.558   3.124  1.2862 -0.2450  0.0369
13057TIP3    H260663   1.170   2.709   3.111 -0.9307 -0.3194 -0.7541
13058TIP3   OH260664   3.077   1.616   4.216 -0.5681  0.0248 -0.1476
13058TIP3    H160665   3.019   1.627   4.141 -0.2270  0.1714 -0.3917
13058TIP3    H260666   3.057   1.528   4.249 -0.6602 -0.0726 -0.4601
13059TIP3   OH260667   0.052   0.647  12.916 -0.4509  0.3273 -0.0182
13059TIP3    H160668   0.144   0.640  12.941 -0.5835 -1.8380 -0.0068
13059TIP3    H260669   0.038   0.574  12.856 -2.0816  0.8213 -0.2601
13060TIP3   OH260670   3.756   1.005   3.120  0.1087  0.1561  0.1202
13060TIP3    H160671   3.823   0.998   3.052  0.9112  1.3899  0.7707
13060TIP3    H260672   3.771   0.929   3.176  0.9942  0.4532  0.2934
13061TIP3   OH260673   6.199   4.290   3.855 -0.1764 -0.3317  0.0665
13061TIP3    H160674   6.164   4.203   3.834 -0.6612  0.1432 -1.1889
13061TIP3    H260675   6.230   4.324   3.771 -0.4070  0.8916  0.4660
13062TIP3   OH260676   1.222   5.004  15.975  0.0320  0.2183 -0.2794
13062TIP3    H160677   1.191   4.917  15.951  0.9162 -0.2774  0.3363
13062TIP3    H260678   1.308   5.011  15.935  0.3323  0.4667  0.3980
13063TIP3   OH260679   4.933   6.617  15.357  0.3951  0.1113 -0.1957
13063TIP3    H160680   4.861   6.670  15.323  0.9997 -0.5207 -2.5970
13063TIP3    H260681   4.959   6.661  15.438 -1.8894  1.0216  0.0775
13064TIP3   OH260682   1.635   5.134  16.446  0.1872 -0.5285 -0.1723
13064TIP3    H160683   1.567   5.176  16.393  0.0076  0.8461  1.1448
13064TIP3    H260684   1.680   5.206  16.489  2.2481 -1.4453 -0.7168
13065TIP3   OH260685   1.833   3.607   6.154 -0.1363 -0.2501 -0.5021
13065TIP3    H160686   1.746   3.568   6.160 -0.0975 -0.2063  0.4083
13065TIP3    H260687   1.868   3.602   6.243  0.6246  0.1206 -0.7724
13066TIP3   OH260688   0.712   6.254   5.912 -0.6039  0.1176  0.1689
13066TIP3    H160689   0.757   6.338   5.910 -0.5972  0.1342  0.9492
13066TIP3    H260690   0.633   6.270   5.964 -0.7800 -0.2678  0.0221
13067TIP3   OH260691   5.141   5.049  14.769  0.0307 -0.8803  0.4230
13067TIP3    H160692   5.127   5.070  14.862 -1.0717 -0.9910  0.2797
13067TIP3    H260693   5.109   5.126  14.722 -0.3369 -1.2412  0.0820
13068TIP3   OH260694   0.508   3.154  17.045  0.3651 -0.1052  0.1523
13068TIP3    H160695   0.483   3.101  16.969 -0.1463  0.9114 -0.3816
13068TIP3    H260696   0.432   3.209  17.063 -0.2373 -1.6244  2.5514
13069TIP3   OH260697   1.548   4.573   4.151  0.5163 -0.0556  0.0917
13069TIP3    H160698   1.458   4.551   4.128 -0.0240  1.3523  0.7984
13069TIP3    H260699   1.592   4.488   4.161 -0.8636 -0.7583  0.2749
13070TIP3   OH260700   3.295   3.759  16.496  0.3572 -0.2311 -0.4346
13070TIP3    H160701   3.293   3.664  16.485 -1.8044 -0.3167  0.4814
13070TIP3    H260702   3.293   3.773  16.591 -1.0594  0.7293 -0.5841
13071TIP3   OH260703   3.308   1.374  12.018  0.4211  0.0065  0.3239
13071TIP3    H160704   3.277   1.415  12.098  1.5160 -1.1010  1.3454
13071TIP3    H260705   3.234   1.379  11.958 -1.5269 -1.9841  2.4587
13072TIP3   OH260706   3.889   6.545   3.052 -0.1632  0.1716  0.0310
13072TIP3    H160707   3.919   6.561   2.962 -1.8322  3.9464  0.0554
13072TIP3    H260708   3.800   6.512   3.042  0.8587 -2.7152  0.2256
13073TIP3   OH260709   4.695   4.462   3.312 -1.0118  0.3347 -0.4192
13073TIP3    H160710   4.699   4.488   3.404 -0.1511  2.9505 -1.1491
13073TIP3    H260711   4.665   4.371   3.314  1.4688 -0.4938  2.5446
13074TIP3   OH260712   1.549   4.734   6.158  0.3622  0.5914  0.5507
13074TIP3    H160713   1.508   4.652   6.186 -1.1190  1.1666  0.0985
13074TIP3    H260714   1.511   4.800   6.216 -0.0149  1.2570 -0.4581
13075TIP3   OH260715   0.589   2.431  15.469  0.3516  0.0550  0.8158
13075TIP3    H160716   0.570   2.399  15.557 -2.3629 -0.1624  0.1971
13075TIP3    H260717   0.530   2.505  15.457  1.0114  0.3633 -0.6573
13076TIP3   OH260718   5.096   2.350   0.792  0.3628 -0.3071 -0.2800
13076TIP3    H160719   5.050   2.345   0.708 -2.2009 -0.7446  1.1089
13076TIP3    H260720   5.165   2.283   0.785  1.7636  1.3160 -2.9075
13077TIP3   OH260721   6.218   2.241   1.705 -0.9802  0.0048 -0.1757
13077TIP3    H160722   6.173   2.301   1.645 -0.3188 -0.8513 -1.5548
13077TIP3    H260723   6.156   2.168   1.716 -0.7360 -0.2554 -0.5257
13078TIP3   OH260724   5.433   6.686   1.505  0.2171  0.1561 -0.1760
13078TIP3    H160725   5.517   6.704   1.463 -0.1974  2.3670 -0.1162
13078TIP3    H260726   5.383   6.638   1.439  1.5397 -1.3287 -0.1576
13079TIP3   OH260727   5.058   0.991  11.548 -0.0588  0.4580 -0.6864
13079TIP3    H160728   5.011   1.074  11.545  0.7627  0.9641  0.0202
13079TIP3    H260729   5.004   0.931  11.498  0.0680  1.7831 -2.4717
13080TIP3   OH260730   4.673   3.091   5.958  0.2768 -0.5853  0.0923
13080TIP3    H160731   4.579   3.087   5.975  0.3374 -0.1628  0.5324
13080TIP3    H260732   4.680   3.117   5.866 -0.0290 -0.2004  0.1792
13081TIP3   OH260733   2.642   0.896  12.070  0.0182 -0.2552 -0.3460
13081TIP3    H160734   2.678   0.915  11.983  1.0685 -2.0938 -0.3213
13081TIP3    H260735   2.547   0.907  12.059  0.1946  0.1725 -1.5445
13082TIP3   OH260736   5.735   5.883  15.025 -0.0360  0.0982 -0.2074
13082TIP3    H160737   5.692   5.944  14.966 -0.9388 -0.7208 -0.4129
13082TIP3    H260738   5.786   5.825  14.968 -2.7096 -2.1466 -0.4522
13083TIP3   OH260739   4.612   5.782   6.744 -0.6721  0.1708  0.5117
13083TIP3    H160740   4.564   5.704   6.772  0.0216  0.3038  2.1401
13083TIP3    H260741   4.680   5.750   6.686 -2.3921 -0.0783 -1.4157
13084TIP3   OH260742   2.057   4.192   3.218 -0.0826 -0.8130 -0.2701
13084TIP3    H160743   2.087   4.283   3.215 -1.8974 -0.2323 -0.9938
13084TIP3    H260744   2.061   4.163   3.127 -1.1374 -0.9207 -0.2823
13085TIP3   OH260745   1.412   4.140   1.364  1.1516  0.7745 -0.1794
13085TIP3    H160746   1.485   4.130   1.303  0.7872  1.6551 -0.7790
13085TIP3    H260747   1.448   4.113   1.449  0.6894 -3.7314 -1.3204
13086TIP3   OH260748   1.781   1.338  14.012  0.0318 -0.0418  0.1471
13086TIP3    H160749   1.748   1.426  14.030 -1.8121 -0.7102  0.1678
13086TIP3    H260750   1.860   1.330  14.066  0.6880  1.8907 -0.5134
13087TIP3   OH260751   2.480   5.166   5.009 -0.2558  0.2147 -0.7829
13087TIP3    H160752   2.523   5.093   5.055  0.6758 -0.3505 -2.5348
13087TIP3    H260753   2.503   5.154   4.917 -0.8618  2.2115 -1.2128
13088TIP3   OH260754   1.796   4.878   1.892 -0.2840 -0.5014 -0.4060
13088TIP3    H160755   1.856   4.936   1.939 -0.9772  0.3131 -0.5205
13088TIP3    H260756   1.791   4.914   1.804 -1.4009 -0.2075 -0.2340
13089TIP3   OH260757   5.912   6.101   0.556  0.7342 -0.4781  0.3980
13089TIP3    H160758   5.998   6.072   0.525  0.7018 -0.5808  0.4058
13089TIP3    H260759   5.855   6.025   0.546  0.7517 -0.5524  0.8183
13090TIP3   OH260760   0.689   6.402  13.596  0.1045 -0.0066 -0.7625
13090TIP3    H160761   0.702   6.479  13.652 -0.0296  0.0576 -0.8202
13090TIP3    H260762   0.615   6.426  13.540 -0.9610 -0.7841  0.2933
13091TIP3   OH260763   6.126   2.245   3.742 -0.2231  0.2448  0.4328
13091TIP3    H160764   6.152   2.336   3.752  1.8986 -0.2062 -0.8215
13091TIP3    H260765   6.064   2.246   3.669  0.7896  0.4994 -0.4225
13092TIP3   OH260766   1.846   2.612   5.477 -0.2657 -0.1832  0.7489
13092TIP3    H160767   1.941   2.617   5.479 -0.2210 -0.0551 -0.7922
13092TIP3    H260768   1.818   2.699   5.448 -0.8177 -0.3747  0.6929
13093TIP3   OH260769   1.351   3.146  14.999 -0.5566  0.4312  0.0958
13093TIP3    H160770   1.256   3.137  14.992 -0.4158 -0.5785 -0.6384
13093TIP3    H260771   1.366   3.241  14.999 -1.4886  0.5928 -0.9144
13094TIP3   OH260772   0.876   2.469   0.460 -0.3022  0.1490 -0.2024
13094TIP3    H160773   0.810   2.493   0.396  0.4596  1.0180 -0.6850
13094TIP3    H260774   0.958   2.505   0.425  0.1571  0.4523  1.1381
13095TIP3   OH260775   0.288   3.171   3.451  0.2409  0.1429 -0.2475
13095TIP3    H160776   0.222   3.135   3.392  0.9492 -1.3482 -0.1533
13095TIP3    H260777   0.351   3.100   3.463  1.3237  1.2021  0.4789
13096TIP3   OH260778   5.712   6.291   4.362  0.2786 -0.4685  0.2232
13096TIP3    H160779   5.648   6.332   4.304  1.2411 -0.0126 -0.5258
13096TIP3    H260780   5.711   6.198   4.337 -1.1977 -0.7550  1.2682
13097TIP3   OH260781   2.386   0.615  13.524 -0.0883 -0.0687 -0.0676
13097TIP3    H160782   2.391   0.611  13.619 -4.0650 -0.2957  0.1966
13097TIP3    H260783   2.409   0.705  13.502  0.3337  0.1146  1.1429
13098TIP3   OH260784   0.566   6.788   5.448  0.4610 -0.2539  0.1972
13098TIP3    H160785   0.596   6.698   5.463  0.4041 -0.1662  0.8611
13098TIP3    H260786   0.641   6.831   5.406  0.7077 -0.4518  0.4296
13099TIP3   OH260787   6.216   2.145  16.173  0.7677  0.3781  0.2345
13099TIP3    H160788   6.232   2.204  16.246 -1.0334  3.2968 -1.6257
13099TIP3    H260789   6.177   2.067  16.213  0.6478  1.5518  2.4579
13100TIP3   OH260790   0.385   4.792  15.938  0.0920  0.3410 -0.0209
13100TIP3    H160791   0.437   4.755  16.010 -1.3129 -1.6978 -0.0067
13100TIP3    H260792   0.332   4.860  15.980  0.1701 -0.0073  0.6619
13101TIP3   OH260793   4.454   2.247  11.430  0.2601 -0.3427 -0.0129
13101TIP3    H160794   4.398   2.318  11.459 -0.6995 -0.7898 -0.7536
13101TIP3    H260795   4.411   2.168  11.461 -0.9355 -0.8492 -2.8599
13102TIP3   OH260796   5.288   5.089   3.034 -0.0059 -0.3832  0.2166
13102TIP3    H160797   5.348   5.137   3.091  0.6525  0.0431 -0.8112
13102TIP3    H260798   5.250   5.021   3.090 -0.1103  0.6380  1.3897
13103TIP3   OH260799   3.408   4.604   4.649  0.0145 -0.5889  0.4998
13103TIP3    H160800   3.461   4.670   4.605 -1.2798  0.0129 -0.1818
13103TIP3    H260801   3.465   4.527   4.653  1.0083  0.1009 -0.0271
13104TIP3   OH260802   4.040   3.946   0.069  0.0906  0.5742  0.2883
13104TIP3    H160803   4.102   4.009   0.107 -0.3698 -0.4493  2.8592
13104TIP3    H260804   3.979   4.000   0.018  2.4242  1.7012 -1.4232
13105TIP3   OH260805   2.644   3.851   5.686 -0.4970 -0.1464  0.5851
13105TIP3    H160806   2.677   3.779   5.632 -0.1567 -0.1072  0.7412
13105TIP3    H260807   2.636   3.814   5.774 -2.1977 -0.5613  0.2838
13106TIP3   OH260808   0.335   3.693  13.396  0.1537  0.1920 -0.1321
13106TIP3    H160809   0.279   3.721  13.323 -1.3672 -0.2777  0.8243
13106TIP3    H260810   0.286   3.621  13.436  1.2584  0.0711  0.9915
13107TIP3   OH260811   5.655   6.642  16.891  0.2754  0.7924  0.0118
13107TIP3    H160812   5.582   6.695  16.925  1.4460  1.4680  1.5297
13107TIP3    H260813   5.708   6.704  16.842  1.3071  0.9282  1.2543
13108TIP3   OH260814   0.485   4.695   1.035  0.3402 -0.3397 -0.1960
13108TIP3    H160815   0.510   4.604   1.050 -1.5053 -0.4466  2.5426
13108TIP3    H260816   0.515   4.741   1.114 -1.4211  0.8646 -0.2134
13109TIP3   OH260817   2.199   0.602  11.630  0.2778  0.2492 -0.0972
13109TIP3    H160818   2.129   0.565  11.682  1.4084 -1.1340  0.4795
13109TIP3    H260819   2.262   0.635  11.695  2.2657 -2.5691 -0.5235
13110TIP3   OH260820   1.392   1.888  13.563  0.2006 -0.1782 -0.0663
13110TIP3    H160821   1.297   1.896  13.553  0.1839 -1.4661 -0.9803
13110TIP3    H260822   1.405   1.869  13.655 -0.4572 -0.5008 -0.0394
13111TIP3   OH260823   0.803   5.307   4.640  0.0369 -0.4676  0.3534
13111TIP3    H160824   0.727   5.280   4.589  0.2155 -0.2843 -0.0165
13111TIP3    H260825   0.845   5.225   4.665  0.5413 -0.5518 -0.7092
13112TIP3   OH260826   4.318   4.634  11.641  0.1194 -0.1726  0.7097
13112TIP3    H160827   4.372   4.579  11.584 -3.3813 -3.3279  0.3069
13112TIP3    H260828   4.346   4.610  11.730 -1.9216 -3.3473  0.5724
13113TIP3   OH260829   3.137   4.352  13.082 -0.4923  0.2449 -0.1320
13113TIP3    H160830   3.205   4.366  13.016  0.7540 -1.4574  0.7511
13113TIP3    H260831   3.165   4.273  13.128 -1.0331  1.7342  2.8350
13114TIP3   OH260832   6.636   6.636   5.836 -0.1738  0.0828  0.1015
13114TIP3    H160833   6.622   6.543   5.822 -0.0412 -0.5253  3.6702
13114TIP3    H260834   6.548   6.673   5.840 -0.2262  0.1473 -1.2993
13115TIP3   OH260835   6.741   4.696   5.354  0.0264  0.5732  0.2067
13115TIP3    H160836   6.806   4.716   5.421 -0.2562 -0.4172  0.7911
13115TIP3    H260837   6.696   4.618   5.386 -0.5562  0.4662 -0.8233
13116TIP3   OH260838   3.018   3.359  15.781  0.5640 -0.2317 -0.0870
13116TIP3    H160839   3.005   3.396  15.693  0.7073 -1.9390 -0.8429
13116TIP3    H260840   3.111   3.374  15.799  0.4673  0.4011 -0.0826
13117TIP3   OH260841   5.241   6.284  16.035 -0.2000  0.7030 -0.1663
13117TIP3    H160842   5.210   6.341  16.105  0.5242  0.8392  0.0497
13117TIP3    H260843   5.336   6.299  16.033  0.2519 -1.8478  1.1077
13118TIP3   OH260844   6.102   1.052  13.526  0.0417  0.0191 -0.0740
13118TIP3    H160845   6.055   0.971  13.544 -1.5258  1.0577  0.6989
13118TIP3    H260846   6.194   1.028  13.528 -0.3965 -1.6497  0.5656
13119TIP3   OH260847   3.691   6.333   0.474 -0.2513 -0.4842  0.2685
13119TIP3    H160848   3.607   6.305   0.511  0.0359 -1.0515  0.4956
13119TIP3    H260849   3.753   6.328   0.546  0.3408 -1.7567 -0.3170
13120TIP3   OH260850   5.757   3.544   1.136  0.4692 -0.1656 -0.6892
13120TIP3    H160851   5.662   3.540   1.123  0.4700  1.8017 -1.3823
13120TIP3    H260852   5.768   3.535   1.231 -0.5342  1.4936 -0.4044
13121TIP3   OH260853   5.413   5.175  16.218  0.0861 -0.3797  0.4384
13121TIP3    H160854   5.421   5.153  16.125  0.1159  4.0875 -0.7568
13121TIP3    H260855   5.319   5.188  16.231  0.2445  0.7525  0.5316
13122TIP3   OH260856   6.624   2.030   3.237 -0.3663 -0.4977 -0.1913
13122TIP3    H160857   6.543   1.998   3.279  0.2852 -0.6179  1.0145
13122TIP3    H260858   6.629   2.122   3.262 -0.1374 -0.4936 -0.2526
13123TIP3   OH260859   2.144   4.357   3.016  0.6157 -0.0458 -0.3521
13123TIP3    H160860   2.224   4.400   3.048 -0.0271  0.8813  0.0227
13123TIP3    H260861   2.135   4.387   2.926  0.0506  0.7889 -0.0241
13124TIP3   OH260862   6.667   2.520  16.764  0.1390  0.3745 -0.3112
13124TIP3    H160863   6.719   2.538  16.842  1.2471  0.1501 -0.9920
13124TIP3    H260864   6.700   2.581  16.698 -1.5440  1.3394 -0.3107
13125TIP3   OH260865   2.531   5.161   3.653 -0.2609 -0.3180  0.1748
13125TIP3    H160866   2.475   5.221   3.702  0.8774 -0.4471  1.6464
13125TIP3    H260867   2.579   5.217   3.593  0.2714  0.1558  1.0423
13126TIP3   OH260868   2.671   1.972  17.277 -0.1965 -0.0687  0.4021
13126TIP3    H160869   2.705   1.912  17.343 -0.2024 -0.1930  0.2913
13126TIP3    H260870   2.681   2.059  17.317 -0.3415 -0.1542  0.6293
13127TIP3   OH260871   2.443   3.264  15.650  0.2234 -0.4617 -0.1158
13127TIP3    H160872   2.462   3.175  15.680  1.2924 -0.6452 -1.2859
13127TIP3    H260873   2.349   3.274  15.662 -0.1315 -2.2463 -1.2340
13128TIP3   OH260874   5.963   0.085   3.052 -0.5053 -0.6457  0.2254
13128TIP3    H160875   6.053   0.100   3.082 -0.1318 -2.0446 -0.1877
13128TIP3    H260876   5.972   0.033   2.972 -1.7054 -1.4731  0.6099
13129TIP3   OH260877   6.253   0.382  13.804  0.2937 -0.2249 -0.8757
13129TIP3    H160878   6.326   0.330  13.839  0.1783 -0.5592 -1.1319
13129TIP3    H260879   6.279   0.401  13.713 -1.3066 -2.9153 -1.9448
13130TIP3   OH260880   2.451   0.364   2.048  0.3999  0.0347  0.2141
13130TIP3    H160881   2.361   0.334   2.058  1.0058 -1.8245  0.2166
13130TIP3    H260882   2.469   0.413   2.128 -0.3131 -0.3381  0.6016
13131TIP3   OH260883   2.315   2.117   5.019  0.1480  0.0197 -0.8075
13131TIP3    H160884   2.401   2.080   5.003  0.5000  0.4662  0.0233
13131TIP3    H260885   2.279   2.135   4.932  0.9896  0.0719 -1.1432
13132TIP3   OH260886   2.740   4.522   5.713  0.4497  0.2735  0.2804
13132TIP3    H160887   2.789   4.501   5.792  0.1301  0.3245  0.4891
13132TIP3    H260888   2.761   4.614   5.696 -1.4747  1.0086  1.7254
13133TIP3   OH260889   0.571   0.960  12.035 -0.0990  0.0498  0.5221
13133TIP3    H160890   0.589   1.053  12.025  0.0175  0.1020  1.2330
13133TIP3    H260891   0.477   0.951  12.019 -0.3989  0.5061  1.9587
13134TIP3   OH260892   6.241   6.570  12.176 -0.5002  0.1269 -0.2560
13134TIP3    H160893   6.308   6.567  12.244 -0.9420 -0.8471  0.1370
13134TIP3    H260894   6.196   6.486  12.182 -1.4570  0.5902 -0.8317
13135TIP3   OH260895   4.883   4.547  11.720 -0.6692 -0.4469  0.1262
13135TIP3    H160896   4.934   4.613  11.674  1.2417 -3.3734 -2.1328
13135TIP3    H260897   4.793   4.560  11.688 -0.1642  0.4454 -0.9826
13136TIP3   OH260898   3.993   2.768   1.972 -0.2585  0.4687 -0.2291
13136TIP3    H160899   4.039   2.834   2.024  0.1854 -1.3529  1.7708
13136TIP3    H260900   3.907   2.760   2.013 -1.1382  1.4024 -1.8512
13137TIP3   OH260901   2.034   5.203   3.644  0.2800 -0.3862  0.0895
13137TIP3    H160902   2.095   5.222   3.573  1.2184  2.0795  1.4856
13137TIP3    H260903   1.948   5.223   3.609  0.3073 -2.9187 -1.5724
13138TIP3   OH260904   0.178   0.840  16.986 -0.3325  0.0162 -0.0754
13138TIP3    H160905   0.106   0.904  16.988 -0.3849 -0.0678  0.6800
13138TIP3    H260906   0.137   0.759  16.954 -0.9172 -0.4463  1.7677
13139TIP3   OH260907   6.701   2.323   5.611 -0.0927  0.0194 -0.6675
13139TIP3    H160908   6.669   2.411   5.591 -2.1040 -0.9558 -1.8732
13139TIP3    H260909   6.787   2.318   5.568 -1.1123  0.5122 -2.8213
13140TIP3   OH260910   4.187   4.013  14.818  0.3110 -0.1389 -0.5523
13140TIP3    H160911   4.221   3.950  14.881 -0.8177  1.2722  1.5094
13140TIP3    H260912   4.224   4.097  14.845 -2.3184  0.9179 -0.1129
13141TIP3   OH260913   3.512   1.847   0.613  1.0026  0.3741  0.0197
13141TIP3    H160914   3.525   1.838   0.519  0.5789  0.4812 -0.0507
13141TIP3    H260915   3.432   1.797   0.631 -0.2616  2.3235 -0.0552
13142TIP3   OH260916   0.971   4.688  15.838  0.1042 -0.1582  0.3931
13142TIP3    H160917   0.984   4.624  15.768  0.8650 -1.1223  1.3893
13142TIP3    H260918   0.875   4.694  15.848 -0.0901  1.5688 -2.1193
13143TIP3   OH260919   5.317   4.967  11.790  0.2940 -0.5141 -0.1741
13143TIP3    H160920   5.388   4.905  11.771  1.3795  0.4960  0.4969
13143TIP3    H260921   5.309   5.019  11.710  0.8756 -0.0941  0.0362
13144TIP3   OH260922   0.502   1.683  16.086  0.1455 -0.3074  0.0086
13144TIP3    H160923   0.579   1.699  16.141 -1.0009  0.3578  1.4470
13144TIP3    H260924   0.497   1.588  16.079  1.6473 -0.3262 -0.8918
13145TIP3   OH260925   3.054   5.308  11.183 -0.2817  0.3211  0.0480
13145TIP3    H160926   3.044   5.294  11.089  1.4413  0.2587 -0.1292
13145TIP3    H260927   3.145   5.332  11.195  0.1910 -2.1599  2.0022
13146TIP3   OH260928   6.379   4.186  16.703 -0.0155  0.5956  0.0048
13146TIP3    H160929   6.296   4.184  16.656 -1.2414 -1.1007  2.1367
13146TIP3    H260930   6.363   4.244  16.777  1.0911  1.1987 -0.2182
13147TIP3   OH260931   3.710   5.161   3.817 -0.1596  0.4120  0.5891
13147TIP3    H160932   3.762   5.105   3.874  0.0095 -0.0733 -0.0291
13147TIP3    H260933   3.679   5.103   3.747 -1.3524  0.7408  0.8258
13148TIP3   OH260934   3.857   2.763   5.742  0.0067 -0.0611  0.5773
13148TIP3    H160935   3.809   2.715   5.675  1.3878 -0.3767 -0.2005
13148TIP3    H260936   3.853   2.854   5.713  1.9414 -0.3910 -0.7855
13149TIP3   OH260937   0.015   3.831   4.700 -0.2465  0.0063 -0.0290
13149TIP3    H160938  -0.073   3.803   4.728  0.0032  0.6829  1.4743
13149TIP3    H260939   0.051   3.875   4.777  1.4530 -0.3500 -0.6198
13150TIP3   OH260940   4.062   3.864  16.942  0.3579 -0.0632  0.9297
13150TIP3    H160941   4.078   3.775  16.911 -2.4750 -0.2366 -0.2116
13150TIP3    H260942   3.991   3.855  17.005 -0.9322  1.5434 -0.2567
13151TIP3   OH260943   1.543   6.060   6.068  0.5278 -0.5408  0.2497
13151TIP3    H160944   1.574   6.079   6.157  2.6222  0.9317 -0.7437
13151TIP3    H260945   1.620   6.074   6.013 -0.9833 -0.5144 -1.9097
13152TIP3   OH260946   5.639   6.487   4.553  0.2319 -0.6304 -0.1916
13152TIP3    H160947   5.621   6.418   4.617  0.8323  0.2607  0.9712
13152TIP3    H260948   5.657   6.440   4.471  1.4421 -1.9029  0.7728
13153TIP3   OH260949   2.415   6.522   3.221 -0.1973 -0.3141  0.1339
13153TIP3    H160950   2.467   6.502   3.299  1.6340  0.1763 -0.9450
13153TIP3    H260951   2.475   6.569   3.163 -1.3582 -1.2213 -1.8437
13154TIP3   OH260952   3.117   6.033   0.565  0.4910  0.3525 -0.3919
13154TIP3    H160953   3.097   5.984   0.645 -0.8101  2.1533  0.4158
13154TIP3    H260954   3.137   5.965   0.500  0.4354 -1.1810  1.1491
13155TIP3   OH260955   0.665   2.205   4.459  0.2795 -0.3730 -1.1939
13155TIP3    H160956   0.599   2.181   4.525  0.9455  0.7839 -0.0856
13155TIP3    H260957   0.724   2.130   4.457  1.0552  0.1515  0.5806
13156TIP3   OH260958   5.149   1.080   1.634  0.4201  0.3202  0.3234
13156TIP3    H160959   5.204   1.106   1.561 -0.8520  3.0544  0.2785
13156TIP3    H260960   5.188   0.999   1.666  3.5475  1.3756 -0.6425
13157TIP3   OH260961   5.087   3.626  12.505  0.5600  0.0235 -0.0211
13157TIP3    H160962   5.127   3.688  12.444  0.6119  2.2007  2.1534
13157TIP3    H260963   5.000   3.663  12.523  0.2615 -0.9830  0.6349
13158TIP3   OH260964   2.473   3.399   3.448  0.0815  0.0854  0.6390
13158TIP3    H160965   2.408   3.393   3.517  1.8349  0.5440  2.3738
13158TIP3    H260966   2.501   3.491   3.449  0.2819  0.0412 -0.5108
13159TIP3   OH260967   4.316   3.866   5.505  0.3516  0.4569 -0.5376
13159TIP3    H160968   4.323   3.825   5.591  0.0003  2.5840  0.5408
13159TIP3    H260969   4.233   3.835   5.470  0.1568  0.1505  0.1865
13160TIP3   OH260970   0.702   0.015  13.427 -0.3516  0.2664  0.1818
13160TIP3    H160971   0.742  -0.058  13.379 -0.2961  1.6939 -2.0431
13160TIP3    H260972   0.621  -0.021  13.462  0.9424 -1.5713  1.3518
13161TIP3   OH260973   4.586   5.517  12.802 -0.1482  0.0273 -0.0812
13161TIP3    H160974   4.518   5.496  12.866 -0.8250  2.4347  0.0679
13161TIP3    H260975   4.545   5.502  12.717  0.4718 -2.3608  0.0170
13162TIP3   OH260976   3.617   6.045   3.774 -0.4875  0.1255  0.3048
13162TIP3    H160977   3.633   6.074   3.684  0.9116  0.3804  0.6151
13162TIP3    H260978   3.600   5.951   3.767 -1.6079  0.3635 -0.3452
13163TIP3   OH260979   2.311   0.424  10.765  0.3299 -0.3701 -0.2048
13163TIP3    H160980   2.268   0.371  10.832 -1.6577  0.2886 -0.9361
13163TIP3    H260981   2.247   0.431  10.694  0.6466  2.7554 -0.2587
13164TIP3   OH260982   5.531   1.896   0.140 -0.0880 -1.0663 -0.0920
13164TIP3    H160983   5.525   1.961   0.211 -0.2229 -1.3098  0.1220
13164TIP3    H260984   5.450   1.908   0.091 -0.3923 -1.4793  0.3029
13165TIP3   OH260985   6.600   3.060   4.410 -0.1949 -0.1533  0.0295
13165TIP3    H160986   6.508   3.037   4.394 -0.1054 -1.4672  1.2637
13165TIP3    H260987   6.596   3.130   4.475 -0.3196 -0.1184 -0.0155
13166TIP3   OH260988   6.524   4.834  11.478 -0.3805 -0.4843  0.0749
13166TIP3    H160989   6.495   4.854  11.389 -1.7195  1.0586  0.8289
13166TIP3    H260990   6.452   4.865  11.534  1.3155  0.3847  1.8088
13167TIP3   OH260991   5.394   0.658  10.326  0.0317  0.2420 -0.6767
13167TIP3    H160992   5.386   0.634  10.419  0.2062  0.7568 -0.5269
13167TIP3    H260993   5.487   0.647  10.307  0.3171  1.8256 -0.3138
13168TIP3   OH260994   5.668   0.444  16.754  0.1822 -0.5914 -0.1746
13168TIP3    H160995   5.631   0.520  16.708  1.0275  0.7572  1.3101
13168TIP3    H260996   5.707   0.481  16.834 -1.0947 -2.8601  1.5499
13169TIP3   OH260997   1.710   5.786  14.742 -0.0857  0.1230 -0.4381
13169TIP3    H160998   1.740   5.695  14.733 -0.8301 -0.0553 -1.1771
13169TIP3    H260999   1.736   5.811  14.830 -0.5287 -1.0567  0.0444
13170TIP3   OH261000   3.467   5.984   0.029 -0.1265  0.1386  0.1009
13170TIP3    H161001   3.380   5.965   0.065  0.1458 -1.7002 -0.1768
13170TIP3    H261002   3.458   5.971  -0.065  0.0897  1.4297 -0.1197
13171TIP3   OH261003   0.209   5.078  15.594 -0.4828  0.1147 -0.3724
13171TIP3    H161004   0.125   5.033  15.582  0.2918 -1.3502 -0.3840
13171TIP3    H261005   0.225   5.074  15.688 -1.2363  1.9024 -0.1487
13172TIP3   OH261006   2.432   4.203  14.752 -0.6982 -0.4161 -1.0195
13172TIP3    H161007   2.476   4.134  14.801 -1.1993 -1.2148 -1.6733
13172TIP3    H261008   2.416   4.272  14.816 -0.3825 -0.9986 -0.3091
13173TIP3   OH261009   0.306   0.816   4.506 -0.5476 -0.1030  1.0735
13173TIP3    H161010   0.286   0.728   4.537 -0.6246 -0.4752 -0.0170
13173TIP3    H261011   0.394   0.808   4.468 -1.3874 -0.1836 -0.8715
13174TIP3   OH261012   0.375   4.205  13.108 -0.3938  0.0242  0.8348
13174TIP3    H161013   0.333   4.285  13.078 -0.6726 -0.4472 -0.0481
13174TIP3    H261014   0.468   4.222  13.100 -0.4698 -0.8765 -2.4269
13175TIP3   OH261015   6.574   0.841   2.028  0.3389  0.0460  0.0146
13175TIP3    H161016   6.538   0.790   2.101  0.8054 -0.8560 -0.3685
13175TIP3    H261017   6.505   0.905   2.007 -0.0575 -0.1047  0.8245
13176TIP3   OH261018   3.784   4.872   5.832  0.3767  0.2430  0.3450
13176TIP3    H161019   3.847   4.807   5.801  1.2058  0.4745  1.5119
13176TIP3    H261020   3.753   4.839   5.916 -2.1611 -0.5750 -0.8597
13177TIP3   OH261021   3.020   4.221   2.905 -0.3614  0.3113 -0.3414
13177TIP3    H161022   3.113   4.223   2.929 -0.9792  1.0153  2.1686
13177TIP3    H261023   2.980   4.164   2.970 -2.2135  2.6858  0.6678
13178TIP3   OH261024   6.196   0.820   3.110 -0.0375  0.1694  0.5417
13178TIP3    H161025   6.128   0.853   3.051  1.4318  2.2700 -0.0347
13178TIP3    H261026   6.166   0.844   3.197 -0.4512  0.3360  0.3524
13179TIP3   OH261027   1.615   2.454  17.117  0.6276  0.6377  0.0598
13179TIP3    H161028   1.602   2.365  17.152  4.1997  1.1783  3.1731
13179TIP3    H261029   1.695   2.447  17.065 -0.7487  1.4198 -2.1918
13180TIP3   OH261030   1.679   1.849   3.340  0.4063  0.5696 -0.3770
13180TIP3    H161031   1.727   1.769   3.318  2.0971  1.2665  0.6843
13180TIP3    H261032   1.654   1.887   3.256  2.0129  0.3569 -0.9635
13181TIP3   OH261033   0.003   3.954  13.264  0.0613  0.2188  0.0809
13181TIP3    H161034  -0.046   3.903  13.200  0.3347  1.2838 -1.0047
13181TIP3    H261035   0.002   4.044  13.229  0.7606  0.6916  1.2412
13182TIP3   OH261036   3.628   4.703   4.515  0.4331  0.0833 -0.4064
13182TIP3    H161037   3.678   4.623   4.494 -2.2236 -1.8612  0.4470
13182TIP3    H261038   3.556   4.703   4.452 -0.3704  1.0544  0.5001
13183TIP3   OH261039   1.934   6.440  16.643  0.5926 -1.1825 -0.4738
13183TIP3    H161040   2.023   6.472  16.653  0.7049 -1.6904  0.1992
13183TIP3    H261041   1.884   6.483  16.712  0.4261 -1.2739 -0.5355
13184TIP3   OH261042   4.863   2.665  13.478  0.5820 -0.0627  0.4077
13184TIP3    H161043   4.873   2.744  13.532 -0.2054  0.0378  0.4011
13184TIP3    H261044   4.911   2.685  13.397 -1.3099  1.1830 -0.4205
13185TIP3   OH261045   6.080   0.675   4.255 -0.0633 -1.0704 -0.0474
13185TIP3    H161046   6.124   0.648   4.336 -0.5929  0.0253  0.6279
13185TIP3    H261047   5.987   0.679   4.280 -0.1797 -0.3600 -0.6129
13186TIP3   OH261048   6.304   0.596   4.875 -0.0293 -0.0940 -0.0175
13186TIP3    H161049   6.210   0.580   4.866 -0.3366  1.6823 -0.1805
13186TIP3    H261050   6.312   0.691   4.881  1.7959 -0.1917 -0.4355
13187TIP3   OH261051   5.473   0.018  16.957  0.4926  0.3697  0.0926
13187TIP3    H161052   5.411   0.066  17.012  0.8622  1.7646 -0.7128
13187TIP3    H261053   5.554   0.068  16.961  0.3517  0.8298 -2.2113
13188TIP3   OH261054   6.422   2.247   3.432 -0.2604 -0.7776  0.2660
13188TIP3    H161055   6.347   2.212   3.383  0.3767 -1.7653 -0.0055
13188TIP3    H261056   6.468   2.302   3.368 -0.7231 -0.1999  0.4220
13189TIP3   OH261057   5.074   2.185  11.906  0.4591  0.0426  0.1409
13189TIP3    H161058   5.116   2.110  11.947 -0.5835 -0.9936 -0.6406
13189TIP3    H261059   4.980   2.171  11.921  0.1901  0.6150 -0.9212
13190TIP3   OH261060   1.216   0.502  13.366 -0.6947 -0.0545  0.6402
13190TIP3    H161061   1.227   0.481  13.273 -0.2015  1.3259  0.3662
13190TIP3    H261062   1.288   0.562  13.386  0.5224 -2.0768  2.4983
13191TIP3   OH261063   4.598   3.751   4.301 -0.8643 -0.1177  0.1907
13191TIP3    H161064   4.605   3.709   4.386  0.1700  2.4387  1.4280
13191TIP3    H261065   4.523   3.810   4.309 -2.3010 -1.6354 -1.5131
13192TIP3   OH261066   6.357   5.658  10.566  0.5635  0.2478 -0.0058
13192TIP3    H161067   6.357   5.753  10.579 -0.9488  0.2580  0.0339
13192TIP3    H261068   6.293   5.644  10.496 -0.1686 -0.8477  0.8655
13193TIP3   OH261069   0.877   3.126   0.602 -0.2236 -0.2309 -0.0593
13193TIP3    H161070   0.782   3.141   0.611  0.0126  0.5084  1.2936
13193TIP3    H261071   0.896   3.055   0.663 -0.5376 -3.0764 -3.1317
13194TIP3   OH261072   5.171   4.583   1.907  0.2675  0.6127 -0.2151
13194TIP3    H161073   5.118   4.557   1.831  1.7082 -2.2528 -0.3040
13194TIP3    H261074   5.151   4.517   1.973  1.6429  1.1019  0.7043
13195TIP3   OH261075   1.296   2.213   0.516 -0.0209 -0.0963  0.0706
13195TIP3    H161076   1.239   2.256   0.452 -1.0698 -3.0390 -1.0272
13195TIP3    H261077   1.246   2.138   0.547  2.1773 -1.1787  1.1307
13196TIP3   OH261078   2.775   6.586  16.083  0.3308 -0.3996  0.1316
13196TIP3    H161079   2.765   6.495  16.110 -0.1073 -0.3352  0.1831
13196TIP3    H261080   2.868   6.595  16.064  0.2051 -1.1169 -0.8232
13197TIP3   OH261081   6.263   4.156   5.176  0.1301  0.2204 -0.2876
13197TIP3    H161082   6.304   4.216   5.239  0.8591  0.1375 -0.6804
13197TIP3    H261083   6.170   4.161   5.197  0.2538  0.9613  0.1407
13198TIP3   OH261084   2.015   0.111  13.901  0.0875 -0.0495 -0.6696
13198TIP3    H161085   2.094   0.068  13.934  0.2416  0.9652  0.3301
13198TIP3    H261086   1.944   0.073  13.953  0.1032  0.1549 -0.4974
13199TIP3   OH261087   4.642   6.285   2.239  0.5109 -0.3150  0.6603
13199TIP3    H161088   4.714   6.230   2.208  1.9222  1.2651  1.0220
13199TIP3    H261089   4.675   6.323   2.320 -1.4580 -0.9824  1.8023
13200TIP3   OH261090   3.883   2.341  16.292 -0.2564 -0.2216  0.2147
13200TIP3    H161091   3.855   2.327  16.382  2.1659 -0.8251  0.8899
13200TIP3    H261092   3.913   2.255  16.262 -1.4422 -0.1303 -1.3384
13201TIP3   OH261093   1.451   2.247  14.592 -0.4626  0.3417  0.5929
13201TIP3    H161094   1.359   2.255  14.618 -0.2460  1.6608  0.9929
13201TIP3    H261095   1.458   2.299  14.512 -0.5087 -1.4557 -0.6103
13202TIP3   OH261096   3.431   2.727  14.745  0.3106 -0.7471 -0.6166
13202TIP3    H161097   3.461   2.751  14.658  0.2608  0.9324 -0.1796
13202TIP3    H261098   3.362   2.663  14.729 -1.2087  1.1561 -1.9246
13203TIP3   OH261099   2.656   5.484  15.527 -0.3649  0.2661 -0.0070
13203TIP3    H161100   2.587   5.481  15.593 -0.5339 -1.0272 -0.2371
13203TIP3    H261101   2.700   5.400  15.534  0.0502  0.3853 -1.0766
13204TIP3   OH261102   6.359   6.453  13.826 -0.1692 -0.1699  0.0576
13204TIP3    H161103   6.353   6.536  13.779 -0.4593 -1.2208 -1.7933
13204TIP3    H261104   6.451   6.428  13.819 -0.6008 -1.3409 -1.7739
13205TIP3   OH261105   3.974   2.225  12.807 -0.3898  0.4335 -0.2090
13205TIP3    H161106   3.943   2.287  12.874  0.8777 -0.0150  0.8177
13205TIP3    H261107   3.939   2.141  12.834 -1.2321  0.5196 -1.0188
13206TIP3   OH261108   4.033   2.386  15.951  0.1338 -1.0355  0.3713
13206TIP3    H161109   4.021   2.316  15.886  0.8930 -0.0594 -0.8473
13206TIP3    H261110   4.124   2.377  15.980 -0.1150 -1.2768  1.0825
13207TIP3   OH261111   4.543   2.436   2.693 -0.4841  0.1786  0.0473
13207TIP3    H161112   4.537   2.380   2.616 -0.4886 -1.0121  0.8929
13207TIP3    H261113   4.599   2.509   2.666  0.9830 -1.1374 -0.5394
13208TIP3   OH261114   3.045   0.669  11.231  0.1920  0.4671  0.0314
13208TIP3    H161115   3.072   0.750  11.273  0.9001  0.0928  0.2973
13208TIP3    H261116   3.001   0.620  11.300 -1.3205  1.1243 -0.4228
13209TIP3   OH261117   1.808   6.819  15.460 -0.6696  0.0114  0.0492
13209TIP3    H161118   1.779   6.807  15.551  0.8507  0.2618  0.5857
13209TIP3    H261119   1.748   6.765  15.408 -1.1861 -0.5958  1.2602
13210TIP3   OH261120   5.708   2.371  13.403  0.1043  0.0591  0.2862
13210TIP3    H161121   5.739   2.335  13.321 -1.0416 -2.6262  0.9782
13210TIP3    H261122   5.784   2.370  13.461  0.2862 -0.5312  0.0403
13211TIP3   OH261123   6.409   6.347  16.163  0.2931 -0.4471  0.5501
13211TIP3    H161124   6.409   6.431  16.208 -2.1312  0.0565 -0.2754
13211TIP3    H261125   6.380   6.284  16.229  5.6290 -1.3553  2.2188
13212TIP3   OH261126   1.590   1.044   0.424  0.1336  0.0087 -0.3885
13212TIP3    H161127   1.563   1.130   0.458 -0.9075 -0.0201 -1.1071
13212TIP3    H261128   1.656   1.014   0.486  0.1445  1.1053  0.1571
13213TIP3   OH261129   4.999   1.911   3.510 -0.0606 -0.5898 -0.2505
13213TIP3    H161130   4.983   2.005   3.497 -0.0461 -0.4113  0.8892
13213TIP3    H261131   5.055   1.885   3.437  2.3476  0.9642  0.9621
13214TIP3   OH261132   3.554   0.099   1.785 -0.1369 -0.6639  0.4363
13214TIP3    H161133   3.626   0.137   1.836  1.2424  0.3647 -2.1947
13214TIP3    H261134   3.595   0.071   1.703 -2.9379  1.0039 -1.6133
13215TIP3   OH261135   1.368   3.860   0.510 -0.3172 -0.4592 -0.4147
13215TIP3    H161136   1.381   3.846   0.416 -0.3683  1.5110 -0.7357
13215TIP3    H261137   1.441   3.916   0.535 -0.7815 -0.2965  0.5653
13216TIP3   OH261138   2.512   2.948   0.942 -0.1929  0.6522  0.2095
13216TIP3    H161139   2.550   2.925   0.857 -0.0782  1.8634 -0.0821
13216TIP3    H261140   2.501   3.043   0.939  2.2864  1.0772  2.5491
13217TIP3   OH261141   5.271   1.454   2.959  0.7728  0.3801  0.5375
13217TIP3    H161142   5.308   1.421   2.878 -0.9470  0.3247 -0.2547
13217TIP3    H261143   5.306   1.543   2.968  1.2025  0.2721 -0.0979
13218TIP3   OH261144   5.955   6.427  15.019 -0.4407 -0.4835 -0.3753
13218TIP3    H161145   6.030   6.377  15.050 -0.2244  0.1139  0.0907
13218TIP3    H261146   5.994   6.504  14.976 -0.7993  0.3133  0.7160
13219TIP3   OH261147   3.411   0.498  13.698 -0.2358  0.0752  0.1676
13219TIP3    H161148   3.455   0.486  13.782 -1.4333  0.7628  0.8975
13219TIP3    H261149   3.391   0.591  13.694 -0.3275  0.0146 -0.8049
13220TIP3   OH261150   0.967   5.702  15.542 -0.0975  0.0485 -0.1819
13220TIP3    H161151   0.908   5.725  15.470  0.2008 -0.6144 -0.6390
13220TIP3    H261152   0.971   5.607  15.541  0.4019  0.0600  0.3160
13221TIP3   OH261153   2.019   4.084  12.430 -0.8719  0.1031 -0.1374
13221TIP3    H161154   2.091   4.147  12.435 -0.6908 -0.1672  0.6444
13221TIP3    H261155   1.975   4.092  12.515 -1.1066 -0.5229 -0.2020
13222TIP3   OH261156   5.791   5.786   0.400 -0.2794  0.4758 -0.2144
13222TIP3    H161157   5.851   5.826   0.337  2.9658  0.0690  2.4897
13222TIP3    H261158   5.774   5.699   0.364  1.0403  0.4641 -0.8425
13223TIP3   OH261159   3.443   5.513   2.247 -0.0950  0.2531 -0.3714
13223TIP3    H161160   3.408   5.515   2.336  1.7178  0.1483  0.3611
13223TIP3    H261161   3.507   5.442   2.248  1.5470  1.6817 -1.1144
13224TIP3   OH261162   3.438   3.431  14.696 -0.2641 -0.4140  0.0416
13224TIP3    H161163   3.471   3.347  14.662  0.1188  0.1226 -0.9536
13224TIP3    H261164   3.517   3.483  14.711 -0.6035  0.8630 -2.3076
13225TIP3   OH261165   0.354   4.269   4.169  0.1864  0.1216 -0.3805
13225TIP3    H161166   0.358   4.364   4.175  2.1773  0.0325  0.1452
13225TIP3    H261167   0.349   4.250   4.075 -0.2319  0.7267 -0.4829
13226TIP3   OH261168   5.942   1.052  15.924  0.7207 -0.3775 -0.1107
13226TIP3    H161169   5.933   0.956  15.922  1.5018 -0.4703  0.6129
13226TIP3    H261170   5.891   1.082  15.848 -0.0797 -1.3178  0.0361
13227TIP3   OH261171   2.163   4.187   4.016 -0.1637  0.2512  0.2848
13227TIP3    H161172   2.193   4.165   3.927  0.1956 -1.7714  0.8908
13227TIP3    H261173   2.243   4.189   4.068 -0.6158 -0.9074  1.0339
13228TIP3   OH261174   1.081   2.671  15.767 -0.0516  0.4371 -0.0732
13228TIP3    H161175   0.987   2.673  15.782  0.1055  2.9114  0.8343
13228TIP3    H261176   1.090   2.642  15.676 -1.7930  2.0844 -0.8164
13229TIP3   OH261177   0.153   4.550   2.304  0.2738  0.0355  0.1052
13229TIP3    H161178   0.095   4.598   2.363  0.3936  1.3272 -0.8026
13229TIP3    H261179   0.141   4.593   2.219 -0.3126 -2.1554 -0.9413
13230TIP3   OH261180   4.330   0.371  16.828  0.7804 -0.2252 -0.0368
13230TIP3    H161181   4.266   0.302  16.841  1.3799 -0.5161  1.6074
13230TIP3    H261182   4.364   0.356  16.740  1.0682 -2.1817  0.3742
13231TIP3   OH261183   4.760   3.764   0.922  0.3681  0.4669 -0.1388
13231TIP3    H161184   4.758   3.802   0.834  0.2808  1.6271  0.3506
13231TIP3    H261185   4.705   3.823   0.974  0.1343 -0.4146  0.6101
13232TIP3   OH261186   5.035   5.932   4.564 -0.3063  0.7510  0.0377
13232TIP3    H161187   5.060   5.908   4.474  0.8423 -0.9265  0.7854
13232TIP3    H261188   4.952   5.886   4.578 -0.4485  0.9536 -0.1369
13233TIP3   OH261189   1.808   2.626   3.976  0.6735 -0.2023  0.0853
13233TIP3    H161190   1.728   2.579   3.999  0.3541 -0.2631 -1.1177
13233TIP3    H261191   1.874   2.557   3.967  1.1650 -0.0565  2.2199
13234TIP3   OH261192   3.544   4.964   5.704  0.8080  0.0251  0.4842
13234TIP3    H161193   3.544   4.869   5.701 -1.6180  0.0213 -0.2404
13234TIP3    H261194   3.610   4.991   5.640  0.4547 -1.1479 -0.3738
13235TIP3   OH261195   1.215   5.857  16.330 -0.3989 -0.1096  0.2830
13235TIP3    H161196   1.196   5.870  16.237 -1.7586 -0.1050  0.5424
13235TIP3    H261197   1.130   5.867  16.373  0.0005 -1.3171  1.3914
13236TIP3   OH261198   6.749   2.466  12.212  0.2844  0.4037 -0.2724
13236TIP3    H161199   6.694   2.482  12.136 -1.0761  1.2013  0.8628
13236TIP3    H261200   6.743   2.371  12.227  3.7924 -0.4609 -3.5452
13237TIP3   OH261201   0.713   2.523   3.750  0.0315 -0.3048 -0.1926
13237TIP3    H161202   0.794   2.562   3.782 -0.5416 -0.5444  1.6308
13237TIP3    H261203   0.645   2.586   3.775 -0.7881 -1.9701  1.9519
13238TIP3   OH261204   2.071   0.591  15.662  0.3838  0.0157 -0.0748
13238TIP3    H161205   2.116   0.675  15.663  0.2351  0.1065 -0.6055
13238TIP3    H261206   1.989   0.608  15.614 -0.7523  0.1204  1.8487
13239TIP3   OH261207   0.240   5.735   4.274 -0.1197 -0.3980 -0.1830
13239TIP3    H161208   0.307   5.717   4.341  1.6546  1.5023 -1.4213
13239TIP3    H261209   0.285   5.789   4.209 -2.4457 -0.4063 -1.8229
13240TIP3   OH261210   5.713   6.425  16.231 -0.6315 -1.1651 -0.5661
13240TIP3    H161211   5.635   6.481  16.225  0.2508  0.0578 -0.8043
13240TIP3    H261212   5.783   6.485  16.257  0.3620 -2.1339 -0.9887
13241TIP3   OH261213   6.467   0.914   0.174  0.0984  0.2342 -0.3331
13241TIP3    H161214   6.473   1.008   0.157 -1.5231  0.4600  0.2348
13241TIP3    H261215   6.416   0.880   0.101  0.7275 -0.2285 -0.5640
13242TIP3   OH261216   0.211   6.515   4.743 -0.5762 -0.4643  0.4350
13242TIP3    H161217   0.279   6.451   4.724 -0.6742 -0.0816 -1.3201
13242TIP3    H261218   0.129   6.470   4.720 -0.5856  0.5548 -1.6537
13243TIP3   OH261219   6.053   1.709   2.617  0.0186  0.0848 -0.0335
13243TIP3    H161220   5.968   1.692   2.578 -0.3893  0.5625  0.6339
13243TIP3    H261221   6.098   1.624   2.616  0.0905  0.1391 -1.6985
13244TIP3   OH261222   5.734   2.857  15.580 -0.7051 -0.1661 -0.1798
13244TIP3    H161223   5.650   2.852  15.625 -0.8101  1.2874 -0.1857
13244TIP3    H261224   5.710   2.879  15.489 -0.3053  0.7847 -0.0616
13245TIP3   OH261225   3.496   3.287  13.981  0.2957 -0.1784 -0.9205
13245TIP3    H161226   3.435   3.262  13.913 -0.3815  0.1107 -0.4231
13245TIP3    H261227   3.529   3.204  14.017 -1.7491 -0.3754  0.5574
13246TIP3   OH261228   1.219   4.972  16.554  0.3674  0.4442  0.0220
13246TIP3    H161229   1.284   4.940  16.492  0.9969  0.1246  0.8398
13246TIP3    H261230   1.153   4.902  16.557  0.4003  0.4034 -0.1895
13247TIP3   OH261231   0.601   2.244   5.732  0.0225  0.1992  0.0454
13247TIP3    H161232   0.525   2.215   5.783 -0.1404 -0.5346 -0.5909
13247TIP3    H261233   0.579   2.333   5.705 -1.8149 -0.9141 -2.3432
13248TIP3   OH261234   3.978   1.429  13.005 -0.0688  0.1016  0.5169
13248TIP3    H161235   4.031   1.405  13.081 -0.4949  1.0593  1.1164
13248TIP3    H261236   3.978   1.525  13.005  0.4875  0.1076 -1.0739
13249TIP3   OH261237   1.622   2.409  12.612 -0.5983  0.2298  0.4350
13249TIP3    H161238   1.690   2.396  12.678 -0.3823 -1.6467 -0.1307
13249TIP3    H261239   1.553   2.347  12.636 -0.0170 -1.3027 -1.7371
13250TIP3   OH261240   4.600   4.114  16.838  0.2391  0.0339  0.1089
13250TIP3    H161241   4.679   4.124  16.891 -0.2028  1.6382  0.5049
13250TIP3    H261242   4.528   4.118  16.901 -0.1939 -0.4538 -0.3487
13251TIP3   OH261243   4.006   0.875   5.877 -0.5079 -0.5557 -0.1691
13251TIP3    H161244   4.035   0.802   5.823 -1.6949  0.1429 -1.7653
13251TIP3    H261245   4.074   0.942   5.866  0.1116 -1.0458  0.5746
13252TIP3   OH261246   1.746   6.139  16.021  0.4520 -0.1909  0.7730
13252TIP3    H161247   1.800   6.205  16.065  1.8772 -0.2180 -0.8738
13252TIP3    H261248   1.681   6.191  15.971  0.5586 -0.0827  0.7479
13253TIP3   OH261249   5.423   4.280  16.057 -0.4934 -0.1221 -0.0853
13253TIP3    H161250   5.384   4.353  16.104  1.2548  0.1566  0.9658
13253TIP3    H261251   5.439   4.214  16.124 -1.3632 -1.1858 -0.9086
13254TIP3   OH261252   1.224   5.680   2.097 -0.4971 -0.5858  0.3057
13254TIP3    H161253   1.249   5.769   2.121  2.6725 -1.3585  0.1912
13254TIP3    H261254   1.162   5.690   2.025 -1.2306  1.5278  1.2054
13255TIP3   OH261255   6.411   0.870  11.631 -0.4705 -0.1506 -0.4776
13255TIP3    H161256   6.406   0.941  11.695  1.2634 -1.1729  0.8422
13255TIP3    H261257   6.456   0.909  11.556  0.2426  0.2322  0.1399
13256TIP3   OH261258   5.738   0.663   4.793 -0.0720 -0.3540  0.4388
13256TIP3    H161259   5.720   0.599   4.862 -0.6490  0.6248  1.2274
13256TIP3    H261260   5.652   0.688   4.760  0.0946  0.5593  0.6627
13257TIP3   OH261261   6.386   6.458  13.471 -0.4571 -0.5546  0.2405
13257TIP3    H161262   6.311   6.506  13.505 -0.1807 -0.1473  0.2712
13257TIP3    H261263   6.462   6.508  13.500 -0.2082 -0.3999 -0.6928
13258TIP3   OH261264   4.370   3.097  16.511  0.6554  0.6175 -0.4088
13258TIP3    H161265   4.402   3.185  16.529  0.7922  1.0243 -2.4840
13258TIP3    H261266   4.328   3.104  16.425 -0.4828 -1.0535 -0.0149
13259TIP3   OH261267   0.136   0.778  12.380 -0.3209 -0.2539 -0.1898
13259TIP3    H161268   0.188   0.857  12.395  0.4540 -1.0446  1.3240
13259TIP3    H261269   0.198   0.715  12.342 -0.7089 -0.4681 -0.4783
13260TIP3   OH261270   6.206   2.603  13.383 -0.0427  0.0503  0.5010
13260TIP3    H161271   6.170   2.542  13.448  1.4128 -1.7530 -0.3554
13260TIP3    H261272   6.213   2.552  13.302 -0.2505  1.7926 -0.6432
13261TIP3   OH261273   4.344   6.077  12.925  0.2049  0.2701  0.1337
13261TIP3    H161274   4.407   6.057  12.994  0.0482 -1.0905 -0.1022
13261TIP3    H261275   4.397   6.086  12.846  0.1317 -0.8590 -0.0615
13262TIP3   OH261276   6.483   6.603   3.719 -0.2785 -0.3798  0.2740
13262TIP3    H161277   6.575   6.629   3.728 -0.1446 -0.8871  0.3755
13262TIP3    H261278   6.487   6.512   3.689 -0.7496 -0.4631  0.4705
13263TIP3   OH261279   4.029   4.255  12.100  0.3580  0.0591  0.1703
13263TIP3    H161280   3.997   4.333  12.146  2.7651  1.2971 -0.1156
13263TIP3    H261281   3.951   4.206  12.078 -1.1911  2.1124  0.8844
13264TIP3   OH261282   4.473   1.326  15.186 -0.1384 -0.1518 -0.4475
13264TIP3    H161283   4.522   1.291  15.112  0.4462  1.1562 -0.6918
13264TIP3    H261284   4.442   1.411  15.157  0.6323  0.6534  1.0105
13265TIP3   OH261285   5.733   2.991   0.640  0.2217 -0.5922 -0.6935
13265TIP3    H161286   5.675   3.064   0.616  2.1783  1.2058 -0.0370
13265TIP3    H261287   5.793   2.983   0.566  0.4598 -1.1086 -0.4437
13266TIP3   OH261288   3.502   4.806  15.727 -0.6517  0.2582 -0.0207
13266TIP3    H161289   3.566   4.810  15.656  1.9502 -0.2162  2.1973
13266TIP3    H261290   3.468   4.896  15.734  0.3223  0.6970 -0.7970
13267TIP3   OH261291   1.851   6.437  12.468  0.1586 -0.1236  0.0187
13267TIP3    H161292   1.784   6.378  12.434  1.3878 -0.6820 -1.5142
13267TIP3    H261293   1.917   6.440  12.399 -0.4674  4.1012 -0.4858
13268TIP3   OH261294   0.821   4.425  11.803  0.4706 -0.1236  0.1241
13268TIP3    H161295   0.757   4.449  11.736 -0.3387  1.1737  1.3417
13268TIP3    H261296   0.819   4.330  11.806  2.1347 -0.3529 -3.2776
13269TIP3   OH261297   0.863   2.388   5.311  0.0112 -0.0304 -0.0023
13269TIP3    H161298   0.834   2.470   5.351  1.3344  0.1417  0.6527
13269TIP3    H261299   0.857   2.324   5.382 -0.8153 -0.4652 -0.4556
13270TIP3   OH261300   3.516   4.800  11.460  0.3376  0.3678  0.9775
13270TIP3    H161301   3.610   4.812  11.469  0.2029  3.0469 -0.4937
13270TIP3    H261302   3.478   4.871  11.513 -0.7480  1.4699 -1.1875
13271TIP3   OH261303   0.593   0.244   3.590  0.8785  0.0739  0.1022
13271TIP3    H161304   0.560   0.211   3.673  1.3471  0.9884  0.6683
13271TIP3    H261305   0.625   0.332   3.611 -1.6058  1.4341 -1.6538
13272TIP3   OH261306   3.729   4.977   5.085  0.2590  0.4112 -0.2681
13272TIP3    H161307   3.696   4.890   5.062  0.4911  0.7203 -1.8379
13272TIP3    H261308   3.810   4.961   5.132  0.0343 -0.2344 -0.0993
13273TIP3   OH261309   1.082   2.321  11.703  0.0412 -0.6337 -0.5843
13273TIP3    H161310   1.045   2.287  11.785 -1.5352 -1.2062 -1.4999
13273TIP3    H261311   1.128   2.400  11.729 -0.7603 -0.5979  0.8151
13274TIP3   OH261312   4.149   2.457  15.082  0.3178  1.2520  0.2966
13274TIP3    H161313   4.216   2.524  15.072  1.0939  0.3428 -0.8040
13274TIP3    H261314   4.188   2.378  15.045 -1.1495  0.5693  0.1469
13275TIP3   OH261315   3.169   4.373  17.093  0.4054 -0.3007  0.3465
13275TIP3    H161316   3.249   4.325  17.069  0.4888 -0.6667  1.3410
13275TIP3    H261317   3.196   4.429  17.166 -0.2718 -0.4942  0.7461
13276TIP3   OH261318   3.441   2.120   1.903  0.4435 -0.3082  0.2846
13276TIP3    H161319   3.533   2.108   1.926  0.2085  0.4347  1.7132
13276TIP3    H261320   3.400   2.036   1.925  0.7673 -0.6272 -0.3190
13277TIP3   OH261321   0.846   3.708  17.054 -0.5374 -0.0023  0.1629
13277TIP3    H161322   0.908   3.776  17.081  0.1383  0.1188 -1.5865
13277TIP3    H261323   0.765   3.755  17.036 -0.3871  0.2092  0.0208
13278TIP3   OH261324   4.558   6.290   5.454  0.1618  0.5506  0.2218
13278TIP3    H161325   4.590   6.350   5.387 -1.1336  0.9928 -0.0045
13278TIP3    H261326   4.542   6.208   5.407  1.3671  0.1810  0.4225
13279TIP3   OH261327   3.823   3.370  12.279  0.0267  0.3619  0.0512
13279TIP3    H161328   3.874   3.421  12.342 -0.0715 -0.7691  1.0789
13279TIP3    H261329   3.767   3.314  12.334  1.9509 -2.6891 -0.9521
13280TIP3   OH261330   4.194   5.003  13.047  0.0877 -0.5460 -0.0164
13280TIP3    H161331   4.283   5.028  13.073  0.2334  0.4551 -1.4541
13280TIP3    H261332   4.138   5.043  13.114  0.5574  0.8524 -0.4375
13281TIP3   OH261333   2.586   2.257  15.275 -0.3200 -0.4863  0.1200
13281TIP3    H161334   2.642   2.265  15.197 -1.6080  0.4873 -0.7285
13281TIP3    H261335   2.543   2.172  15.264  1.0657 -1.3055  0.8463
13282TIP3   OH261336   5.128   5.323  16.207 -0.6335 -0.3003  0.3040
13282TIP3    H161337   5.113   5.287  16.294 -0.7984 -0.0416  0.3857
13282TIP3    H261338   5.056   5.290  16.154  0.6419 -2.2300 -0.2852
13283TIP3   OH261339   2.767   4.682   4.321  0.0889  0.1207 -0.0607
13283TIP3    H161340   2.727   4.684   4.408 -0.4229 -0.3799 -0.2874
13283TIP3    H261341   2.742   4.766   4.281  0.8662  0.6378  0.5114
13284TIP3   OH261342   3.441   5.704  12.850  0.1969 -0.0278 -0.4583
13284TIP3    H161343   3.520   5.714  12.902  1.0524  0.8079 -1.8799
13284TIP3    H261344   3.424   5.791  12.815 -0.5055 -0.5127 -1.3571
13285TIP3   OH261345   0.948   0.669   1.528 -0.2742  0.1853  0.2996
13285TIP3    H161346   0.889   0.731   1.571  0.8937  0.2003  1.9281
13285TIP3    H261347   0.893   0.623   1.464 -1.8982  0.6135  1.3699
13286TIP3   OH261348   0.393   4.939   2.455 -0.1260  0.5226  0.0732
13286TIP3    H161349   0.319   4.964   2.399 -0.0754  0.2976 -0.0915
13286TIP3    H261350   0.397   4.844   2.449 -2.1693  0.1533  2.9990
13287TIP3   OH261351   3.322   5.376  10.404  0.0949  0.0543  0.1330
13287TIP3    H161352   3.266   5.422  10.467  0.8190  0.0932  0.7675
13287TIP3    H261353   3.327   5.287  10.438 -0.5593 -0.2594 -0.5898
13288TIP3   OH261354   4.652   6.060   0.258  0.0429  0.2750 -0.0026
13288TIP3    H161355   4.735   6.092   0.221  0.0610  0.5799  0.2981
13288TIP3    H261356   4.679   5.996   0.324  0.0862  1.2512  0.9428
13289TIP3   OH261357   1.652   5.872   2.808  0.2987 -0.2519 -0.1483
13289TIP3    H161358   1.618   5.961   2.817  1.8912  0.0914  3.2953
13289TIP3    H261359   1.595   5.819   2.864  0.7780 -0.9997 -0.3660
13290TIP3   OH261360   3.258   6.553  15.722 -0.4042 -0.8144 -0.0086
13290TIP3    H161361   3.247   6.641  15.687  3.6700 -0.2527 -0.0486
13290TIP3    H261362   3.232   6.495  15.651 -1.5101  0.3222 -0.5487
13291TIP3   OH261363   0.791   0.256  12.838 -0.1009  0.0965 -0.3299
13291TIP3    H161364   0.749   0.315  12.901  1.7711  0.4252  0.6441
13291TIP3    H261365   0.791   0.305  12.756 -0.8020  0.4549 -0.1242
13292TIP3   OH261366   1.747   5.458   0.922 -0.3042  0.4276  0.0105
13292TIP3    H161367   1.766   5.490   1.009  1.4147 -1.2335  0.2753
13292TIP3    H261368   1.670   5.402   0.933  0.3990 -0.4333  0.6259
13293TIP3   OH261369   5.206   5.799   0.021  0.1573 -0.2677  0.1045
13293TIP3    H161370   5.220   5.839   0.107  0.4942 -1.2734  0.5334
13293TIP3    H261371   5.233   5.708   0.033 -0.9524 -0.7236 -0.7426
13294TIP3   OH261372   0.503   0.745  15.091 -0.0717 -0.0476 -0.2853
13294TIP3    H161373   0.463   0.780  15.171 -0.1321  0.2221 -0.4316
13294TIP3    H261374   0.450   0.668  15.069  0.5607 -0.7089  0.4875
13295TIP3   OH261375   2.812   4.811  11.570 -0.4180  0.0790  0.2858
13295TIP3    H161376   2.809   4.765  11.486  3.0486 -0.1160  0.1650
13295TIP3    H261377   2.726   4.850  11.579 -1.7233 -2.0679 -2.1259
13296TIP3   OH261378   2.570   6.405  15.121  0.1117 -0.6272  0.4331
13296TIP3    H161379   2.484   6.427  15.158 -0.8997 -0.4241 -1.9381
13296TIP3    H261380   2.610   6.490  15.101 -0.2741 -0.7588 -0.9418
13297TIP3   OH261381   1.223   1.560  11.681 -0.1534  0.6337  0.2547
13297TIP3    H161382   1.201   1.653  11.680  0.0554  0.6868  0.7618
13297TIP3    H261383   1.308   1.556  11.725 -0.5635  0.1078  0.9873
13298TIP3   OH261384   1.735   0.937   4.009 -0.3626 -0.5041 -0.0196
13298TIP3    H161385   1.766   0.864   3.955  0.4075  0.5251 -0.9685
13298TIP3    H261386   1.782   1.013   3.977 -3.2960  0.9728 -0.9488
13299TIP3   OH261387   5.057   0.646  11.325 -0.0410 -0.0599  0.4049
13299TIP3    H161388   5.062   0.731  11.282  1.8493 -0.3029  0.1156
13299TIP3    H261389   4.970   0.612  11.302 -0.6003  1.5609  0.1081
13300TIP3   OH261390   2.548   0.415   0.151  0.1089  0.4381 -0.1767
13300TIP3    H161391   2.495   0.489   0.122  0.1572  0.4187 -0.3134
13300TIP3    H261392   2.604   0.394   0.076 -1.5152 -1.2175 -0.9973
13301TIP3   OH261393   0.526   0.964   0.498 -0.0310  0.0495 -0.1138
13301TIP3    H161394   0.488   1.008   0.422 -1.6705 -1.3367 -0.1322
13301TIP3    H261395   0.497   1.015   0.573  0.1853  0.4526 -0.3046
13302TIP3   OH261396   1.638   1.715  13.799 -0.4396 -0.0869  0.0358
13302TIP3    H161397   1.721   1.711  13.845 -0.2148 -3.2763 -0.5339
13302TIP3    H261398   1.644   1.647  13.732 -3.2672  0.0783 -0.4612
13303TIP3   OH261399   6.401   3.683  14.822 -0.4854  0.0005 -0.1510
13303TIP3    H161400   6.318   3.691  14.870 -0.3817 -0.9984  0.2182
13303TIP3    H261401   6.449   3.616  14.870 -0.1115 -0.5562 -1.2912
13304TIP3   OH261402   6.816   4.210  15.989  0.7561 -0.0849 -0.0238
13304TIP3    H161403   6.742   4.267  15.972  1.2022  0.1942 -1.1236
13304TIP3    H261404   6.814   4.194  16.083 -0.4125  0.3019  0.0212
13305TIP3   OH261405   5.536   2.213  14.285 -0.4975  0.3994 -0.1218
13305TIP3    H161406   5.493   2.275  14.226 -0.6679  0.3880 -0.0107
13305TIP3    H261407   5.602   2.170  14.231 -1.9957 -1.0548 -0.8610
13306TIP3   OH261408   4.939   0.642   5.342 -0.5224 -0.6985 -0.1469
13306TIP3    H161409   5.034   0.636   5.329 -0.3155 -2.3641  1.8100
13306TIP3    H261410   4.922   0.735   5.352  1.1435 -0.5070  1.1071
13307TIP3   OH261411   6.753   0.114  10.463 -0.4821 -0.3679 -0.6098
13307TIP3    H161412   6.828   0.142  10.409 -0.6321  1.3341  0.0526
13307TIP3    H261413   6.793   0.078  10.542 -0.3560  1.1945  0.0566
13308TIP3   OH261414   3.833   1.873  15.777  0.5305  0.4756  0.2707
13308TIP3    H161415   3.908   1.878  15.719  1.0262  1.5155  0.9943
13308TIP3    H261416   3.779   1.802  15.741  0.2813  1.8098 -2.0815
13309TIP3   OH261417   5.321   3.709   5.395  0.4733  0.4000 -0.5892
13309TIP3    H161418   5.408   3.729   5.360  1.7169 -0.3853  1.8957
13309TIP3    H261419   5.271   3.676   5.321  3.2528 -2.0367 -1.4565
13310TIP3   OH261420   2.450   5.921   4.451 -0.3630 -0.3161  0.1117
13310TIP3    H161421   2.538   5.933   4.414  0.2575 -1.7071  1.1015
13310TIP3    H261422   2.403   6.000   4.425  1.1162  0.3546 -0.6259
13311TIP3   OH261423   5.943   6.313   0.152 -0.9739 -0.0328 -0.2158
13311TIP3    H161424   5.985   6.231   0.178 -1.1126  0.1220  0.5038
13311TIP3    H261425   5.850   6.292   0.149 -1.1470  0.4809  1.4174
13312TIP3   OH261426   1.375   4.325   3.032  0.2919  0.3741 -0.3337
13312TIP3    H161427   1.384   4.384   2.957  0.2540  1.6819  0.6675
13312TIP3    H261428   1.464   4.302   3.055  0.3623  0.8988 -0.0696
13313TIP3   OH261429   5.932   2.797   0.862 -0.8224  0.4133 -0.2326
13313TIP3    H161430   5.907   2.751   0.782 -0.8655  0.8315 -0.4610
13313TIP3    H261431   6.025   2.817   0.851 -0.2152 -1.6320  0.8573
13314TIP3   OH261432   6.613   3.134   5.714  0.0282  0.3196  0.1238
13314TIP3    H161433   6.667   3.071   5.761 -0.6945 -0.3924  0.0056
13314TIP3    H261434   6.661   3.152   5.633  0.3936  0.1697  0.3111
13315TIP3   OH261435   3.854   2.662   4.424  0.3626  0.2772 -0.0477
13315TIP3    H161436   3.770   2.686   4.385  1.4587  1.5131 -1.7889
13315TIP3    H261437   3.889   2.745   4.457  1.6070  0.0735 -0.8226
13316TIP3   OH261438   2.675   6.690   4.116 -0.0014  0.5832  0.3742
13316TIP3    H161439   2.724   6.712   4.195  1.5764 -0.1469 -0.3717
13316TIP3    H261440   2.710   6.748   4.049  0.5495 -0.6274 -0.4021
13317TIP3   OH261441   0.306   0.756   5.240 -0.2021  0.1215  0.0740
13317TIP3    H161442   0.219   0.754   5.202  0.1769 -0.8929 -0.7862
13317TIP3    H261443   0.346   0.674   5.212  1.1240  0.6969  0.2364
13318TIP3   OH261444   3.560   5.470  10.338  0.5917 -0.4023  0.0077
13318TIP3    H161445   3.597   5.396  10.290 -0.2990 -0.8700  0.0578
13318TIP3    H261446   3.466   5.453  10.342  0.6614 -0.4468  2.0670
13319TIP3   OH261447   4.531   0.492  14.968 -0.4540  0.5188  0.0150
13319TIP3    H161448   4.520   0.555  15.039  0.1667  0.4148  0.2113
13319TIP3    H261449   4.609   0.442  14.992 -1.7146 -1.2474  0.5526
13320TIP3   OH261450   2.752   1.616  12.382 -0.0109  0.0851  0.0482
13320TIP3    H161451   2.808   1.615  12.459 -0.5354 -0.8778  0.4337
13320TIP3    H261452   2.762   1.704  12.345 -0.8477  1.0184  2.0025
13321TIP3   OH261453   1.277   0.669   4.628 -0.5228  0.2104  0.1302
13321TIP3    H161454   1.346   0.736   4.625  0.9211 -1.3266 -3.1921
13321TIP3    H261455   1.321   0.591   4.660 -1.4650 -0.0019  0.9321
13322TIP3   OH261456   3.865   1.106  13.071  0.0679  0.3733 -0.1134
13322TIP3    H161457   3.950   1.152  13.075 -0.0827  0.6850 -0.4450
13322TIP3    H261458   3.804   1.173  13.041 -0.0458 -0.1987 -1.1753
13323TIP3   OH261459   0.401   2.608   5.470  0.8948  0.2421  0.1391
13323TIP3    H161460   0.471   2.672   5.455 -0.1244  1.3007 -0.2379
13323TIP3    H261461   0.431   2.556   5.544  0.3834  3.2245  2.5553
13324TIP3   OH261462   6.763   5.754   1.167  0.3344 -0.0002  0.3275
13324TIP3    H161463   6.672   5.757   1.195  0.9658  1.7307  2.3394
13324TIP3    H261464   6.775   5.665   1.133 -1.8025 -0.5691  0.9990
13325TIP3   OH261465   3.202   2.964  16.090  0.5287 -0.4732 -0.4095
13325TIP3    H161466   3.153   2.967  16.173  0.4828 -2.1483 -0.3647
13325TIP3    H261467   3.135   2.944  16.024  0.8857 -1.0766 -0.5871
13326TIP3   OH261468   5.411   0.086   3.064  0.1217 -0.2752  0.7788
13326TIP3    H161469   5.437   0.020   2.998  2.8961 -0.3048  1.8484
13326TIP3    H261470   5.407   0.168   3.015  0.5391 -0.5689  0.2461
13327TIP3   OH261471   2.263   6.730   3.409 -0.3699 -0.3707  0.2789
13327TIP3    H161472   2.251   6.660   3.472 -0.9401  0.1582  0.7675
13327TIP3    H261473   2.297   6.804   3.460  0.3884 -0.3386 -0.2577
13328TIP3   OH261474   5.413   1.030   0.259  0.1275 -0.7642 -0.4145
13328TIP3    H161475   5.346   1.016   0.326 -0.6292  1.9652 -0.5633
13328TIP3    H261476   5.367   1.019   0.176 -0.2959  1.6118 -0.5235
13329TIP3   OH261477   1.012   0.612   1.056  0.3211 -0.2161 -0.1861
13329TIP3    H161478   1.099   0.618   1.095 -0.5787  2.8427  1.5176
13329TIP3    H261479   1.027   0.624   0.962  1.9060 -1.5290 -0.1111
13330TIP3   OH261480   2.407   2.260  10.961  0.0374  0.1018 -0.6293
13330TIP3    H161481   2.419   2.178  10.914  0.9536 -0.6323  0.8577
13330TIP3    H261482   2.361   2.235  11.041  0.3986  1.0334 -0.1264
13331TIP3   OH261483   1.599   0.871   2.147  0.4102  0.7460 -0.3196
13331TIP3    H161484   1.506   0.889   2.133  0.0029 -0.1194  1.1859
13331TIP3    H261485   1.610   0.779   2.123  0.9526  0.9376 -0.8212
13332TIP3   OH261486   0.015   4.528  15.301  0.4938  0.2287  0.2147
13332TIP3    H161487  -0.065   4.541  15.250  0.5217  3.4487  0.8895
13332TIP3    H261488   0.013   4.435  15.325 -3.8218  0.5113  1.4908
13333TIP3   OH261489   4.835   4.812   3.830 -0.1772  0.3032 -0.1113
13333TIP3    H161490   4.740   4.801   3.826 -0.1602  0.1801 -0.1770
13333TIP3    H261491   4.861   4.762   3.908 -0.2770  1.1041  0.4460
13334TIP3   OH261492   4.588   4.267  11.345  0.3609  0.4243 -0.6382
13334TIP3    H161493   4.510   4.224  11.379  0.8189 -0.2789 -0.4797
13334TIP3    H261494   4.574   4.360  11.365  0.0356  0.1782  0.3074
13335TIP3   OH261495   2.084   5.127  11.496  0.2815  0.7651 -0.1988
13335TIP3    H161496   1.990   5.117  11.511  0.4323 -0.3617  0.0765
13335TIP3    H261497   2.107   5.207  11.542 -0.6877  1.4990 -0.9438
13336TIP3   OH261498   2.538   0.433  17.019  0.2266  0.1384  0.0041
13336TIP3    H161499   2.469   0.423  16.953  0.5600  0.8280 -0.4686
13336TIP3    H261500   2.567   0.344  17.037  0.6696 -0.0221 -1.3845
13337TIP3   OH261501   5.618   2.279  15.318 -0.1986 -0.4044 -0.1084
13337TIP3    H161502   5.609   2.371  15.293  2.0708 -0.5475 -1.6020
13337TIP3    H261503   5.682   2.280  15.390 -1.7085 -0.6416  1.2695
13338TIP3   OH261504   5.441   3.911   0.318 -0.8580  0.2762  0.0350
13338TIP3    H161505   5.440   3.907   0.223  0.6858 -3.0210  0.0928
13338TIP3    H261506   5.350   3.927   0.343 -1.5007 -0.1768 -1.9635
13339TIP3   OH261507   3.427   2.045  12.193 -0.2679  0.0317  0.2506
13339TIP3    H161508   3.339   2.026  12.161 -0.6043  1.4833  0.3016
13339TIP3    H261509   3.419   2.126  12.241  0.9006 -0.3898  1.1943
13340TIP3   OH261510   6.342   5.905   5.917  0.0732  0.0289  0.6197
13340TIP3    H161511   6.284   5.835   5.887  1.5228 -1.2372  0.7191
13340TIP3    H261512   6.285   5.981   5.926 -1.1843 -0.6573 -1.2810
13341TIP3   OH261513   6.156   3.477   2.619  0.5511  0.6258 -0.1303
13341TIP3    H161514   6.121   3.470   2.708 -1.5930  1.2696 -0.8956
13341TIP3    H261515   6.250   3.465   2.629  0.4532  1.6870  2.3508
13342TIP3   OH261516   4.344   5.273  11.145 -0.1358  0.3743  0.4074
13342TIP3    H161517   4.424   5.324  11.130  0.1396  0.1794  1.1971
13342TIP3    H261518   4.355   5.195  11.091  0.4951  0.0452  1.0034
13343TIP3   OH261519   5.223   0.762   6.431  1.1028 -0.7535 -0.1688
13343TIP3    H161520   5.255   0.708   6.359  0.0668 -1.5152 -0.0615
13343TIP3    H261521   5.253   0.716   6.510 -0.7111 -1.7668 -0.0559
13344TIP3   OH261522   0.169   0.323  16.720  0.5237  0.0882  0.2702
13344TIP3    H161523   0.231   0.266  16.766  1.4193 -2.0474 -3.3807
13344TIP3    H261524   0.221   0.399  16.694  0.5514  0.2839  0.8922
13345TIP3   OH261525   3.267   0.601  12.817  0.6427  0.6746  0.0315
13345TIP3    H161526   3.238   0.690  12.798 -0.2237  0.6000  0.9677
13345TIP3    H261527   3.329   0.610  12.889 -1.5531  0.2903  2.0501
13346TIP3   OH261528   4.743   2.719   2.902  0.1577  0.2295 -0.8690
13346TIP3    H161529   4.830   2.686   2.880  0.4260  0.9142 -0.8607
13346TIP3    H261530   4.721   2.676   2.985 -0.8575 -2.3492 -2.4297
13347TIP3   OH261531   6.799   2.139   5.933  0.2302  0.5320 -0.4944
13347TIP3    H161532   6.704   2.155   5.934 -0.3196 -2.2576 -2.1970
13347TIP3    H261533   6.834   2.209   5.878 -0.8730  1.4609 -0.0339
13348TIP3   OH261534   3.853   6.782  14.972 -0.8852  0.2989 -0.2684
13348TIP3    H161535   3.842   6.689  14.992 -1.4184  0.6772  1.2709
13348TIP3    H261536   3.816   6.793  14.884 -2.1024 -0.6829  0.1177
13349TIP3   OH261537   4.686   1.346   0.883  0.1330  0.0087  0.3449
13349TIP3    H161538   4.628   1.422   0.872  1.1476  1.1298  2.2310
13349TIP3    H261539   4.649   1.299   0.958  0.5694 -0.3373  0.3413
13350TIP3   OH261540   3.693   6.691  12.635  0.2696  0.4434  0.4781
13350TIP3    H161541   3.727   6.662  12.720 -1.2888 -2.8526  0.0193
13350TIP3    H261542   3.744   6.643  12.570  0.3687  1.7513 -0.4312
13351TIP3   OH261543   3.901   5.210   1.355  0.7069  0.2451  0.5032
13351TIP3    H161544   3.917   5.272   1.284  1.2179  2.1856  2.2635
13351TIP3    H261545   3.812   5.178   1.340  0.3750  1.5315 -0.3685
13352TIP3   OH261546   0.845   3.777   4.010  0.5341 -0.2036  0.2756
13352TIP3    H161547   0.895   3.707   3.967 -0.5512 -0.5713 -0.4134
13352TIP3    H261548   0.778   3.801   3.946 -0.9761 -0.5987  1.6752
13353TIP3   OH261549   4.525   1.656   2.467 -0.0907  0.7215 -0.3212
13353TIP3    H161550   4.515   1.736   2.415  1.9091  0.7089 -0.7561
13353TIP3    H261551   4.443   1.649   2.516  0.2173  3.7502  0.7199
13354TIP3   OH261552   2.971   6.531  13.120 -0.7638  0.0407 -0.1502
13354TIP3    H161553   2.999   6.570  13.203 -1.6317 -1.0549  0.6613
13354TIP3    H261554   3.024   6.451  13.112  0.6139  1.0525 -1.5407
13355TIP3   OH261555   4.955   5.316   5.724 -0.2313 -0.0131 -0.1718
13355TIP3    H161556   4.965   5.380   5.653  0.1618  1.5469  1.2428
13355TIP3    H261557   4.909   5.243   5.684  1.0139  0.3238 -2.3398
13356TIP3   OH261558   4.158   5.616  16.296 -0.3339 -0.0445 -0.2478
13356TIP3    H161559   4.150   5.676  16.222  0.0140  1.5157  0.9811
13356TIP3    H261560   4.241   5.570  16.280 -0.2108  0.3575 -0.7783
13357TIP3   OH261561   4.815   5.919  10.978  0.2981  0.3602 -0.5117
13357TIP3    H161562   4.750   5.916  10.908 -0.2375  2.2975 -0.1256
13357TIP3    H261563   4.780   5.861  11.045  0.5870 -1.1496 -1.6561
13358TIP3   OH261564   1.948   4.700   0.605 -0.3236 -0.0933 -0.1940
13358TIP3    H161565   2.004   4.687   0.682 -1.0931  0.6340  0.4858
13358TIP3    H261566   1.885   4.628   0.609  0.6316 -1.0131 -1.0527
13359TIP3   OH261567   6.157   2.137   4.545 -0.7270  0.0403  0.4060
13359TIP3    H161568   6.168   2.062   4.604 -0.2865  0.9193  1.4619
13359TIP3    H261569   6.245   2.169   4.530 -0.8065 -0.4296 -1.0772
13360TIP3   OH261570   1.906   2.772  16.691  0.0700  0.4686 -0.0715
13360TIP3    H161571   1.855   2.836  16.742  0.0567  0.2190  0.2274
13360TIP3    H261572   1.853   2.693  16.692 -0.9918  1.1027 -2.3392
13361TIP3   OH261573   2.253   5.627  14.408 -1.0132 -0.0664  0.6226
13361TIP3    H161574   2.234   5.562  14.475 -0.7537 -0.2717  0.4951
13361TIP3    H261575   2.327   5.677  14.442  0.1704 -1.1995 -0.2107
13362TIP3   OH261576   1.201   2.046   1.338  0.3117 -0.2654 -0.4407
13362TIP3    H161577   1.125   2.084   1.382 -0.1920 -1.0525 -0.6095
13362TIP3    H261578   1.164   1.999   1.263  0.9755 -0.5716 -0.5808
13363TIP3   OH261579   5.990   4.526  16.907  0.0044 -0.2724 -0.5907
13363TIP3    H161580   5.997   4.434  16.933 -0.6973 -0.4295 -0.9418
13363TIP3    H261581   6.069   4.542  16.855  0.3862 -0.5299 -0.0945
13364TIP3   OH261582   3.116   4.355   3.207 -0.2056 -0.1673  0.1729
13364TIP3    H161583   3.128   4.284   3.144 -1.6264 -1.5121  1.3792
13364TIP3    H261584   3.126   4.314   3.293  2.7740  1.8442  0.8576
13365TIP3   OH261585   4.813   1.473  15.957  0.4361  0.6128 -0.6459
13365TIP3    H161586   4.805   1.496  15.864  0.8529  2.1668 -0.3009
13365TIP3    H261587   4.749   1.528  16.002  0.5537  0.1905  0.0466
13366TIP3   OH261588   2.500   2.518  10.378 -0.4267  0.0879  0.1656
13366TIP3    H161589   2.476   2.599  10.422 -3.2078 -0.5906  0.0098
13366TIP3    H261590   2.593   2.505  10.398 -0.1489  2.9001  0.8048
13367TIP3   OH261591   3.970   2.191   2.849  0.5476  0.5520 -0.8155
13367TIP3    H161592   3.972   2.097   2.829 -1.7977  0.4237 -0.6357
13367TIP3    H261593   3.969   2.195   2.945 -0.6139  0.6842 -0.8196
13368TIP3   OH261594   6.413   3.334   5.770 -0.1293 -0.2438  0.6358
13368TIP3    H161595   6.476   3.264   5.752 -0.0863 -0.2495  0.8036
13368TIP3    H261596   6.374   3.354   5.685  0.5305  0.1745  0.4234
13369TIP3   OH261597   2.827   0.457   2.404 -0.4949 -0.3907  0.3864
13369TIP3    H161598   2.843   0.393   2.334 -0.1642  1.3012 -1.1282
13369TIP3    H261599   2.911   0.463   2.450  0.8905  2.1896 -2.2652
13370TIP3   OH261600   3.523   3.913  11.685 -0.5152 -0.4817  0.1027
13370TIP3    H161601   3.433   3.946  11.685  0.0183  1.1203 -2.5024
13370TIP3    H261602   3.555   3.931  11.597  2.1672 -1.6219  0.7947
13371TIP3   OH261603   5.031   1.375   4.876 -0.4784 -0.2038 -0.7609
13371TIP3    H161604   4.945   1.416   4.865 -0.5645 -0.7491 -2.2173
13371TIP3    H261605   5.025   1.294   4.825  0.7035 -0.5262 -0.3904
13372TIP3   OH261606   1.875   1.332   3.201  0.6837 -0.4221 -0.2341
13372TIP3    H161607   1.807   1.303   3.262  1.2988  0.0179  0.6661
13372TIP3    H261608   1.866   1.273   3.126 -0.6397 -0.4133 -0.0963
13373TIP3   OH261609   0.561   2.213   4.909  0.2806  0.6644  0.5005
13373TIP3    H161610   0.518   2.156   4.972  0.7902 -0.3004 -0.0075
13373TIP3    H261611   0.559   2.164   4.827 -1.4288  2.3936 -0.5312
13374TIP3   OH261612   1.082   6.561   4.274  0.2198  0.1910 -0.0144
13374TIP3    H161613   1.092   6.471   4.304  0.0902  0.0489 -0.3899
13374TIP3    H261614   1.165   6.580   4.230  0.3431  0.3403  0.2810
13375TIP3   OH261615   5.836   5.515  15.662  0.0058  0.3791  0.4496
13375TIP3    H161616   5.894   5.591  15.671 -1.0783  1.3355 -0.5515
13375TIP3    H261617   5.809   5.515  15.571 -1.4745 -0.1255  0.8648
13376TIP3   OH261618   3.884   4.723  15.333  0.2160 -0.0527 -0.0629
13376TIP3    H161619   3.904   4.813  15.310 -0.3051  0.1612  0.3292
13376TIP3    H261620   3.958   4.694  15.386 -0.2124  0.5444  0.8762
13377TIP3   OH261621   2.603   2.749   5.585  0.3715 -0.1631 -0.6762
13377TIP3    H161622   2.617   2.698   5.665  1.5822  0.4842 -0.4558
13377TIP3    H261623   2.691   2.774   5.557 -0.1074  0.3964 -1.7018
13378TIP3   OH261624   0.807   1.637   6.203 -0.0558  0.1304  0.4303
13378TIP3    H161625   0.715   1.627   6.177 -0.9945  1.5358  2.9353
13378TIP3    H261626   0.856   1.585   6.140 -2.5902 -0.7970 -0.8606
13379TIP3   OH261627   0.608   6.011  12.089 -0.2377 -0.5485  0.4747
13379TIP3    H161628   0.687   6.059  12.109 -0.2382 -0.0041 -0.7581
13379TIP3    H261629   0.536   6.069  12.114 -0.2385  0.0108 -0.7994
13380TIP3   OH261630   6.485   1.184   0.758  0.2214 -0.2523 -0.6185
13380TIP3    H161631   6.564   1.238   0.749  1.7622 -2.4700 -0.8127
13380TIP3    H261632   6.429   1.211   0.686  0.6850  1.5290 -0.3366
13381TIP3   OH261633   2.477   0.645  12.158 -0.2823  0.4592  0.5197
13381TIP3    H161634   2.553   0.692  12.190  0.1837  1.0039 -1.3255
13381TIP3    H261635   2.492   0.554  12.183  1.3743  0.4248 -0.5326
13382TIP3   OH261636   3.044   4.445   1.539  0.0694 -0.5258  0.3942
13382TIP3    H161637   3.123   4.498   1.530 -0.1620 -0.2209  0.1419
13382TIP3    H261638   2.972   4.507   1.526 -0.2054 -0.8614  0.3024
13383TIP3   OH261639   0.714   4.172   1.419 -0.2040  0.4043 -0.3424
13383TIP3    H161640   0.753   4.258   1.436 -0.0123  0.0885  0.8758
13383TIP3    H261641   0.769   4.135   1.350 -0.1619  1.1753 -0.7331
13384TIP3   OH261642   1.753   0.806  16.967  0.6119  0.2408 -0.1184
13384TIP3    H161643   1.716   0.792  16.881 -1.5940 -1.1274  1.0101
13384TIP3    H261644   1.846   0.784  16.958  0.6083  1.1123 -2.3513
13385TIP3   OH261645   6.671   5.995  12.516 -0.4288 -0.5335 -0.3387
13385TIP3    H161646   6.599   5.936  12.539 -0.1630 -0.6743  0.1454
13385TIP3    H261647   6.647   6.079  12.555 -1.3139 -0.0421 -1.9280
13386TIP3   OH261648   3.592   3.855  13.962  0.5966 -0.1450 -0.2480
13386TIP3    H161649   3.512   3.893  13.926  1.2147  1.5548  0.1343
13386TIP3    H261650   3.562   3.788  14.023 -0.6041  1.5961  1.1331
13387TIP3   OH261651   6.450   4.988   1.158  0.0453  0.1368 -0.5717
13387TIP3    H161652   6.466   5.021   1.246  0.3213  2.2212 -1.3655
13387TIP3    H261653   6.509   4.913   1.149  2.7604  2.1223 -0.2152
13388TIP3   OH261654   1.882   1.365   1.605 -0.0276 -0.6634  0.0365
13388TIP3    H161655   1.861   1.423   1.678 -0.6328 -0.0525 -0.6198
13388TIP3    H261656   1.971   1.333   1.624  0.1722  0.2080  0.5652
13389TIP3   OH261657   3.710   5.689   4.103 -0.1904  0.7832 -0.0857
13389TIP3    H161658   3.668   5.689   4.017  1.0566  2.5402 -0.7232
13389TIP3    H261659   3.796   5.652   4.088 -1.0003 -1.6310  0.9869
13390TIP3   OH261660   2.316   4.171  13.850  0.1281 -0.1052  0.1411
13390TIP3    H161661   2.278   4.110  13.913  0.0754 -0.6601 -0.4312
13390TIP3    H261662   2.270   4.154  13.768 -0.0409  0.8511  0.0227
13391TIP3   OH261663   6.519   5.954   0.823  0.2295 -0.1541  0.6574
13391TIP3    H161664   6.494   6.028   0.766  1.4656 -1.1504 -1.2276
13391TIP3    H261665   6.490   5.876   0.775  3.3505 -1.1365  0.2273
13392TIP3   OH261666   6.551   2.246   5.891 -0.1217  0.2743  0.0944
13392TIP3    H161667   6.478   2.192   5.861  0.1911 -0.1380  0.0793
13392TIP3    H261668   6.568   2.307   5.819  1.2829 -1.3611 -0.9761
13393TIP3   OH261669   0.333   0.810   3.512 -0.3832 -0.4432 -0.2861
13393TIP3    H161670   0.304   0.901   3.502 -1.3062 -0.6279  0.6749
13393TIP3    H261671   0.263   0.758   3.472  0.3495 -0.7249 -1.2378
13394TIP3   OH261672   6.246   3.706  15.148  0.3160  0.0118  0.0451
13394TIP3    H161673   6.270   3.795  15.121 -0.2182  0.2970  0.4876
13394TIP3    H261674   6.313   3.681  15.211 -1.2965  1.3440  2.3407
13395TIP3   OH261675   3.649   2.220  14.913 -0.2414  0.1886  0.4178
13395TIP3    H161676   3.675   2.300  14.868  0.6655 -0.0991  0.4229
13395TIP3    H261677   3.591   2.250  14.983 -0.3351  0.7893  0.0838
13396TIP3   OH261678   0.811   3.857  15.805  0.3713  0.3279  0.5114
13396TIP3    H161679   0.844   3.836  15.893  0.3766 -1.4072  0.1147
13396TIP3    H261680   0.717   3.872  15.818  0.2837 -0.3910  0.7519
13397TIP3   OH261681   1.288   3.514   3.214 -0.6837 -0.2000  0.6181
13397TIP3    H161682   1.254   3.497   3.302 -1.0666 -0.3105  0.4548
13397TIP3    H261683   1.227   3.468   3.156  1.2261 -2.5952  0.4427
13398TIP3   OH261684   0.761   2.306  13.681 -0.4902 -0.0772  0.0182
13398TIP3    H161685   0.855   2.321  13.681 -0.3459 -0.9634  0.2503
13398TIP3    H261686   0.732   2.338  13.596 -0.2627  1.8663  0.6530
13399TIP3   OH261687   0.399   0.813  15.382  0.0966 -0.1586 -0.0330
13399TIP3    H161688   0.435   0.724  15.373  0.0918 -0.2128  0.4674
13399TIP3    H261689   0.305   0.800  15.385  0.1395 -0.2456  1.2181
13400TIP3   OH261690   6.804   5.779  17.197  0.3750 -0.6325  0.1736
13400TIP3    H161691   6.742   5.817  17.134  0.9948  1.0764  0.5737
13400TIP3    H261692   6.814   5.688  17.168 -0.4056 -0.2505 -1.3767
13401TIP3   OH261693   5.708   5.031   3.329 -0.2580 -0.1378  0.0307
13401TIP3    H161694   5.686   5.074   3.247  0.1757 -0.9541 -0.5176
13401TIP3    H261695   5.709   5.101   3.394  1.6704  0.8833 -1.0686
13402TIP3   OH261696   1.482   1.815  11.584 -0.2401 -0.2425 -0.0301
13402TIP3    H161697   1.535   1.893  11.601  0.7554 -1.3652  2.0910
13402TIP3    H261698   1.545   1.748  11.559 -1.1507 -0.2563 -2.4364
13403TIP3   OH261699   4.480   1.534   5.925  0.5699 -0.0636 -0.2522
13403TIP3    H161700   4.494   1.549   6.018 -1.3693  1.9821 -0.2466
13403TIP3    H261701   4.549   1.585   5.881 -0.4952  1.6216  0.0018
13404TIP3   OH261702   1.454   1.577   0.600 -0.1702 -0.1077  0.6392
13404TIP3    H161703   1.363   1.602   0.588 -0.0815 -0.2059 -0.2625
13404TIP3    H261704   1.497   1.657   0.628 -0.9305 -0.5506  3.2601
13405TIP3   OH261705   4.190   6.121   5.840 -0.1989 -0.4599 -0.5603
13405TIP3    H161706   4.117   6.059   5.848 -0.8038  0.3259  0.1899
13405TIP3    H261707   4.159   6.186   5.777  0.5459 -1.0557 -1.5666
13406TIP3   OH261708   3.382   3.613  13.376  0.1276 -0.3027  0.2290
13406TIP3    H161709   3.361   3.636  13.286  1.4133  0.8289  0.2086
13406TIP3    H261710   3.451   3.674  13.402  0.5670 -1.3357  1.6096
13407TIP3   OH261711   5.952   5.870  13.114  0.5510  0.2020  0.0707
13407TIP3    H161712   5.918   5.956  13.089  0.0848  0.3212  1.0800
13407TIP3    H261713   5.896   5.807  13.070  1.7834  0.4181 -1.8329
13408TIP3   OH261714   2.634   2.522  15.501  0.1526  0.0410 -0.1512
13408TIP3    H161715   2.693   2.571  15.558  0.1052  0.1269 -0.1756
13408TIP3    H261716   2.593   2.589  15.447 -1.0893  0.1515  0.8994
13409TIP3   OH261717   0.855   0.689   6.632 -0.1705  0.1173  0.4110
13409TIP3    H161718   0.874   0.599   6.606 -0.1616 -0.0064  0.8401
13409TIP3    H261719   0.760   0.692   6.640 -0.5130  1.0821 -3.0064
13410TIP3   OH261720   4.444   0.569   2.859  0.1305 -0.4988 -0.0974
13410TIP3    H161721   4.494   0.511   2.917  0.5609 -1.2963 -1.2456
13410TIP3    H261722   4.392   0.509   2.805  0.7458  0.1704 -1.4462
13411TIP3   OH261723   2.394   1.985  14.336 -0.6650  0.1656  0.1944
13411TIP3    H161724   2.348   1.916  14.384 -2.1739  0.8954 -0.1763
13411TIP3    H261725   2.487   1.965  14.348 -1.0251 -0.0959  2.8024
13412TIP3   OH261726   5.786   4.253  16.262  0.2810  0.0122  0.4687
13412TIP3    H161727   5.842   4.218  16.193 -0.3424  0.5604 -0.3376
13412TIP3    H261728   5.706   4.201  16.256  0.4944 -0.4038  1.2469
13413TIP3   OH261729   3.021   2.309   3.811 -0.1156 -0.0317 -0.0958
13413TIP3    H161730   3.096   2.252   3.792 -1.3228 -1.4529 -0.7800
13413TIP3    H261731   3.012   2.364   3.733  0.5637  0.5314  0.2255
13414TIP3   OH261732   2.102   5.854  14.021  0.2323 -0.0837  0.4384
13414TIP3    H161733   2.020   5.900  14.037 -0.7520 -1.9327  0.8539
13414TIP3    H261734   2.077   5.773  13.977  1.6462 -1.3721  1.8878
13415TIP3   OH261735   3.814   4.829  11.414  0.1820  0.4148  0.3567
13415TIP3    H161736   3.901   4.852  11.382  1.1927 -1.5121  1.5957
13415TIP3    H261737   3.830   4.757  11.475 -2.3752 -0.5022 -0.0234
13416TIP3   OH261738   4.914   0.779  16.340  0.2414 -0.0529  0.3114
13416TIP3    H161739   4.826   0.817  16.350  0.4386  0.0657  1.6534
13416TIP3    H261740   4.931   0.737  16.424  1.8728  0.7573  0.3944
13417TIP3   OH261741   1.270   4.181   0.184  0.1719 -0.5911 -0.2378
13417TIP3    H161742   1.192   4.235   0.193  1.7264  1.8298 -0.8976
13417TIP3    H261743   1.308   4.179   0.272  1.4702  1.5300 -0.7307
13418TIP3   OH261744   3.979   0.683  11.224  0.5286  0.1231  0.5903
13418TIP3    H161745   4.059   0.664  11.273 -0.2179 -2.0764  1.0284
13418TIP3    H261746   3.916   0.709  11.292  0.6121  0.9675  0.3464
13419TIP3   OH261747   4.623   1.607   1.682 -0.0066 -1.0828 -0.0135
13419TIP3    H161748   4.556   1.668   1.651  0.8402 -0.1653 -0.0264
13419TIP3    H261749   4.706   1.643   1.652  0.5999 -1.6187  0.9778
13420TIP3   OH261750   1.906   0.446   1.764  0.0740  0.0630  0.3736
13420TIP3    H161751   1.929   0.535   1.791 -0.1224  0.1918  0.1230
13420TIP3    H261752   1.823   0.428   1.809  0.8134 -0.5196  1.5251
13421TIP3   OH261753   6.225   6.801  11.666  0.0816  0.2316  0.1439
13421TIP3    H161754   6.267   6.852  11.736 -0.0674  2.6612 -1.4915
13421TIP3    H261755   6.297   6.754  11.624  0.6920  1.5919 -0.3560
13422TIP3   OH261756   6.414   3.591   5.371 -0.1482 -0.2643 -0.1285
13422TIP3    H161757   6.404   3.683   5.395 -1.0581 -0.4001  0.0158
13422TIP3    H261758   6.402   3.589   5.276  1.1027 -0.0665 -0.3051
13423TIP3   OH261759   4.377   6.687   2.005 -0.7912  0.3536  0.3544
13423TIP3    H161760   4.457   6.650   1.966  0.3310  1.8128  1.2434
13423TIP3    H261761   4.389   6.781   2.000 -2.1539  0.5862  1.1958
13424TIP3   OH261762   3.707   0.807   4.377 -0.4642  0.3396  0.2719
13424TIP3    H161763   3.665   0.815   4.462  2.7402 -1.7981  2.1717
13424TIP3    H261764   3.752   0.890   4.364 -0.2047  0.3437  1.1529
13425TIP3   OH261765   5.153   2.408  13.519  0.0831  0.2023  0.4227
13425TIP3    H161766   5.098   2.330  13.526  0.2413 -0.0638 -1.0907
13425TIP3    H261767   5.233   2.376  13.476  0.7792  0.8956  1.1987
13426TIP3   OH261768   3.600   2.659   1.627  0.0606  0.2789  0.0961
13426TIP3    H161769   3.610   2.624   1.539 -1.1357  1.0464 -0.3596
13426TIP3    H261770   3.547   2.738   1.615 -0.2113  0.3171  1.5155
13427TIP3   OH261771   6.534   3.530  16.297 -0.1955  0.2259  0.4729
13427TIP3    H161772   6.590   3.599  16.333  1.3565 -0.3952 -0.6622
13427TIP3    H261773   6.509   3.477  16.373 -1.8661  2.3460  1.4295
13428TIP3   OH261774   2.829   2.854  14.702 -0.0590  0.3375 -1.0314
13428TIP3    H161775   2.852   2.862  14.609 -0.9144 -0.2916 -1.2997
13428TIP3    H261776   2.908   2.884  14.749  0.8733 -0.6633 -1.9375
13429TIP3   OH261777   1.747   3.204  17.193 -0.1554 -0.4301 -0.1491
13429TIP3    H161778   1.680   3.180  17.257 -0.4336 -0.6372 -0.5172
13429TIP3    H261779   1.714   3.284  17.152 -0.1715 -0.5182 -0.3114
13430TIP3   OH261780   5.754   1.514   0.534 -0.1999  0.9227  0.1220
13430TIP3    H161781   5.752   1.604   0.503  1.9896  0.3291 -1.9074
13430TIP3    H261782   5.698   1.466   0.474 -0.4907  0.7433  0.5352
13431TIP3   OH261783   0.881   2.284  14.688 -0.0621 -0.6333  0.5241
13431TIP3    H161784   0.851   2.308  14.600  0.3596  1.9631  1.0455
13431TIP3    H261785   0.938   2.209  14.674 -1.5251 -1.4883 -1.1899
13432TIP3   OH261786   5.475   1.297  14.376 -0.1078  0.2562 -0.3654
13432TIP3    H161787   5.407   1.288  14.442 -0.8155  1.1240 -0.9760
13432TIP3    H261788   5.428   1.305  14.293  0.7938 -1.9667 -1.1309
13433TIP3   OH261789   3.433   2.541   3.659 -0.0692 -0.1443  0.6962
13433TIP3    H161790   3.424   2.636   3.649  1.5345 -0.0772 -0.3552
13433TIP3    H261791   3.345   2.507   3.643 -0.2584  1.0287 -0.9276
13434TIP3   OH261792   6.125   1.037   2.158 -0.0413 -0.3191 -0.2955
13434TIP3    H161793   6.076   0.978   2.216 -0.7220 -0.6300 -1.1593
13434TIP3    H261794   6.060   1.064   2.093 -0.0525  2.3853  0.7993
13435TIP3   OH261795   1.929   0.206  16.482  0.0674 -0.4494  0.1587
13435TIP3    H161796   1.859   0.175  16.539 -0.2167 -1.8425 -0.9129
13435TIP3    H261797   1.885   0.263  16.419 -0.0185 -0.8832 -0.1746
13436TIP3   OH261798   5.758   3.015   3.277 -0.4991 -0.0495 -1.1324
13436TIP3    H161799   5.720   3.055   3.355  0.4199 -0.9543 -0.1976
13436TIP3    H261800   5.784   3.089   3.222 -2.0046  0.5797 -1.0034
13437TIP3   OH261801   5.774   3.083   4.818 -0.0362 -0.4024 -0.2011
13437TIP3    H161802   5.764   3.046   4.906 -2.0615 -0.4979 -0.4454
13437TIP3    H261803   5.761   3.177   4.830  2.5627 -0.0208  0.0152
13438TIP3   OH261804   5.062   4.015  16.725 -0.3107  0.2676  0.4908
13438TIP3    H161805   5.015   4.095  16.746  0.0920  0.3459  1.0980
13438TIP3    H261806   5.148   4.044  16.695 -1.4660  0.2595 -3.0459
13439TIP3   OH261807   3.546   3.928   0.458 -0.1340 -0.0365  1.1558
13439TIP3    H161808   3.484   3.997   0.432  2.7693  2.6507  1.1167
13439TIP3    H261809   3.581   3.958   0.542  2.4183 -0.5730  0.3193
13440TIP3   OH261810   3.199   4.907   3.485 -0.4702 -0.8683  0.3637
13440TIP3    H161811   3.159   4.977   3.432  1.3800  0.8048  1.0952
13440TIP3    H261812   3.127   4.847   3.504 -1.9840  0.5279 -0.7942
13441TIP3   OH261813   1.586   5.024   6.241  0.8806 -0.3650 -0.0093
13441TIP3    H161814   1.495   5.018   6.272  0.8878  0.1128  0.1220
13441TIP3    H261815   1.635   5.054   6.318  0.8525  1.1143 -0.5396
13442TIP3   OH261816   0.455   3.100  15.577 -0.9838  0.6550  0.7651
13442TIP3    H161817   0.443   3.054  15.494  0.5616  0.4298  0.6688
13442TIP3    H261818   0.385   3.065  15.633 -0.8168 -0.6451  0.1831
13443TIP3   OH261819   5.290   0.092   2.139 -0.0016  0.0466 -0.5051
13443TIP3    H161820   5.329   0.040   2.209 -0.1630  2.0130  1.0689
13443TIP3    H261821   5.246   0.027   2.083 -1.1561 -1.3991  2.0150
13444TIP3   OH261822   0.549   6.457  12.233 -0.1766  0.2129  0.0131
13444TIP3    H161823   0.552   6.552  12.242 -1.3781  0.2813 -0.2764
13444TIP3    H261824   0.530   6.425  12.320  0.6293  0.2058  0.1933
13445TIP3   OH261825   1.175   2.834  16.774 -0.0804  0.2217  0.1809
13445TIP3    H161826   1.112   2.892  16.816 -0.6555  0.2232 -0.6614
13445TIP3    H261827   1.147   2.746  16.798 -1.1348  0.1735 -1.1829
13446TIP3   OH261828   5.043   5.476   0.144  0.4207  0.0799  0.0540
13446TIP3    H161829   5.048   5.389   0.106 -0.7703  0.1058 -0.1949
13446TIP3    H261830   4.957   5.479   0.186 -0.6077  1.9483 -2.0380
13447TIP3   OH261831   3.623   4.432   1.677  0.5148 -0.4057 -0.3268
13447TIP3    H161832   3.561   4.492   1.719  1.5781  0.7728 -0.4255
13447TIP3    H261833   3.605   4.439   1.584  1.9753  1.3158 -0.5139
13448TIP3   OH261834   1.513   2.142   1.352  0.3362  0.2369 -0.1536
13448TIP3    H161835   1.583   2.100   1.302 -0.6940 -0.3334 -1.1302
13448TIP3    H261836   1.550   2.227   1.378  1.1558  0.2171 -1.2325
13449TIP3   OH261837   3.115   2.829  13.639 -0.4063 -0.1915  0.9576
13449TIP3    H161838   3.118   2.740  13.673  1.2728 -0.5141  0.0330
13449TIP3    H261839   3.031   2.835  13.595  0.0862 -1.8425 -0.2801
13450TIP3   OH261840   5.660   2.497  14.783  0.0883 -0.4910  0.2371
13450TIP3    H161841   5.676   2.445  14.704 -0.7079 -1.1177  0.4804
13450TIP3    H261842   5.745   2.535  14.804  0.2429 -0.0880 -1.0861
13451TIP3   OH261843   5.959   3.247  12.474  0.1231 -0.3916  0.2741
13451TIP3    H161844   5.870   3.260  12.506 -0.2553 -0.3081 -0.8020
13451TIP3    H261845   5.949   3.191  12.397  0.8749  0.6713 -0.6176
13452TIP3   OH261846   1.372   0.979   2.052  0.1298 -0.3893  0.5087
13452TIP3    H161847   1.310   0.914   2.020 -0.3958  0.3087  0.0934
13452TIP3    H261848   1.318   1.055   2.073  0.5643 -0.5243  2.2383
13453TIP3   OH261849   0.026   0.081  12.129  0.2104 -0.1219 -0.1722
13453TIP3    H161850  -0.018   0.098  12.213 -0.6303 -1.8890 -0.2314
13453TIP3    H261851  -0.020   0.136  12.066  0.6541  0.9970  0.4705
13454TIP3   OH261852   0.951   1.979   2.162  0.0412 -0.3175  0.1408
13454TIP3    H161853   0.922   2.017   2.079 -2.7874  1.8986  2.0336
13454TIP3    H261854   1.046   1.972   2.154 -0.2202 -0.5969 -3.4125
13455TIP3   OH261855   0.584   2.086  16.191 -0.1553  0.2077  0.2113
13455TIP3    H161856   0.549   2.080  16.280  0.1986 -2.1172  0.2189
13455TIP3    H261857   0.626   2.002  16.175  1.4854  1.2861 -1.4739
13456TIP3   OH261858   5.067   1.802   3.276  0.3899  0.6527  0.6724
13456TIP3    H161859   5.131   1.791   3.206 -1.6079  1.1842 -1.2978
13456TIP3    H261860   5.000   1.860   3.239 -0.3922  1.4608  3.2447
13457TIP3   OH261861   5.080   1.394  15.944  0.5576 -0.6279  0.7146
13457TIP3    H161862   4.984   1.398  15.946  0.6111  1.0429  0.6384
13457TIP3    H261863   5.100   1.331  15.875 -0.4821 -1.1901  0.9150
13458TIP3   OH261864   1.725   3.773   0.474 -0.2097 -0.4003  0.4499
13458TIP3    H161865   1.808   3.776   0.427 -0.3914  1.3067  0.2064
13458TIP3    H261866   1.701   3.865   0.486 -3.2501 -0.8643 -1.5577
13459TIP3   OH261867   5.666   1.634   1.102 -0.0586 -0.8330 -0.2432
13459TIP3    H161868   5.715   1.559   1.070 -0.6762 -1.2790 -0.1487
13459TIP3    H261869   5.663   1.622   1.197  0.3094 -0.4026 -0.1753
13460TIP3   OH261870   4.568   1.167   3.759  0.3047 -0.8597 -0.3538
13460TIP3    H161871   4.490   1.192   3.808 -1.2346 -1.3661 -2.4702
13460TIP3    H261872   4.641   1.197   3.813 -1.3606  0.2896  1.3163
13461TIP3   OH261873   5.805   0.445  14.436  0.2323  0.4684  0.4366
13461TIP3    H161874   5.892   0.468  14.403  1.0260 -0.6680  1.6897
13461TIP3    H261875   5.805   0.476  14.527 -0.8678  0.9327  0.2863
13462TIP3   OH261876   1.913   6.474  14.308  0.5931 -0.1087 -0.0319
13462TIP3    H161877   1.961   6.524  14.374 -1.1120  2.7700 -0.8371
13462TIP3    H261878   1.979   6.455  14.240  1.1957  1.5875  0.0409
13463TIP3   OH261879   2.199   4.248  11.001 -1.2934  0.0317 -0.0190
13463TIP3    H161880   2.252   4.327  11.007  0.4895 -1.2953  2.4590
13463TIP3    H261881   2.195   4.229  10.907  0.8271  1.3356 -0.4097
13464TIP3   OH261882   4.467   5.699   1.286 -0.1579  0.1649 -0.4298
13464TIP3    H161883   4.421   5.756   1.347 -1.4140 -2.3593  1.0811
13464TIP3    H261884   4.403   5.630   1.266  0.4243  0.6098 -4.1698
13465TIP3   OH261885   5.923   2.986  17.097  0.2672  0.1010  0.1543
13465TIP3    H161886   6.015   2.974  17.119 -0.4640 -0.4231  3.2793
13465TIP3    H261887   5.900   2.909  17.045  0.8851 -1.3703  1.9936
13466TIP3   OH261888   6.104   2.569   1.801 -0.1242 -0.0144  0.6994
13466TIP3    H161889   6.181   2.553   1.747  0.7906  1.1053  1.6240
13466TIP3    H261890   6.130   2.541   1.889 -0.8340  0.1833  0.9777
13467TIP3   OH261891   0.726   6.815   0.999 -0.4514  0.8943  0.1116
13467TIP3    H161892   0.667   6.890   0.989 -0.8583  0.6754  0.8242
13467TIP3    H261893   0.789   6.825   0.928 -0.2009  2.2022  0.4920
13468TIP3   OH261894   0.401   2.199  16.959  0.4645 -0.8131  0.1181
13468TIP3    H161895   0.468   2.241  17.014  0.2483 -0.8165  0.3826
13468TIP3    H261896   0.378   2.119  17.006 -0.4551 -0.3080  0.5314
13469TIP3   OH261897   1.560   1.895   4.443 -0.0963  0.6008  0.2302
13469TIP3    H161898   1.478   1.899   4.394 -0.4841 -0.5475  0.7743
13469TIP3    H261899   1.533   1.892   4.535  0.6087  2.0186  0.5081
13470TIP3   OH261900   1.251   4.871  13.970 -0.1042 -0.9297 -0.4645
13470TIP3    H161901   1.278   4.783  13.996 -1.1160 -1.3581 -0.8047
13470TIP3    H261902   1.289   4.883  13.883 -1.0245 -1.5438 -0.9590
13471TIP3   OH261903   5.954   0.319   5.305  0.3034 -0.0848 -0.6993
13471TIP3    H161904   5.957   0.390   5.241  0.7156 -0.6458 -1.2997
13471TIP3    H261905   6.029   0.336   5.363 -0.1789  0.5269 -0.2418
13472TIP3   OH261906   2.485   3.961  15.557 -0.1300  0.2430 -0.0795
13472TIP3    H161907   2.433   3.904  15.501 -0.5518  0.3042  0.2502
13472TIP3    H261908   2.520   4.027  15.497 -2.5269  1.7243  0.0818
13473TIP3   OH261909   5.250   6.728   3.835  0.7076 -0.0887  0.0593
13473TIP3    H161910   5.189   6.714   3.763  0.4076 -0.0422  0.3056
13473TIP3    H261911   5.312   6.794   3.801 -0.1177  0.7930  0.2562
13474TIP3   OH261912   4.288   5.186  11.993  0.5102 -0.0203 -0.1709
13474TIP3    H161913   4.201   5.211  11.961  0.5442 -0.7646 -0.8697
13474TIP3    H261914   4.274   5.104  12.040  0.8502 -0.2051 -0.3880
13475TIP3   OH261915   2.738   1.750  13.766 -0.5123 -0.0269 -0.0081
13475TIP3    H161916   2.765   1.805  13.840 -2.6419  0.6555  0.2874
13475TIP3    H261917   2.661   1.703  13.799 -0.6365 -0.7682 -1.3467
13476TIP3   OH261918   5.106   6.767   5.848 -0.1133 -0.2870 -0.4299
13476TIP3    H161919   5.037   6.775   5.914  2.2939  1.6464  1.9511
13476TIP3    H261920   5.072   6.814   5.772 -1.1085  1.3787  1.0074
13477TIP3   OH261921   2.702   2.082  15.479  0.3585 -0.0070 -0.2053
13477TIP3    H161922   2.730   2.039  15.560  1.7347 -2.6417 -1.9750
13477TIP3    H261923   2.783   2.096  15.430 -0.7203 -2.1297 -2.7776
13478TIP3   OH261924   0.617   5.953   2.736 -0.4944  0.2310  0.1979
13478TIP3    H161925   0.642   5.867   2.770  1.3450  0.4221 -0.6216
13478TIP3    H261926   0.681   6.013   2.772  1.0701  0.5558 -2.9408
13479TIP3   OH261927   0.927   5.089  12.125 -0.1977 -0.0291 -0.2936
13479TIP3    H161928   0.952   5.047  12.207 -0.0444  0.8199  0.1111
13479TIP3    H261929   0.997   5.067  12.064 -0.3117 -0.6659 -0.1987
13480TIP3   OH261930   5.277   1.379   5.254  0.2858  0.3133 -0.1672
13480TIP3    H161931   5.285   1.351   5.345 -0.7371 -5.0555 -1.5299
13480TIP3    H261932   5.366   1.371   5.219  0.4813  1.3103  0.1138
13481TIP3   OH261933   3.461   1.294   0.825  0.3255 -0.2272  0.1403
13481TIP3    H161934   3.454   1.205   0.792  1.6288 -0.1934 -0.2493
13481TIP3    H261935   3.455   1.349   0.747 -2.6842  0.1458  0.5974
13482TIP3   OH261936   5.394   5.520   3.823 -0.0585 -0.0245 -0.0819
13482TIP3    H161937   5.377   5.612   3.842 -0.4308 -0.2997  0.9121
13482TIP3    H261938   5.440   5.521   3.738 -2.2538  0.9102 -1.2885
13483TIP3   OH261939   2.258   0.343  12.605  0.4019  0.0045 -0.2862
13483TIP3    H161940   2.267   0.413  12.669 -1.3682  1.1692 -1.2738
13483TIP3    H261941   2.189   0.287  12.640 -1.4928  1.3603 -1.7721
13484TIP3   OH261942   5.128   0.981   5.255  0.0509  0.1801  0.1663
13484TIP3    H161943   5.104   1.057   5.202 -1.5219 -0.5700 -0.2090
13484TIP3    H261944   5.196   0.937   5.205  1.0860  1.4054  0.4528
13485TIP3   OH261945   5.904   2.069  16.047  0.4550  0.1498 -0.2632
13485TIP3    H161946   5.828   2.071  16.105  0.5223 -1.2980 -0.1064
13485TIP3    H261947   5.868   2.062  15.959  0.3914  0.0507 -0.2304
13486TIP3   OH261948   0.175   3.923   6.317 -0.1688  0.0790 -0.8519
13486TIP3    H161949   0.199   3.982   6.246  0.9046  0.5970 -0.0650
13486TIP3    H261950   0.201   3.969   6.397  1.1340 -1.6455 -0.2440
13487TIP3   OH261951   6.427   0.792  10.481 -0.0381 -0.0001  0.0914
13487TIP3    H161952   6.355   0.811  10.541 -0.2346 -2.1650  0.6024
13487TIP3    H261953   6.499   0.764  10.539  1.8126  3.7209 -0.2829
13488TIP3   OH261954   1.243   4.841   3.953  0.1284  0.3948  0.1093
13488TIP3    H161955   1.160   4.845   3.906  0.2476 -1.2127 -0.2643
13488TIP3    H261956   1.274   4.932   3.953 -2.0181  1.1610  1.0173
13489TIP3   OH261957   0.254   0.327   3.066 -0.4882 -0.5298 -0.0056
13489TIP3    H161958   0.338   0.282   3.073 -0.0928  0.4045  1.5562
13489TIP3    H261959   0.198   0.284   3.131 -0.6038  0.1556  0.3548
13490TIP3   OH261960   3.573   0.984  15.526 -0.2453  0.7457  0.7383
13490TIP3    H161961   3.613   1.053  15.580  1.6652 -0.1247  0.4607
13490TIP3    H261962   3.608   0.902  15.561  0.3699  0.1174 -1.2539
13491TIP3   OH261963   1.165   1.630   3.006  0.3828 -0.3502  0.6626
13491TIP3    H161964   1.231   1.603   3.069  1.4531 -0.0109 -0.2829
13491TIP3    H261965   1.151   1.723   3.024  2.9273  0.5229 -1.5056
13492TIP3   OH261966   5.880   3.824  13.024  0.0344 -0.4057  0.1150
13492TIP3    H161967   5.935   3.896  12.995  0.6360 -0.6344  0.6830
13492TIP3    H261968   5.791   3.860  13.025  0.2973  0.2381  0.1270
13493TIP3   OH261969   3.133   6.202   6.142  0.2041 -0.9363 -0.0584
13493TIP3    H161970   3.076   6.218   6.218 -0.2009 -0.5791 -0.4392
13493TIP3    H261971   3.206   6.152   6.178 -0.1207 -1.0036  0.5226
13494TIP3   OH261972   1.819   6.715   2.630 -0.5249  0.3831  0.1421
13494TIP3    H161973   1.819   6.631   2.675 -1.3868  0.5887  0.5283
13494TIP3    H261974   1.902   6.756   2.656  0.4736 -0.8405 -1.0075
13495TIP3   OH261975   1.796   4.877  14.126  0.1912 -0.4368 -0.2605
13495TIP3    H161976   1.769   4.785  14.133 -0.0323 -0.2790  1.1763
13495TIP3    H261977   1.844   4.893  14.207  0.2094  0.7299 -0.4966
13496TIP3   OH261978   0.296   2.476   6.097 -0.1750  0.2890  0.2585
13496TIP3    H161979   0.347   2.400   6.124  1.3040  1.4184  0.7848
13496TIP3    H261980   0.261   2.512   6.179 -1.3720 -0.1726 -0.0491
13497TIP3   OH261981   2.118   0.050   5.192  0.6550 -0.5358 -0.1694
13497TIP3    H161982   2.083   0.040   5.281  0.4595  0.2505 -0.1556
13497TIP3    H261983   2.213   0.057   5.205  0.4225  2.4996  0.2527
13498TIP3   OH261984   1.260   2.717  16.481 -0.2327 -0.1203 -0.0550
13498TIP3    H161985   1.232   2.627  16.469 -1.3577  0.3561 -1.1458
13498TIP3    H261986   1.267   2.752  16.393 -0.8023  1.1489  0.3899
13499TIP3   OH261987   2.492   1.189  14.142  0.3241  0.4283 -0.2922
13499TIP3    H161988   2.490   1.095  14.158 -2.2800  0.7353  1.5380
13499TIP3    H261989   2.545   1.225  14.214 -0.4056  0.5351  0.2010
13500TIP3   OH261990   2.670   2.798  13.117  0.0278 -0.1417 -0.1927
13500TIP3    H161991   2.658   2.749  13.199 -0.0486  0.9377  0.4446
13500TIP3    H261992   2.638   2.738  13.049 -1.4513 -0.4261  0.7181
13501TIP3   OH261993   3.582   6.724  16.496  0.2873  0.7459  1.1666
13501TIP3    H161994   3.516   6.656  16.493  1.9951 -0.9055 -1.0145
13501TIP3    H261995   3.532   6.806  16.501 -1.9349 -0.4491 -0.5253
13502TIP3   OH261996   4.270   5.671  14.817  0.5682  0.4538 -0.1440
13502TIP3    H161997   4.273   5.602  14.883 -0.1104  1.1592  0.6353
13502TIP3    H261998   4.362   5.697  14.805  0.8022 -0.4371 -0.2864
13503TIP3   OH261999   3.810   3.841  14.881  0.4377 -0.2739  0.0757
13503TIP3    H162000   3.788   3.752  14.852 -0.8502  0.1488 -0.2939
13503TIP3    H262001   3.875   3.871  14.818 -1.5945  0.2548 -1.8317
13504TIP3   OH262002   4.635   0.201  14.815 -0.6365  0.3518  0.1464
13504TIP3    H162003   4.701   0.200  14.746 -0.2348 -3.2774  0.4890
13504TIP3    H262004   4.675   0.253  14.886  0.4664  0.9542 -0.8978
13505TIP3   OH262005   3.751   2.777  11.549 -0.1957 -0.0585  0.2166
13505TIP3    H162006   3.742   2.811  11.638  1.8648 -1.8633  1.1649
13505TIP3    H262007   3.837   2.807  11.520 -1.2869  1.4250 -1.6163
13506TIP3   OH262008   2.175   2.600   2.661  0.2450  0.6941  0.5452
13506TIP3    H162009   2.202   2.691   2.659  1.1958  0.4503  1.4154
13506TIP3    H262010   2.104   2.597   2.725  0.6410  0.7197  0.9880
13507TIP3   OH262011   1.914   0.732  13.906  0.2045 -0.1249 -0.4281
13507TIP3    H162012   1.957   0.689  13.980  1.1662 -0.3202 -1.0987
13507TIP3    H262013   1.828   0.756  13.940  0.6943 -0.0736  0.8139
13508TIP3   OH262014   1.831   2.833   4.199  0.5444  0.0107 -0.1768
13508TIP3    H162015   1.855   2.789   4.118 -1.6734 -0.0692 -0.8110
13508TIP3    H262016   1.773   2.771   4.244 -0.9893  1.4361 -0.1498
13509TIP3   OH262017   4.623   1.482   5.547 -0.0735 -0.1613 -0.2747
13509TIP3    H162018   4.694   1.520   5.496  0.5620  0.6128  1.1590
13509TIP3    H262019   4.638   1.388   5.543  0.0263 -0.0980 -1.4269
13510TIP3   OH262020   2.689   5.468   2.620  0.0187  0.3347 -0.5110
13510TIP3    H162021   2.750   5.396   2.630  0.1577  0.2228 -1.9860
13510TIP3    H262022   2.607   5.436   2.657  0.5494  0.0791  0.4509
13511TIP3   OH262023   5.270   1.870   6.203 -0.3941 -0.0130 -0.8988
13511TIP3    H162024   5.288   1.923   6.125  1.5922  0.7921  0.0818
13511TIP3    H262025   5.356   1.852   6.240 -1.2888 -0.9059  0.7794
13512TIP3   OH262026   5.139   1.813   5.630 -0.4287  0.2103 -0.0407
13512TIP3    H162027   5.092   1.893   5.653 -0.3119  0.6108 -1.1201
13512TIP3    H262028   5.231   1.836   5.640 -0.4461 -0.4616  1.7241
13513TIP3   OH262029   2.527   4.737  13.806 -0.8031 -0.8823 -0.2997
13513TIP3    H162030   2.439   4.752  13.771 -1.4963  2.3476  2.5164
13513TIP3    H262031   2.516   4.667  13.870 -1.1402 -1.0616 -0.5508
13514TIP3   OH262032   0.035   5.493  15.278  0.0404 -0.4003 -0.7878
13514TIP3    H162033   0.105   5.454  15.330 -0.7151 -1.2184 -0.3684
13514TIP3    H262034   0.032   5.585  15.307  1.6671 -0.0630 -1.6190
13515TIP3   OH262035   0.576   5.103   5.873  0.1360  0.2511  0.1849
13515TIP3    H162036   0.576   5.049   5.794 -0.9862  2.0262 -1.0640
13515TIP3    H262037   0.534   5.048   5.939  0.5852 -1.0525 -0.5925
13516TIP3   OH262038   1.386   5.840  14.320 -0.1958  0.7413  0.2250
13516TIP3    H162039   1.448   5.811  14.387  0.2402  2.1998  0.4708
13516TIP3    H262040   1.328   5.765  14.307  1.3292 -0.4799  0.3245
13517TIP3   OH262041   5.503   1.907  16.341 -0.1933  0.2148 -0.0323
13517TIP3    H162042   5.555   1.849  16.397  0.5265 -1.1503 -2.0399
13517TIP3    H262043   5.415   1.869  16.343 -0.4583  0.8778  1.1192
13518TIP3   OH262044   4.954   1.629   1.300  0.4468  1.1505 -0.3302
13518TIP3    H162045   4.892   1.655   1.232 -0.2177 -2.8497 -1.3773
13518TIP3    H262046   5.033   1.604   1.251  0.1294 -1.2956  0.3701
13519TIP3   OH262047   5.720   0.306  12.130 -0.2599 -0.4678 -0.6675
13519TIP3    H162048   5.668   0.341  12.057  0.5367 -0.0839 -1.0608
13519TIP3    H262049   5.725   0.212  12.114 -2.2110 -0.7557  0.2612
13520TIP3   OH262050   5.623   5.771  16.764  0.5138  0.1442  0.8075
13520TIP3    H162051   5.541   5.745  16.721  1.3273  0.8954 -1.2742
13520TIP3    H262052   5.597   5.792  16.854 -1.3972 -0.6162  0.4673
13521TIP3   OH262053   2.326   2.517   0.040  0.1436 -0.2481  0.3003
13521TIP3    H162054   2.356   2.437  -0.004 -0.5176 -1.2749  1.6698
13521TIP3    H262055   2.383   2.525   0.116 -0.2795  0.1615  0.5755
13522TIP3   OH262056   0.027   6.799   3.455  0.4855 -0.4044  0.1682
13522TIP3    H162057   0.020   6.826   3.363  1.0885 -0.9957 -0.0512
13522TIP3    H262058   0.041   6.704   3.451 -1.9431 -0.8206  0.9504
13523TIP3   OH262059   1.982   4.486  14.559 -0.4101 -0.1506 -0.0130
13523TIP3    H162060   2.063   4.532  14.537  0.4107 -2.3315 -1.7029
13523TIP3    H262061   1.917   4.521  14.498  0.4124 -1.7979 -1.8655
13524TIP3   OH262062   0.833   3.157   1.145 -0.0068  0.3480 -0.0655
13524TIP3    H162063   0.784   3.197   1.217 -0.0407 -0.0711  0.1521
13524TIP3    H262064   0.765   3.127   1.084 -0.0053  0.1813  0.0130
13525TIP3   OH262065   1.315   0.490  11.386 -0.1851 -0.1490  0.4722
13525TIP3    H162066   1.292   0.532  11.304  2.5310 -0.6685 -0.6004
13525TIP3    H262067   1.233   0.451  11.418 -1.5105  1.1226 -1.3292
13526TIP3   OH262068   2.129   6.532   2.602  0.3730  0.0652 -0.1216
13526TIP3    H162069   2.204   6.531   2.544 -0.0275  0.7600 -0.6458
13526TIP3    H262070   2.118   6.440   2.628  1.4783 -0.0220  0.0763
13527TIP3   OH262071   2.844   5.469   1.768  0.2045 -0.1862  0.4347
13527TIP3    H162072   2.845   5.543   1.828  1.6057  2.5792 -2.8657
13527TIP3    H262073   2.755   5.433   1.778 -1.4200  3.5213  0.2471
13528TIP3   OH262074   2.202   3.318  15.385  0.7154 -0.3800 -0.4123
13528TIP3    H162075   2.214   3.349  15.475 -1.0093  0.2924 -0.3995
13528TIP3    H262076   2.179   3.225  15.395  0.7229 -0.3582 -0.1786
13529TIP3   OH262077   5.125   2.575   5.017  0.1657  0.0745  0.9652
13529TIP3    H162078   5.113   2.667   4.993 -1.3766  0.2168  2.1985
13529TIP3    H262079   5.172   2.578   5.100  0.3206 -0.2646  0.8897
13530TIP3   OH262080   3.443   0.597   6.651 -0.6210 -0.1682 -0.0267
13530TIP3    H162081   3.469   0.598   6.743 -2.3336 -2.1782  0.5468
13530TIP3    H262082   3.496   0.527   6.612 -0.3738  0.2288 -0.3978
13531TIP3   OH262083   5.350   3.243  15.666  0.0325  0.1384  0.4483
13531TIP3    H162084   5.431   3.193  15.657 -0.1312  0.3549 -2.8035
13531TIP3    H262085   5.316   3.219  15.753  3.3837 -0.1704  1.7420
13532TIP3   OH262086   6.441   3.028   1.574 -0.2035 -0.1536  0.1666
13532TIP3    H162087   6.479   3.007   1.659  0.8835 -0.7394 -0.4410
13532TIP3    H262088   6.396   2.948   1.548  2.0289 -1.0561 -1.1396
13533TIP3   OH262089   0.223   1.883   5.335  0.2148 -0.0373 -0.3142
13533TIP3    H162090   0.137   1.916   5.360 -0.8471 -0.7195 -2.9612
13533TIP3    H262091   0.221   1.878   5.240  2.4083 -2.1946 -0.3007
13534TIP3   OH262092   6.216   1.037  11.356 -0.3929  0.2023  0.5421
13534TIP3    H162093   6.207   0.942  11.345  1.2083 -0.1489  2.0812
13534TIP3    H262094   6.197   1.053  11.448  2.0414  1.0009  0.9373
13535TIP3   OH262095   1.866   2.500   3.469 -0.0421  0.3444  0.0517
13535TIP3    H162096   1.907   2.528   3.551  0.2736  1.4451 -0.4732
13535TIP3    H262097   1.897   2.411   3.456  0.7458  0.5357  0.5931
13536TIP3   OH262098   6.265   3.520  11.197 -0.4958 -0.4903 -0.4505
13536TIP3    H162099   6.192   3.470  11.161  0.6204 -0.1611 -3.2893
13536TIP3    H262100   6.300   3.569  11.123  1.1163  1.2127  1.3676
13537TIP3   OH262101   6.200   5.816   1.642  0.5800  0.4199 -0.0804
13537TIP3    H162102   6.277   5.869   1.620  2.4102 -1.6151  1.1863
13537TIP3    H262103   6.194   5.752   1.571  1.1826 -0.5753  0.7534
13538TIP3   OH262104   2.626   1.835  15.370 -0.2624  0.0300  0.4581
13538TIP3    H162105   2.639   1.922  15.409  1.2563  0.2120 -0.3869
13538TIP3    H262106   2.568   1.850  15.296  1.1565  0.6040 -0.5722
13539TIP3   OH262107   1.381   5.814  11.608  0.3143  0.1360 -0.1978
13539TIP3    H162108   1.359   5.822  11.515 -0.5959 -1.7321 -0.1756
13539TIP3    H262109   1.475   5.827  11.612  0.0812  2.2126 -1.1202
13540TIP3   OH262110   2.678   4.139  12.258  0.6919  0.6000  0.2838
13540TIP3    H162111   2.737   4.206  12.223  0.9812  0.1032 -0.1888
13540TIP3    H262112   2.643   4.177  12.339  0.5872  1.4585 -0.1648
13541TIP3   OH262113   3.547   0.984   3.484  0.7142  0.5679 -0.4353
13541TIP3    H162114   3.539   0.915   3.418  2.6832 -0.4342  0.3428
13541TIP3    H262115   3.544   1.065   3.434 -0.9460 -0.0836 -1.4311
13542TIP3   OH262116   2.533   1.676  11.454 -0.3885  0.0258  0.0315
13542TIP3    H162117   2.455   1.710  11.409 -1.6066  0.7873  2.5965
13542TIP3    H262118   2.501   1.602  11.505  1.0642 -1.1105 -0.6613
13543TIP3   OH262119   4.129   3.033   2.573  0.3382  0.0113  0.5289
13543TIP3    H162120   4.042   3.038   2.534  0.9947  1.4499 -0.7830
13543TIP3    H262121   4.188   3.018   2.499  1.4331  1.2672  1.1254
13544TIP3   OH262122   4.533   0.529   5.307  0.2705  0.3147  0.2734
13544TIP3    H162123   4.608   0.580   5.336 -0.5220  1.9193 -0.3970
13544TIP3    H262124   4.463   0.554   5.367 -0.1190  0.0262 -0.0634
13545TIP3   OH262125   0.316   4.932   0.904  0.7000  0.2734  0.0900
13545TIP3    H162126   0.388   4.893   0.954 -0.0921 -1.0489  0.2404
13545TIP3    H262127   0.248   4.949   0.969  0.0668 -0.4817 -0.3590
13546TIP3   OH262128   1.564   5.723   1.083 -0.1808 -0.0799  0.2068
13546TIP3    H162129   1.575   5.702   1.176 -0.9712  0.2400  0.3718
13546TIP3    H262130   1.601   5.811   1.074 -1.2097  0.3859  0.4651
13547TIP3   OH262131   5.637   6.564   4.122  0.2647  0.4821 -0.0859
13547TIP3    H162132   5.602   6.552   4.210  2.6741 -0.9006  0.7528
13547TIP3    H262133   5.560   6.566   4.065 -1.2272 -0.6196  1.8310
13548TIP3   OH262134   4.072   1.999  12.179 -1.1416  0.7411  0.0996
13548TIP3    H162135   4.028   1.916  12.159 -1.7767  1.3318 -0.9976
13548TIP3    H262136   4.013   2.044  12.240 -1.4215  0.9514 -0.3258
13549TIP3   OH262137   4.426   2.674  15.601  0.1947 -0.6557 -0.2940
13549TIP3    H162138   4.384   2.645  15.681 -0.1492 -0.5567 -0.4364
13549TIP3    H262139   4.356   2.717  15.551  1.2139  2.6645  0.9908
13550TIP3   OH262140   4.918   5.946   6.149 -0.1084  0.4975 -0.1376
13550TIP3    H162141   4.847   6.003   6.120 -0.9503 -0.4178  0.1002
13550TIP3    H262142   4.997   5.986   6.113 -0.5026  2.7064  1.3329
13551TIP3   OH262143   4.077   4.034   0.533  0.3101  0.5963  0.6087
13551TIP3    H162144   3.998   3.988   0.564 -1.1096  1.8264 -1.0981
13551TIP3    H262145   4.084   4.010   0.441  4.0463 -2.3913  1.5254
13552TIP3   OH262146   2.895   1.536  17.073 -0.4034 -0.3608  0.3099
13552TIP3    H162147   2.847   1.615  17.049 -0.9458 -0.1936  1.9164
13552TIP3    H262148   2.985   1.565  17.087 -0.7651  0.1227  1.6792
13553TIP3   OH262149   5.233   3.784  16.274 -0.2823 -0.3247  0.4031
13553TIP3    H162150   5.208   3.876  16.281  1.5277  0.2667 -0.4544
13553TIP3    H262151   5.293   3.781  16.200  0.8134 -1.9427  1.3104
13554TIP3   OH262152   5.713   3.705   0.056 -0.2424 -0.4660 -0.1635
13554TIP3    H162153   5.797   3.745   0.033  0.7289 -2.2966  0.0290
13554TIP3    H262154   5.727   3.670   0.144 -0.9718 -1.3593 -0.3867
13555TIP3   OH262155   5.352   3.177  12.363 -0.2800  0.0804  0.0333
13555TIP3    H162156   5.330   3.259  12.408  0.6039  0.1054  0.4362
13555TIP3    H262157   5.310   3.109  12.416 -0.9353  0.2668 -0.2474
13556TIP3   OH262158   3.386   5.723  16.704  0.0112  0.6391  0.5417
13556TIP3    H162159   3.302   5.765  16.689 -0.9629 -0.7839  1.8669
13556TIP3    H262160   3.424   5.769  16.779  0.0057  0.7030  0.5068
13557TIP3   OH262161   2.842   1.451  10.251  0.1255 -0.3916 -0.1345
13557TIP3    H162162   2.771   1.399  10.213  0.2805 -0.1071 -0.8274
13557TIP3    H262163   2.850   1.419  10.341 -1.9092  0.6147  0.4395
13558TIP3   OH262164   6.621   2.204   1.403  0.1904  1.3505 -0.5594
13558TIP3    H162165   6.601   2.137   1.469  0.9438  1.6881  0.0204
13558TIP3    H262166   6.684   2.162   1.344  1.7833  1.9954  0.6315
13559TIP3   OH262167   4.012   3.758  14.112  0.2869  0.2699  0.1526
13559TIP3    H162168   4.078   3.814  14.071  0.5078  1.1061  1.5696
13559TIP3    H262169   4.034   3.669  14.086  0.7609  0.7364 -1.0240
13560TIP3   OH262170   4.907   3.234  11.166  0.1493  0.1398 -0.3185
13560TIP3    H162171   4.841   3.215  11.233  1.9445  1.3647  1.8909
13560TIP3    H262172   4.862   3.222  11.083 -3.1100  1.8167  1.1325
13561TIP3   OH262173   1.428   0.511   1.971 -0.0098 -0.8245  0.1345
13561TIP3    H162174   1.468   0.575   1.911  0.1614 -1.7052 -0.6960
13561TIP3    H262175   1.503   0.467   2.012 -0.1265 -1.4709 -0.3450
13562TIP3   OH262176   3.230   4.132   0.964  0.2224  0.4939  0.6496
13562TIP3    H162177   3.286   4.209   0.973 -0.4069  0.8591  1.4620
13562TIP3    H262178   3.253   4.096   0.878  2.1517  0.2764  1.2298
13563TIP3   OH262179   2.237   3.581   0.862  0.3472  0.0500 -0.6959
13563TIP3    H162180   2.191   3.663   0.884  0.2690 -0.4497  1.0335
13563TIP3    H262181   2.185   3.513   0.904  1.0950 -0.7908 -1.1396
13564TIP3   OH262182   2.799   5.472  12.070 -0.0702  0.4132 -1.1397
13564TIP3    H162183   2.802   5.376  12.071 -2.0055  0.3401  0.1823
13564TIP3    H262184   2.859   5.498  12.140  0.9707  0.2094 -1.9369
13565TIP3   OH262185   5.054   4.034   4.651 -1.0686 -0.6031 -0.1202
13565TIP3    H162186   4.996   4.089   4.704 -1.9176  0.7635 -2.3847
13565TIP3    H262187   5.044   4.068   4.562  4.2285  0.5834 -0.4354
13566TIP3   OH262188   4.725   2.753   2.134  0.3042  0.4131 -0.0089
13566TIP3    H162189   4.777   2.817   2.087  0.2233  1.5687  1.4305
13566TIP3    H262190   4.653   2.804   2.172 -2.0143 -1.1629 -2.0896
13567TIP3   OH262191   5.594   0.534  15.936  0.4977  0.3731 -0.2638
13567TIP3    H162192   5.639   0.482  15.870 -0.1719  1.1945 -1.3958
13567TIP3    H262193   5.501   0.512  15.924  0.3252  0.9223  0.0365
13568TIP3   OH262194   2.146   3.232   3.410  0.6316  0.5096  0.5304
13568TIP3    H162195   2.146   3.185   3.494  2.7534  1.8457  1.3143
13568TIP3    H262196   2.088   3.306   3.425 -0.6422 -0.3866  0.1272
13569TIP3   OH262197   2.544   6.716   5.344  0.6908 -0.3969 -0.3591
13569TIP3    H162198   2.553   6.622   5.363 -0.9888 -0.3683  0.6311
13569TIP3    H262199   2.604   6.758   5.405  1.9708 -0.8596 -1.2779
13570TIP3   OH262200   3.081   1.174   2.415  0.4693 -0.0219 -0.3095
13570TIP3    H162201   3.054   1.252   2.462  1.5144  0.8882 -1.1936
13570TIP3    H262202   3.026   1.174   2.336  1.4916  0.6386 -1.0339
13571TIP3   OH262203   3.340   0.924  11.333  0.4560 -0.0781 -0.3110
13571TIP3    H162204   3.358   0.965  11.248 -1.2523 -0.6979 -1.0008
13571TIP3    H262205   3.245   0.916  11.335  0.5922 -1.4928  1.0093
13572TIP3   OH262206   5.356   3.012   1.505 -0.1018  0.3588 -0.1600
13572TIP3    H162207   5.439   2.997   1.549  0.6260  1.2018 -1.2087
13572TIP3    H262208   5.372   2.987   1.414 -1.0117  0.4938 -0.3671
13573TIP3   OH262209   4.530   4.061   3.613  0.0467  0.2461  0.1992
13573TIP3    H162210   4.463   4.086   3.676 -0.7140  0.6510 -0.7519
13573TIP3    H262211   4.610   4.102   3.646 -0.9708  3.1126 -0.7496
13574TIP3   OH262212   2.601   2.737   2.758 -0.0842  1.2710 -0.2516
13574TIP3    H162213   2.631   2.754   2.668 -1.2646  0.7145 -0.7569
13574TIP3    H262214   2.620   2.645   2.772 -0.0812  1.3123  0.0174
13575TIP3   OH262215   5.582   6.305   0.282 -0.0345  0.2175 -0.0807
13575TIP3    H162216   5.604   6.343   0.196 -0.6902 -0.7328 -0.6817
13575TIP3    H262217   5.618   6.367   0.345  0.0835  1.1538 -1.0440
13576TIP3   OH262218   0.776   3.894  16.538 -0.1033  0.5050 -0.1413
13576TIP3    H162219   0.777   3.967  16.476  0.0290 -0.3544 -1.1541
13576TIP3    H262220   0.847   3.838  16.510  0.0925  0.2117  0.9280
13577TIP3   OH262221   1.805   5.137   3.011 -0.0074  0.1207 -0.0211
13577TIP3    H162222   1.787   5.221   2.969 -2.6319 -0.3404  0.0612
13577TIP3    H262223   1.867   5.157   3.081 -0.8520  2.0716  0.1916
13578TIP3   OH262224   3.478   1.424   3.915  0.3320 -0.0689 -0.2628
13578TIP3    H162225   3.498   1.515   3.939  0.4426 -0.4920  1.3199
13578TIP3    H262226   3.387   1.412   3.940  0.2240 -0.3113 -0.7655
13579TIP3   OH262227   5.384   4.683   2.179  0.0118 -0.8903  0.7486
13579TIP3    H162228   5.408   4.767   2.218 -0.7944 -0.2374 -0.1265
13579TIP3    H262229   5.289   4.678   2.190 -0.3394 -0.3729 -1.6897
13580TIP3   OH262230   6.656   3.937  16.411  0.4094  0.5014  0.0974
13580TIP3    H162231   6.583   3.895  16.456  1.0820 -0.6133  0.1614
13580TIP3    H262232   6.697   3.992  16.478  1.0900 -0.7468  0.7095
13581TIP3   OH262233   6.389   4.711   3.586 -0.7948  0.8209 -0.1433
13581TIP3    H162234   6.294   4.708   3.602 -1.0308 -2.7023 -1.8230
13581TIP3    H262235   6.397   4.744   3.496 -0.4815 -0.0784 -0.4458
13582TIP3   OH262236   6.109   4.969  11.650 -0.5676 -0.2679 -0.0069
13582TIP3    H162237   6.054   4.893  11.632 -1.5130  0.6015 -0.8082
13582TIP3    H262238   6.048   5.039  11.669  0.2834  0.5659 -0.3157
13583TIP3   OH262239   1.288   1.176   0.501 -0.5504 -0.5755  0.5789
13583TIP3    H162240   1.334   1.191   0.584 -0.6222  0.1939  0.4817
13583TIP3    H262241   1.247   1.090   0.512  0.9474 -1.3040  0.6499
13584TIP3   OH262242   2.473   3.852   4.644 -0.3839  0.4954  0.1519
13584TIP3    H162243   2.472   3.803   4.726  1.5726  1.3847  0.7394
13584TIP3    H262244   2.548   3.911   4.652  1.3264 -1.0067 -3.2006
13585TIP3   OH262245   2.724   6.219   3.933  0.4302 -0.1088  0.2269
13585TIP3    H162246   2.729   6.314   3.935 -2.5152  0.0911  0.3917
13585TIP3    H262247   2.695   6.198   3.844 -0.7719 -0.7180  0.7514
13586TIP3   OH262248   6.251   0.742   6.590 -0.3821  0.2123 -0.0753
13586TIP3    H162249   6.257   0.827   6.632 -2.0037 -0.7222  2.1433
13586TIP3    H262250   6.166   0.742   6.547 -0.0127  0.0294 -0.8163
13587TIP3   OH262251   4.620   3.701  16.949 -0.0087  0.1167  0.5463
13587TIP3    H162252   4.630   3.714  16.855 -1.5308 -0.2710  0.3340
13587TIP3    H262253   4.611   3.606  16.959  1.4083  0.0362  1.2111
13588TIP3   OH262254   2.450   2.320  12.798  0.2648  0.1418  0.0008
13588TIP3    H162255   2.442   2.376  12.875 -1.9261  0.3535 -0.3477
13588TIP3    H262256   2.543   2.325  12.774  0.8881  0.3868  2.3590
13589TIP3   OH262257   2.367   4.917  16.990  0.7813 -0.0906 -0.5388
13589TIP3    H162258   2.301   4.978  16.958  0.6254  0.0135 -0.0190
13589TIP3    H262259   2.360   4.922  17.086  0.2517 -1.4827 -0.4956
13590TIP3   OH262260   6.718   4.981  15.989  0.0456 -0.2560  0.0291
13590TIP3    H162261   6.712   5.045  15.918 -1.5322 -0.5718 -0.1295
13590TIP3    H262262   6.674   4.903  15.955  1.2296 -1.1645  0.5342
13591TIP3   OH262263   6.696   0.776   1.269  0.1766 -0.4490 -0.2415
13591TIP3    H162264   6.769   0.768   1.331 -1.6684  1.5843  2.2749
13591TIP3    H262265   6.650   0.692   1.275  2.1204 -1.6567 -1.6745
13592TIP3   OH262266   3.609   0.417   1.479 -0.2779  0.4511  0.0272
13592TIP3    H162267   3.521   0.422   1.517  0.1513  0.9361  0.9953
13592TIP3    H262268   3.598   0.447   1.389 -1.3396 -0.8205 -0.2825
13593TIP3   OH262269   1.597   0.165  12.298 -0.4933  0.2319 -0.3436
13593TIP3    H162270   1.686   0.145  12.268 -0.6721  0.2065 -0.8748
13593TIP3    H262271   1.603   0.169  12.393  0.0475  0.0868 -0.3733
13594TIP3   OH262272   6.700   3.827  14.486 -0.1628 -0.3757 -0.0439
13594TIP3    H162273   6.745   3.782  14.415 -1.3811  0.0249 -1.0751
13594TIP3    H262274   6.617   3.780  14.496 -0.0576 -0.3529  1.0374
13595TIP3   OH262275   2.091   2.067  13.149 -0.0037 -0.2087  0.0055
13595TIP3    H162276   2.052   2.025  13.225 -0.1046 -0.5383 -0.2276
13595TIP3    H262277   2.037   2.038  13.075  0.6711 -0.6537 -0.3153
13596TIP3   OH262278   2.676   0.504   4.324 -0.2489 -0.2847  0.5640
13596TIP3    H162279   2.772   0.502   4.326 -0.1990 -0.5373 -1.3631
13596TIP3    H262280   2.654   0.597   4.327  0.1130 -0.1544 -0.7457
13597TIP3   OH262281   1.432   5.069  16.956 -0.2011 -0.1430  0.5013
13597TIP3    H162282   1.369   5.131  16.994  1.7218  1.5721  0.9970
13597TIP3    H262283   1.435   4.996  17.018 -1.4102 -0.0641  0.6591
13598TIP3   OH262284   2.120   4.098  12.988  0.6735  0.0822  0.2534
13598TIP3    H162285   2.129   4.020  13.043 -1.1968 -0.2685  0.0988
13598TIP3    H262286   2.158   4.073  12.904  0.1382 -0.6672  0.2242
13599TIP3   OH262287   1.622   3.977  13.595  0.2086  0.0851  0.2256
13599TIP3    H162288   1.594   4.044  13.657 -1.5864 -0.6295  0.2156
13599TIP3    H262289   1.645   3.902  13.650  0.6801  0.1672  0.1418
13600TIP3   OH262290   0.352   6.257   4.718 -0.2070  0.7992 -0.0928
13600TIP3    H162291   0.438   6.241   4.678  0.1461 -0.8691  1.2938
13600TIP3    H262292   0.369   6.256   4.812 -1.8893 -0.3365  0.2175
13601TIP3   OH262293   2.200   4.177   1.005  0.3656 -0.6366 -0.5507
13601TIP3    H162294   2.127   4.121   1.032 -0.0784 -0.2964 -1.0313
13601TIP3    H262295   2.249   4.192   1.085  0.3441 -1.5072 -0.3681
13602TIP3   OH262296   1.702   6.230  17.033 -0.7279  0.1254  0.3873
13602TIP3    H162297   1.774   6.200  17.088 -0.5541  0.0595  0.1232
13602TIP3    H262298   1.644   6.154  17.025 -1.4749  0.5450  1.6475
13603TIP3   OH262299   0.907   4.979  14.275 -0.7773  0.6782  0.5390
13603TIP3    H162300   0.952   4.969  14.359 -0.8541  2.8937  0.8902
13603TIP3    H262301   0.817   4.953  14.293 -0.4503 -0.2879  0.7653
13604TIP3   OH262302   5.645   0.623   0.654 -0.2463  0.1542 -0.1809
13604TIP3    H162303   5.630   0.662   0.567  0.1624  0.6152 -0.0505
13604TIP3    H262304   5.559   0.621   0.694 -0.4843 -0.3263 -0.7084
13605TIP3   OH262305   5.084   0.913  13.387 -0.3730 -0.1239 -0.0416
13605TIP3    H162306   5.008   0.857  13.371 -1.5192  1.7571 -1.3788
13605TIP3    H262307   5.097   0.959  13.304  0.1907  2.0012  1.1933
13606TIP3   OH262308   0.395   5.841   4.073  0.6232 -0.4153  0.0431
13606TIP3    H162309   0.377   5.932   4.048  0.9299 -0.0033  1.3215
13606TIP3    H262310   0.354   5.789   4.004  1.2772  0.7102 -1.2106
13607TIP3   OH262311   2.987   1.520   2.961  0.2675 -0.1569 -0.0110
13607TIP3    H162312   3.069   1.496   2.918  0.8826  1.6423  0.1474
13607TIP3    H262313   3.011   1.537   3.052 -0.3937 -0.1815  0.1773
13608TIP3   OH262314   6.735   2.941  15.581 -0.1022  0.0093  0.1184
13608TIP3    H162315   6.728   2.872  15.514 -0.4341  0.2905 -0.1405
13608TIP3    H262316   6.671   2.916  15.648  0.2251 -0.2692  0.3307
13609TIP3   OH262317   4.939   1.831  16.649 -0.4135 -0.0779 -0.4223
13609TIP3    H162318   4.932   1.768  16.720  0.4443  0.3138  0.0213
13609TIP3    H262319   4.975   1.782  16.576  3.9259  0.7128  1.0642
13610TIP3   OH262320   4.901   0.422  11.510  0.1908 -0.5193 -0.0768
13610TIP3    H162321   4.870   0.504  11.549 -2.0468 -1.0408 -0.7165
13610TIP3    H262322   4.842   0.355  11.544  1.5372 -1.7601 -0.1581
13611TIP3   OH262323   0.611   6.502   5.464 -0.3433 -0.1567 -0.0867
13611TIP3    H162324   0.570   6.522   5.380  1.2075 -0.1712 -0.8686
13611TIP3    H262325   0.655   6.418   5.451  0.4877  0.1706  0.5207
13612TIP3   OH262326   3.611   0.360   5.072 -0.3292  0.7808 -0.2647
13612TIP3    H162327   3.667   0.327   5.143  0.6784 -1.2983 -1.9703
13612TIP3    H262328   3.527   0.378   5.114 -0.2100 -1.8145  1.2162
13613TIP3   OH262329   0.670   5.353  12.385  0.4054 -0.6870 -0.2268
13613TIP3    H162330   0.681   5.271  12.336  0.8674  0.5273 -2.2138
13613TIP3    H262331   0.576   5.370  12.382  0.3011 -1.1572  0.2381
13614TIP3   OH262332   4.194   5.839  14.121 -0.0527 -0.0418 -0.3654
13614TIP3    H162333   4.123   5.892  14.084  0.9679  1.3629 -0.3704
13614TIP3    H262334   4.273   5.892  14.107  0.7527 -0.7699  1.2484
13615TIP3   OH262335   5.123   2.201   5.122 -0.7137  0.4225 -0.6893
13615TIP3    H162336   5.056   2.244   5.068 -0.7637  1.4159  0.1381
13615TIP3    H262337   5.195   2.184   5.062 -1.9040 -1.1410 -1.7212
13616TIP3   OH262338   2.884   2.456  14.134  0.2008  0.4009 -0.6758
13616TIP3    H162339   2.952   2.523  14.142  0.0724  0.3883  0.6481
13616TIP3    H262340   2.898   2.398  14.209 -1.2831  0.4218 -0.3609
13617TIP3   OH262341   1.315   1.874   3.523 -0.5772 -0.5262  0.0329
13617TIP3    H162342   1.256   1.877   3.599  0.1985 -0.8741  0.6542
13617TIP3    H262343   1.382   1.939   3.542 -0.1578 -0.8950 -0.1664
13618TIP3   OH262344   4.400   0.778   1.813  0.1951  0.3948  0.8482
13618TIP3    H162345   4.335   0.816   1.873 -1.2301  1.0304 -1.0543
13618TIP3    H262346   4.389   0.684   1.823 -1.0124  0.4964  0.5668
13619TIP3   OH262347   0.248   0.222   2.770  0.3591 -0.1752 -0.3929
13619TIP3    H162348   0.241   0.317   2.783 -0.1889 -0.5424  2.3943
13619TIP3    H262349   0.319   0.196   2.828  0.8844 -1.4066 -1.5826
13620TIP3   OH262350   3.427   1.160   2.961  0.7704  0.1574 -0.4417
13620TIP3    H162351   3.468   1.123   2.883  0.6664  0.4953 -0.6566
13620TIP3    H262352   3.363   1.093   2.988  1.8661 -0.6345  0.2447
13621TIP3   OH262353   1.318   4.802  14.926 -0.5391  0.0096  0.0822
13621TIP3    H162354   1.311   4.757  14.842  2.0289 -1.9146  0.8089
13621TIP3    H262355   1.275   4.743  14.988 -1.7861  1.0808  0.2594
13622TIP3   OH262356   5.491   0.191  16.693 -0.5010  0.1604  0.2018
13622TIP3    H162357   5.576   0.233  16.676 -0.2152 -1.1311 -1.7338
13622TIP3    H262358   5.510   0.126  16.760 -0.0327  0.1588  0.0673
13623TIP3   OH262359   3.376   3.895   2.220 -0.6195  0.4228  1.3877
13623TIP3    H162360   3.297   3.946   2.201 -0.0570  0.4514 -1.0571
13623TIP3    H262361   3.448   3.956   2.202  0.0025 -0.3946  1.0969
13624TIP3   OH262362   6.121   0.095  17.239 -0.1506  0.0161 -0.1730
13624TIP3    H162363   6.086   0.104  17.328 -1.7600  0.0603 -0.7930
13624TIP3    H262364   6.056   0.140  17.184  1.5614  1.2588 -1.2168
13625TIP3   OH262365   6.560   0.922  16.948 -0.5357 -0.3593 -0.0229
13625TIP3    H162366   6.596   0.992  17.002 -2.3625  0.6525 -0.0692
13625TIP3    H262367   6.591   0.942  16.859 -0.8294  0.2442  0.0077
13626TIP3   OH262368   2.117   6.200   5.934  0.2858 -0.7673  0.6224
13626TIP3    H162369   2.061   6.273   5.907  0.2433  0.0602  2.8801
13626TIP3    H262370   2.206   6.230   5.916  0.3364  0.3155  2.6120
13627TIP3   OH262371   2.051   4.886  16.728  0.1438 -0.3390 -0.1237
13627TIP3    H162372   2.021   4.958  16.673  0.5283  0.2248  0.3953
13627TIP3    H262373   2.143   4.907  16.748 -0.0442 -0.4441  0.8738
13628TIP3   OH262374   2.752   4.399  11.423  0.2405  0.4893 -0.8395
13628TIP3    H162375   2.779   4.333  11.360  0.5404 -0.2910  0.0993
13628TIP3    H262376   2.661   4.376  11.445  0.3307  0.4208 -0.5418
13629TIP3   OH262377   4.044   5.236  11.892 -0.3715 -0.6338 -0.7019
13629TIP3    H162378   4.005   5.304  11.837  1.6866  0.5050 -0.8402
13629TIP3    H262379   3.979   5.167  11.895 -1.6347  0.4352 -2.3583
13630TIP3   OH262380   6.674   4.448  15.675  0.3730  0.2346  0.0253
13630TIP3    H162381   6.761   4.479  15.652 -0.8037  1.8384 -2.4217
13630TIP3    H262382   6.637   4.517  15.730  0.5756 -0.3959  0.9753
13631TIP3   OH262383   3.746   6.037   1.847  0.2849 -0.0387  0.5732
13631TIP3    H162384   3.683   5.965   1.853 -0.9694  1.1780  2.4206
13631TIP3    H262385   3.794   6.020   1.766 -0.0717 -2.8775  0.9157
13632TIP3   OH262386   1.299   1.929   4.304 -0.0196 -0.0095 -0.5278
13632TIP3    H162387   1.324   1.944   4.213 -1.4875  1.3787 -0.7385
13632TIP3    H262388   1.227   1.866   4.299 -1.6002  1.7554 -0.5254
13633TIP3   OH262389   3.809   6.387  13.726  0.7180  0.1846 -0.0312
13633TIP3    H162390   3.795   6.421  13.637  1.3631  1.8444  0.4789
13633TIP3    H262391   3.734   6.329  13.742 -0.1751  1.0229 -1.1006
13634TIP3   OH262392   1.727   1.535  16.539  0.1436 -0.1107 -0.1872
13634TIP3    H162393   1.687   1.492  16.615 -1.8010  0.7058 -0.6957
13634TIP3    H262394   1.733   1.466  16.473 -0.3696 -0.2699 -0.0695
13635TIP3   OH262395   3.856   3.470   3.016  0.2316  0.1067  0.1477
13635TIP3    H162396   3.949   3.455   3.033 -0.0900  0.6542  2.6225
13635TIP3    H262397   3.816   3.384   3.021  0.1600  0.2451  2.2334
13636TIP3   OH262398   5.753   0.921   1.609 -0.2827 -0.1996  0.1711
13636TIP3    H162399   5.696   0.987   1.648  0.0731  2.0597 -2.9042
13636TIP3    H262400   5.839   0.939   1.646 -0.8931 -1.5690  2.3735
13637TIP3   OH262401   1.167   1.983   0.620 -0.1506 -0.0172  0.4184
13637TIP3    H162402   1.155   1.973   0.714 -1.7988  0.4292  0.2590
13637TIP3    H262403   1.079   1.990   0.584  0.5164  1.7178 -0.9572
13638TIP3   OH262404   3.402   5.228  12.941 -0.0042  0.4831  0.4359
13638TIP3    H162405   3.361   5.270  12.866  0.3059 -1.4101 -0.8278
13638TIP3    H262406   3.431   5.301  12.997 -0.4501  1.8998 -1.1465
13639TIP3   OH262407   6.092   4.038   3.811 -0.2327  0.0842 -0.0214
13639TIP3    H162408   6.074   3.997   3.896  2.6524 -1.1478  0.0588
13639TIP3    H262409   6.036   3.992   3.749  0.1061 -1.3234  0.7058
13640TIP3   OH262410   6.286   0.595   6.065 -0.2980  0.0521 -0.4964
13640TIP3    H162411   6.322   0.525   6.119  0.3018  1.0631  0.4418
13640TIP3    H262412   6.238   0.651   6.126 -0.0589  0.9192 -1.0823
13641TIP3   OH262413   1.195   1.636  16.580 -0.4621  0.1406  0.8319
13641TIP3    H162414   1.129   1.695  16.616 -1.0555 -1.0997  1.8527
13641TIP3    H262415   1.148   1.584  16.515 -0.6686 -1.1528  1.9837
13642TIP3   OH262416   0.556   0.668   0.090 -0.4338  0.5191 -0.0131
13642TIP3    H162417   0.649   0.649   0.078  0.0425  3.3394 -1.1759
13642TIP3    H262418   0.549   0.698   0.180 -0.5167 -1.2238  0.5789
13643TIP3   OH262419   1.651   1.885  13.181  0.2316 -0.0936 -0.4488
13643TIP3    H162420   1.591   1.960  13.180  1.9998  1.3883  0.4022
13643TIP3    H262421   1.649   1.854  13.271  1.0388  0.2329 -0.3123
13644TIP3   OH262422   1.560   6.439   3.631 -0.1183 -0.1614  0.2848
13644TIP3    H162423   1.651   6.415   3.649 -0.0231  1.2233  1.8807
13644TIP3    H262424   1.565   6.516   3.575 -0.2780  0.1184  0.6441
13645TIP3   OH262425   4.962   5.198   1.189  0.2945  0.4508 -0.2823
13645TIP3    H162426   4.890   5.136   1.174  0.6658  0.0456 -0.4342
13645TIP3    H262427   4.933   5.279   1.148  0.7769 -0.2988 -2.1645
13646TIP3   OH262428   0.381   4.883  12.805  0.2041 -0.5559  0.4852
13646TIP3    H162429   0.405   4.805  12.856  1.5029 -0.2797  0.3199
13646TIP3    H262430   0.465   4.924  12.784 -0.4630  0.7439  0.3417
13647TIP3   OH262431   1.235   6.327  13.391  0.8093 -0.5346 -0.5020
13647TIP3    H162432   1.326   6.327  13.359  1.4146  0.6113  1.1715
13647TIP3    H262433   1.243   6.341  13.485 -1.1394  0.0242 -0.4139
13648TIP3   OH262434   4.353   1.425   2.894 -0.3681  0.2042  0.1927
13648TIP3    H162435   4.376   1.353   2.836  2.0337  0.0145  1.3160
13648TIP3    H262436   4.342   1.384   2.980  0.3727  1.0675  0.7073
13649TIP3   OH262437   3.076   3.495  13.355  0.3789 -0.0719 -0.1962
13649TIP3    H162438   3.060   3.556  13.427 -1.2594  0.8249 -1.2891
13649TIP3    H262439   3.170   3.502  13.338  0.2166  2.2270 -0.3417
13650TIP3   OH262440   4.455   0.839  13.857  0.3823  0.4285 -0.2873
13650TIP3    H162441   4.475   0.857  13.949  0.1453  1.4758 -0.4348
13650TIP3    H262442   4.479   0.747  13.844 -1.9592 -0.4814  1.4864
13651TIP3   OH262443   2.178   4.532  15.360  0.0075 -0.5529 -1.0425
13651TIP3    H162444   2.083   4.525  15.365  0.0484 -2.1308 -2.0801
13651TIP3    H262445   2.210   4.448  15.395  1.0063 -0.0106 -0.6428
13652TIP3   OH262446   2.925   4.594  16.077 -0.2626  0.3747  0.3701
13652TIP3    H162447   2.983   4.565  16.007 -0.3952 -1.9835  1.1759
13652TIP3    H262448   2.980   4.597  16.155 -1.1418 -1.8973  1.1480
13653TIP3   OH262449   2.720   6.401   4.323  0.1391  0.0650  0.2970
13653TIP3    H162450   2.768   6.466   4.374  0.8874  0.0563 -0.3820
13653TIP3    H262451   2.775   6.323   4.325  0.1536  0.0471 -0.4710
13654TIP3   OH262452   6.771   3.386   4.257 -0.1881  0.1927  0.1094
13654TIP3    H162453   6.802   3.476   4.244  1.6560 -0.2427  1.1915
13654TIP3    H262454   6.694   3.395   4.312 -0.3157  1.1536 -0.2157
13655TIP3   OH262455   0.998   1.359  17.173 -0.1567  0.0188  0.4392
13655TIP3    H162456   0.943   1.404  17.237  0.4697  0.9604  0.3283
13655TIP3    H262457   1.072   1.326  17.224 -0.5669 -0.8117  0.5060
13656TIP3   OH262458   2.899   1.632   5.619  0.0307  0.4710 -0.5484
13656TIP3    H162459   2.971   1.677   5.664 -0.2590 -0.4713  0.8830
13656TIP3    H262460   2.820   1.662   5.664 -0.2250 -0.8639 -0.0918
13657TIP3   OH262461   5.786   3.294   5.196  0.2931 -0.3754  0.5127
13657TIP3    H162462   5.715   3.356   5.179  0.5936 -0.2754 -0.4201
13657TIP3    H262463   5.814   3.313   5.286  2.0640  2.5576 -0.5968
13658TIP3   OH262464   0.430   0.080   1.614 -0.0519 -0.2640 -0.1934
13658TIP3    H162465   0.373   0.099   1.689  0.9895 -1.8575  1.0401
13658TIP3    H262466   0.497   0.148   1.618 -0.4897  0.1787 -0.2198
13659TIP3   OH262467   3.371   3.695  11.369  0.3020 -0.0533  0.3116
13659TIP3    H162468   3.415   3.630  11.423 -0.5667 -0.4021  0.5964
13659TIP3    H262469   3.418   3.691  11.285  0.5695 -0.6969  0.4843
13660TIP3   OH262470   3.186   3.966  14.516  0.2015 -0.1399  0.2451
13660TIP3    H162471   3.151   3.899  14.457  0.9614 -1.5890  1.4205
13660TIP3    H262472   3.133   3.959  14.595 -0.0206  0.9815  0.2131
13661TIP3   OH262473   3.821   6.598  13.900  0.7248 -0.6021  0.4521
13661TIP3    H162474   3.813   6.508  13.869 -1.0930 -0.4782  0.5266
13661TIP3    H262475   3.783   6.652  13.831  0.7063  0.0263  0.9420
13662TIP3   OH262476   0.472   6.136   5.632  0.4628 -0.6661 -0.0538
13662TIP3    H162477   0.549   6.182   5.600  1.2771 -1.4282  0.7778
13662TIP3    H262478   0.505   6.052   5.665 -0.4150 -0.2138  2.1038
13663TIP3   OH262479   5.713   2.385  16.300  0.5352  0.0240 -0.5153
13663TIP3    H162480   5.805   2.375  16.277  0.9282  0.0161  1.0546
13663TIP3    H262481   5.703   2.478  16.321 -0.0239  0.2067 -1.5110
13664TIP3   OH262482   4.141   5.255   0.414 -0.1574 -0.1043 -0.3438
13664TIP3    H162483   4.189   5.175   0.393  0.3141 -0.0560  0.5294
13664TIP3    H262484   4.197   5.325   0.379  0.7953 -0.0036  1.3162
13665TIP3   OH262485   0.153   6.111   5.730  0.1511  0.7509  0.3708
13665TIP3    H162486   0.197   6.044   5.678  0.8174 -0.1673  2.0759
13665TIP3    H262487   0.224   6.155   5.777 -0.2205  3.0423 -1.1270
13666TIP3   OH262488   2.279   0.364  14.323 -0.3528  0.2109  0.1754
13666TIP3    H162489   2.283   0.377  14.228 -0.7166 -0.3772  0.0740
13666TIP3    H262490   2.341   0.292  14.340  0.3788  0.9164  0.4997
13667TIP3   OH262491   3.167   5.462   5.802 -0.4753 -0.5542 -0.3191
13667TIP3    H162492   3.205   5.403   5.868 -0.4904 -0.9488 -0.6576
13667TIP3    H262493   3.096   5.410   5.763 -0.9900 -0.0264 -0.0788
13668TIP3   OH262494   2.373   4.763  12.612  0.3933 -0.7498 -0.2631
13668TIP3    H162495   2.312   4.750  12.539 -0.7123  1.8981  0.1294
13668TIP3    H262496   2.457   4.734  12.578 -0.8832 -3.7604 -1.0877
13669TIP3   OH262497   2.821   4.864  15.155  0.0246 -0.3511  0.2196
13669TIP3    H162498   2.907   4.829  15.178 -0.3388 -0.6018  1.1864
13669TIP3    H262499   2.761   4.791  15.167 -0.3624 -0.1234 -0.2723
13670TIP3   OH262500   0.843   6.693   1.253 -0.1076  0.0923 -0.9138
13670TIP3    H162501   0.750   6.713   1.238 -0.0421  0.2363 -1.1277
13670TIP3    H262502   0.871   6.649   1.172 -0.4724 -1.6442 -0.1079
13671TIP3   OH262503   5.302   2.066   0.282 -0.3218  0.0359  0.0353
13671TIP3    H162504   5.234   2.009   0.318  1.0366 -1.0890  0.8754
13671TIP3    H262505   5.300   2.051   0.188 -0.6555 -0.6482  0.1516
13672TIP3   OH262506   0.291   0.663   4.886 -0.1790 -0.1774 -0.0016
13672TIP3    H162507   0.341   0.647   4.806  0.1963  0.9591 -0.0067
13672TIP3    H262508   0.218   0.601   4.882  1.5661 -2.2800  0.3236
13673TIP3   OH262509   0.267   3.968  15.106  0.2525 -0.0593  0.1265
13673TIP3    H162510   0.293   3.883  15.141  1.5268  0.9678  1.7618
13673TIP3    H262511   0.287   4.030  15.176 -2.2358  1.4024 -0.3813
13674TIP3   OH262512   5.746   3.838   2.106  0.2871  0.1045 -0.5199
13674TIP3    H162513   5.655   3.814   2.123  0.3123 -0.2995 -0.9588
13674TIP3    H262514   5.776   3.877   2.188  0.1467 -1.0887  0.1163
13675TIP3   OH262515   5.493   1.959   6.582 -0.0084 -0.5461  0.5038
13675TIP3    H162516   5.578   1.933   6.616  0.2796 -0.1518  0.0914
13675TIP3    H262517   5.450   2.003   6.654 -0.7522 -2.7147  1.4270
13676TIP3   OH262518   6.782   2.024   2.172  0.4496 -0.5448 -0.8397
13676TIP3    H162519   6.705   2.082   2.173 -0.8149 -2.1909  0.6809
13676TIP3    H262520   6.805   2.014   2.265  1.4765 -1.4264 -1.1845
13677TIP3   OH262521   6.114   1.300  12.743 -0.3581 -0.0605  0.6508
13677TIP3    H162522   6.072   1.231  12.795 -0.9177 -1.7332 -1.9537
13677TIP3    H262523   6.138   1.257  12.661  2.7715  1.8860  0.4440
13678TIP3   OH262524   0.625   4.918   5.681 -0.5431  0.0458 -0.2628
13678TIP3    H162525   0.603   4.895   5.590 -0.0564  0.2833 -0.4407
13678TIP3    H262526   0.595   4.843   5.732 -0.5198 -0.2365 -0.6596
13679TIP3   OH262527   3.783   3.952   2.172  0.1825  0.1693 -0.5015
13679TIP3    H162528   3.783   3.857   2.178 -0.6495  0.2489  0.9278
13679TIP3    H262529   3.777   3.982   2.263 -1.5307  1.5695 -1.0410
13680TIP3   OH262530   0.914   3.325   3.939 -0.4458 -0.1650  0.1496
13680TIP3    H162531   0.990   3.303   3.885 -1.2243 -0.5062 -0.8286
13680TIP3    H262532   0.951   3.360   4.020  0.7632  1.5406 -1.0818
13681TIP3   OH262533   2.588   2.742   0.349 -0.4424 -0.4951  0.0330
13681TIP3    H162534   2.601   2.779   0.436  0.6501  1.1176 -0.7992
13681TIP3    H262535   2.629   2.804   0.290 -3.5325 -0.1754 -1.8876
13682TIP3   OH262536   6.305   0.637  15.934 -0.3442 -0.0752  0.4879
13682TIP3    H162537   6.399   0.622  15.949  0.0327  0.7960 -0.9002
13682TIP3    H262538   6.263   0.557  15.963  0.9997 -1.1971 -0.5859
13683TIP3   OH262539   0.248   4.337  15.925  0.5776  0.4223  0.1624
13683TIP3    H162540   0.177   4.274  15.940 -0.6566  1.3440 -1.6655
13683TIP3    H262541   0.204   4.415  15.890  2.6328  0.4038 -2.6324
13684TIP3   OH262542   1.472   3.666  15.235  0.1613 -0.3148  0.1661
13684TIP3    H162543   1.461   3.629  15.323  0.4353 -0.6541  0.0608
13684TIP3    H262544   1.394   3.719  15.221 -0.5893 -1.4296  0.0451
13685TIP3   OH262545   3.008   3.169   0.464  0.0171 -0.0206  0.2744
13685TIP3    H162546   3.062   3.125   0.528 -0.6141  0.5880  1.2397
13685TIP3    H262547   3.006   3.260   0.492 -0.0471  0.3099 -0.7607
13686TIP3   OH262548   5.574   0.926   5.713 -0.3959 -0.1539  0.1465
13686TIP3    H162549   5.646   0.941   5.651 -0.3869 -0.7125  0.0194
13686TIP3    H262550   5.495   0.948   5.663 -0.2795  1.2132  0.5229
13687TIP3   OH262551   4.555   4.201   5.841 -0.2920  0.0572  0.5870
13687TIP3    H162552   4.508   4.214   5.759  0.2320 -0.2229  0.2415
13687TIP3    H262553   4.516   4.123   5.879  1.3972 -1.5182 -0.7942
13688TIP3   OH262554   4.726   2.402  10.347 -0.5633  0.7037 -0.0170
13688TIP3    H162555   4.677   2.477  10.383  0.7560  1.9501 -0.7522
13688TIP3    H262556   4.671   2.326  10.365 -1.3909  1.7016  1.8329
13689TIP3   OH262557   5.992   0.211  16.838  0.2395 -0.1140  0.1160
13689TIP3    H162558   5.978   0.153  16.763 -0.4556  1.4173 -0.9718
13689TIP3    H262559   6.073   0.180  16.878  0.1588 -1.4852 -0.7566
13690TIP3   OH262560   0.427   0.509   1.358 -0.1658  0.1977 -0.0504
13690TIP3    H162561   0.455   0.571   1.290 -1.7423  2.6472  1.4546
13690TIP3    H262562   0.348   0.469   1.322 -0.2283  0.4895 -0.2404
13691TIP3   OH262563   2.610   0.306   5.105 -0.5861  0.5380 -0.3334
13691TIP3    H162564   2.641   0.248   5.036  0.7996  0.3361  0.4434
13691TIP3    H262565   2.656   0.276   5.184 -0.8038  1.8894  0.3169
13692TIP3   OH262566   5.269   0.607  14.799 -0.2644  0.4180  0.3160
13692TIP3    H162567   5.197   0.612  14.861 -0.5740  0.2111 -0.0237
13692TIP3    H262568   5.267   0.691  14.753 -0.7344  0.1479 -0.1749
13693TIP3   OH262569   2.340   1.236   3.021 -0.2691 -0.4132 -0.0026
13693TIP3    H162570   2.435   1.230   3.006 -0.2016 -0.1047  0.2990
13693TIP3    H262571   2.323   1.172   3.090 -0.3740 -0.8774 -0.4478
13694TIP3   OH262572   0.704   6.710  13.980  0.3599 -0.2936 -0.6181
13694TIP3    H162573   0.697   6.623  14.019 -0.9031 -0.3823 -1.0028
13694TIP3    H262574   0.751   6.762  14.045 -3.1892  0.0116  1.8457
13695TIP3   OH262575   1.499   6.259   5.836  0.1961 -0.1517  0.7017
13695TIP3    H162576   1.530   6.305   5.758 -1.1293  0.8362  0.7325
13695TIP3    H262577   1.578   6.234   5.882  0.9665  0.9795  0.0152
13696TIP3   OH262578   0.131   6.518   1.443  0.3989 -0.0105 -0.2058
13696TIP3    H162579   0.155   6.517   1.535  0.0244 -0.6774 -0.1096
13696TIP3    H262580   0.157   6.605   1.412  1.0368  0.0111  0.3857
13697TIP3   OH262581   4.965   6.791   1.880 -0.1289  0.2045 -0.0950
13697TIP3    H162582   4.986   6.729   1.810 -0.0124 -0.6852  0.6984
13697TIP3    H262583   5.050   6.809   1.922 -0.3675 -0.2670  0.6069
13698TIP3   OH262584   2.016   3.821  13.313 -0.4576 -0.7353 -0.6520
13698TIP3    H162585   2.079   3.825  13.385  2.1168  1.6802 -2.9720
13698TIP3    H262586   1.946   3.880  13.339  0.8365  0.7282 -0.4590
13699TIP3   OH262587   5.729   3.170   5.636  0.0058 -0.1248 -0.0301
13699TIP3    H162588   5.651   3.174   5.692 -0.1957  1.1293 -0.3837
13699TIP3    H262589   5.697   3.195   5.549  0.3527 -1.9314 -0.6797
13700TIP3   OH262590   2.605   6.786  15.427  0.9771 -0.1839  0.0076
13700TIP3    H162591   2.609   6.691  15.438  3.4185  0.0342  1.2486
13700TIP3    H262592   2.605   6.821  15.516 -1.4660  0.9651 -0.3916
13701TIP3   OH262593   4.163   6.451  14.059  0.5061 -0.2279 -0.5260
13701TIP3    H162594   4.136   6.498  14.139 -0.0721 -0.8664 -0.3425
13701TIP3    H262595   4.240   6.499  14.028 -0.0304  0.7980 -0.2962
13702TIP3   OH262596   1.986   5.172  15.237  0.0433 -0.5144  0.1501
13702TIP3    H162597   1.999   5.124  15.155  0.0031  0.0846 -0.2198
13702TIP3    H262598   1.898   5.209  15.229 -0.1758 -0.9182  0.7101
13703TIP3   OH262599   0.524   1.099  13.178 -0.1962  0.1002 -0.1895
13703TIP3    H162600   0.557   1.017  13.141 -0.1302  0.9081 -1.9673
13703TIP3    H262601   0.563   1.167  13.123 -1.9860  1.2196 -0.1037
13704TIP3   OH262602   0.495   6.437  15.039 -0.3176  0.1366 -0.0227
13704TIP3    H162603   0.523   6.347  15.058 -0.9155  0.1168  0.8049
13704TIP3    H262604   0.492   6.479  15.125 -0.2857  0.8804 -0.3860
13705TIP3   OH262605   2.878   0.390  14.987 -0.2334  0.1001 -0.1384
13705TIP3    H162606   2.860   0.483  14.993  0.5485  0.3080 -1.0579
13705TIP3    H262607   2.967   0.380  15.019 -0.6670 -0.4678  0.9270
13706TIP3   OH262608   2.261   3.375   1.699  0.4753 -0.1182  0.4750
13706TIP3    H162609   2.211   3.425   1.764 -0.0552  0.7997 -0.6144
13706TIP3    H262610   2.331   3.334   1.749 -1.1560 -1.1326  1.9897
13707TIP3   OH262611   0.757   5.454  11.870 -0.2419 -0.0373 -0.1813
13707TIP3    H162612   0.845   5.470  11.904 -0.3802 -0.9391  0.5951
13707TIP3    H262613   0.770   5.441  11.776 -0.0059  3.8185 -0.7701
13708TIP3   OH262614   3.723   5.518  12.354 -0.4137 -0.3908  0.1390
13708TIP3    H162615   3.714   5.608  12.385 -0.9797  0.3332 -2.0935
13708TIP3    H262616   3.817   5.499  12.365 -0.2700  0.4943  0.5119
13709TIP3   OH262617   5.563   2.100   1.649  0.3858 -0.5381  0.1119
13709TIP3    H162618   5.520   2.018   1.675  1.0870 -1.0435 -0.2802
13709TIP3    H262619   5.495   2.166   1.655 -0.1986 -1.1596  0.4251
13710TIP3   OH262620   0.567   0.131   5.148  0.1825  0.0380 -0.3801
13710TIP3    H162621   0.635   0.065   5.163 -1.1236 -1.1881  0.2449
13710TIP3    H262622   0.582   0.197   5.215  0.1066 -0.7573  0.4303
13711TIP3   OH262623   6.174   4.043  13.257  0.3642  0.3573 -0.2221
13711TIP3    H162624   6.181   4.134  13.287  0.9724 -0.1286  1.1166
13711TIP3    H262625   6.097   4.009  13.301  0.5861 -0.0163 -0.1226
13712TIP3   OH262626   6.102   0.403   4.057 -0.2318 -0.1583  0.4439
13712TIP3    H162627   6.117   0.470   4.124 -0.4593 -0.7250  1.0697
13712TIP3    H262628   6.041   0.443   3.995 -0.4200  0.1911  0.8533
13713TIP3   OH262629   1.315   6.474  11.335  0.0261 -0.3548  0.0149
13713TIP3    H162630   1.369   6.517  11.268 -1.6363  0.2498 -0.9715
13713TIP3    H262631   1.256   6.417  11.285 -0.5387 -0.6794  1.0327
13714TIP3   OH262632   5.540   2.013  14.491  0.5052  0.1286  0.1443
13714TIP3    H162633   5.494   2.037  14.572  0.1544  1.1041 -0.3367
13714TIP3    H262634   5.520   2.084  14.430  0.8678 -0.5413 -0.7670
13715TIP3   OH262635   2.726   1.448   1.181 -0.2420 -0.5800 -0.5377
13715TIP3    H162636   2.634   1.425   1.197 -0.5600 -1.3048 -3.1022
13715TIP3    H262637   2.724   1.543   1.166 -0.3991 -0.4197  0.4491
13716TIP3   OH262638   0.545   4.340   2.226  0.1939  0.0462  0.4768
13716TIP3    H162639   0.534   4.284   2.149 -1.7557  0.7479  0.2187
13716TIP3    H262640   0.457   4.347   2.263  0.7498  1.4305  1.5612
13717TIP3   OH262641   5.963   0.094   0.613  0.4214  0.1471  1.0508
13717TIP3    H162642   5.924   0.170   0.571 -1.9902 -0.8870  1.3491
13717TIP3    H262643   6.041   0.075   0.561 -1.2949  0.2435 -1.6344
13718TIP3   OH262644   5.347   3.894   4.375  0.0895 -0.2710 -0.3074
13718TIP3    H162645   5.301   3.912   4.456 -0.5170 -0.6371 -0.5689
13718TIP3    H262646   5.440   3.907   4.396 -0.1614  0.8321  0.1139
13719TIP3   OH262647   2.219   6.746   1.348  0.3065 -0.0449 -0.1766
13719TIP3    H162648   2.267   6.798   1.283  1.6470 -0.2382  0.6381
13719TIP3    H262649   2.143   6.800   1.370 -0.1331  0.0506 -1.8559
13720TIP3   OH262650   3.304   0.532  11.282 -0.3576  0.2205  0.2798
13720TIP3    H162651   3.236   0.593  11.253 -1.6601 -1.5199 -0.4712
13720TIP3    H262652   3.370   0.534  11.213  0.3245  1.8230  0.9498
13721TIP3   OH262653   6.318   0.497   6.488  0.0439  0.3550  0.0979
13721TIP3    H162654   6.258   0.441   6.538  0.2745  0.1478  0.1405
13721TIP3    H262655   6.315   0.581   6.533 -0.5083  0.4558 -0.1210
13722TIP3   OH262656   2.215   4.890   1.178 -0.5735 -0.2675  0.3339
13722TIP3    H162657   2.177   4.845   1.253 -0.7009  0.4966  0.7361
13722TIP3    H262658   2.265   4.823   1.132  0.2347 -0.5421  1.5972
13723TIP3   OH262659   3.828   2.126   6.186 -0.2733 -0.6499  0.1790
13723TIP3    H162660   3.867   2.040   6.171  1.6586  0.3803 -0.8011
13723TIP3    H262661   3.859   2.151   6.273  0.1026 -0.4360 -0.0181
13724TIP3   OH262662   6.185   1.364   1.414  0.0916 -0.9726 -0.3182
13724TIP3    H162663   6.242   1.424   1.366 -0.1149  0.9853  1.7829
13724TIP3    H262664   6.096   1.397   1.398  0.0203 -0.2434  1.3878
13725TIP3   OH262665   6.399   6.402   5.215 -0.1758  0.0184  0.5400
13725TIP3    H162666   6.422   6.495   5.218 -0.3668  0.0631  0.6416
13725TIP3    H262667   6.326   6.398   5.153  1.0134 -0.3164 -0.8734
13726TIP3   OH262668   1.951   1.784  11.788 -0.0597  0.5380 -0.5335
13726TIP3    H162669   1.926   1.705  11.740 -0.4091  0.6015 -0.4602
13726TIP3    H262670   1.875   1.803  11.843  0.0144  0.9425 -0.5727
13727TIP3   OH262671   2.950   5.970  14.099 -0.1276 -0.2356  0.0274
13727TIP3    H162672   3.000   6.012  14.169  0.3726 -1.4557  0.4268
13727TIP3    H262673   2.871   5.937  14.142  0.2298 -1.0786  0.0500
13728TIP3   OH262674   0.079   0.361   2.076  0.1379  0.1768 -0.5059
13728TIP3    H162675   0.056   0.276   2.037  0.6780 -0.4617  0.5142
13728TIP3    H262676   0.053   0.426   2.012 -0.3781 -0.7741 -1.2623
13729TIP3   OH262677   3.541   0.464  13.944 -0.2133  0.6788 -0.5358
13729TIP3    H162678   3.591   0.391  13.979  0.0804  1.0190 -0.2412
13729TIP3    H262679   3.450   0.440  13.957 -0.1494 -0.4273 -2.0486
13730TIP3   OH262680   0.052   0.436   5.406 -0.2819 -0.2196 -0.4000
13730TIP3    H162681   0.038   0.434   5.312 -3.0377 -0.7887 -0.0306
13730TIP3    H262682   0.086   0.524   5.423 -0.5319  0.1681 -1.8312
13731TIP3   OH262683   2.548   3.696  14.244  0.3178 -0.3739  0.0632
13731TIP3    H162684   2.460   3.726  14.266 -0.5107 -3.1069  0.6589
13731TIP3    H262685   2.605   3.770  14.264 -1.8261  1.4298 -0.3263
13732TIP3   OH262686   6.809   2.604   4.016  0.6324  0.2215  0.0326
13732TIP3    H162687   6.862   2.555   4.079 -1.3352 -0.3623  1.2875
13732TIP3    H262688   6.845   2.692   4.018  0.7424  0.1566  1.8721
13733TIP3   OH262689   0.314   0.572  17.201 -0.6093  0.2442  0.5453
13733TIP3    H162690   0.404   0.577  17.169 -0.3658  0.5293  1.2864
13733TIP3    H262691   0.279   0.491  17.161  1.0379 -1.7166  2.9578
13734TIP3   OH262692   2.317   3.311   0.297  0.2084  0.0322 -0.5282
13734TIP3    H162693   2.391   3.250   0.292  0.0304 -0.1048 -1.6112
13734TIP3    H262694   2.301   3.321   0.390  0.4048 -1.3966 -0.3261
13735TIP3   OH262695   5.277   2.213  11.362  0.1452  0.5653  0.1936
13735TIP3    H162696   5.361   2.217  11.408  0.7516  1.2704 -0.9508
13735TIP3    H262697   5.211   2.212  11.432  1.1288 -0.9836  1.1097
13736TIP3   OH262698   4.205   5.842   4.286 -0.3575  0.6528  0.0265
13736TIP3    H162699   4.114   5.869   4.275 -0.2605  0.4631 -1.2971
13736TIP3    H262700   4.253   5.889   4.218 -0.1128 -2.3346 -1.9708
13737TIP3   OH262701   4.260   1.075  16.790  0.0857 -0.4939 -0.0302
13737TIP3    H162702   4.241   1.023  16.869  0.2681  1.0109  1.0257
13737TIP3    H262703   4.319   1.020  16.739 -0.9075 -1.9502  0.3596
13738TIP3   OH262704   0.797   0.795   4.836  0.1226  0.6669 -0.2585
13738TIP3    H162705   0.779   0.888   4.841 -0.5542  0.6596 -2.2556
13738TIP3    H262706   0.745   0.756   4.907 -1.1796  1.5747 -0.7068
13739TIP3   OH262707   5.591   4.513   1.235  0.0831 -0.5726 -0.2081
13739TIP3    H162708   5.531   4.538   1.164  1.4249  1.0937 -0.7670
13739TIP3    H262709   5.551   4.434   1.272 -1.3826 -0.6650 -1.9003
13740TIP3   OH262710   1.271   5.531  16.900 -0.4822  0.4118 -0.4587
13740TIP3    H162711   1.322   5.612  16.905 -0.7012  0.4842  0.7370
13740TIP3    H262712   1.244   5.525  16.809 -0.3413  1.6085 -0.5855
13741TIP3   OH262713   3.443   5.076  15.715 -0.0173 -0.3078  0.0274
13741TIP3    H162714   3.404   5.149  15.668  0.0775  0.0928  0.5731
13741TIP3    H262715   3.522   5.112  15.755 -0.2676 -0.5709  0.7624
13742TIP3   OH262716   3.734   6.031  15.326  0.8705  0.6883 -0.2295
13742TIP3    H162717   3.640   6.031  15.346  0.9189 -1.7117  0.1588
13742TIP3    H262718   3.745   6.103  15.263 -0.8747  2.2379  1.1818
13743TIP3   OH262719   5.478   1.534  14.140 -0.6507 -0.1419  0.0194
13743TIP3    H162720   5.488   1.589  14.217  0.7334  1.1492 -1.0470
13743TIP3    H262721   5.564   1.536  14.098 -1.5937 -0.1759 -1.9748
13744TIP3   OH262722   6.248   0.675  10.304  0.1708  0.2071  0.0442
13744TIP3    H162723   6.323   0.723  10.340  0.6233  0.7006 -1.5264
13744TIP3    H262724   6.208   0.737  10.243 -1.0664 -0.3328  0.3045
13745TIP3   OH262725   5.666   4.491  11.986 -0.3659  0.3033 -0.3700
13745TIP3    H162726   5.674   4.587  11.988  0.5911  0.2397  2.9192
13745TIP3    H262727   5.753   4.460  11.964 -0.7325  0.1790 -1.6656
13746TIP3   OH262728   2.058   2.352  15.759 -0.0059 -0.5410 -0.1246
13746TIP3    H162729   2.101   2.319  15.838  0.9870  1.7003  0.3030
13746TIP3    H262730   1.979   2.395  15.792 -0.7211 -1.4928 -0.5782
13747TIP3   OH262731   2.065   1.443  11.299 -0.1681 -1.0924 -0.3578
13747TIP3    H162732   2.155   1.412  11.307 -0.3619 -1.4331  0.5242
13747TIP3    H262733   2.073   1.539  11.300  0.4553 -1.0774 -3.4455
13748TIP3   OH262734   5.119   6.003   2.307 -0.7597 -0.7538  0.2593
13748TIP3    H162735   5.124   5.957   2.390  1.8604 -1.1685 -0.0803
13748TIP3    H262736   5.086   5.938   2.245  0.8815 -1.5803  0.2255
13749TIP3   OH262737   4.277   3.408  12.368 -0.6165 -0.3398  0.3167
13749TIP3    H162738   4.212   3.356  12.415  0.3641 -0.3996  1.6502
13749TIP3    H262739   4.357   3.355  12.371 -0.5656 -0.3926 -1.5379
13750TIP3   OH262740   2.418   2.036   3.556  0.0423  0.4322  0.0533
13750TIP3    H162741   2.462   2.119   3.575 -0.0328  0.3391  0.6552
13750TIP3    H262742   2.489   1.972   3.549  0.3950  1.1149 -3.7496
13751TIP3   OH262743   0.368   6.654   3.483  0.0354  0.4538  0.2023
13751TIP3    H162744   0.432   6.594   3.523  0.4243 -1.7377 -3.5231
13751TIP3    H262745   0.302   6.597   3.445 -0.0046  2.3850 -2.7758
13752TIP3   OH262746   2.498   6.417   3.640  0.8206 -0.0633 -0.1034
13752TIP3    H162747   2.561   6.388   3.574 -0.2904 -0.4854 -1.0005
13752TIP3    H262748   2.510   6.512   3.645  2.7973 -0.3575  1.0877
13753TIP3   OH262749   3.443   3.605   1.863  0.1903  0.1419  0.0394
13753TIP3    H162750   3.452   3.590   1.769  0.9929  0.2133  0.1042
13753TIP3    H262751   3.495   3.684   1.880  1.2357 -0.7061  0.7923
13754TIP3   OH262752   1.231   2.738  13.593  0.3963  0.3558  0.3426
13754TIP3    H162753   1.198   2.812  13.643 -0.0702  0.6233 -0.3487
13754TIP3    H262754   1.326   2.753  13.588  0.3008  0.9395  0.1673
13755TIP3   OH262755   0.044   3.832   1.540 -0.2615  0.1246  0.0734
13755TIP3    H162756   0.084   3.765   1.484 -1.7294 -0.0051 -0.8289
13755TIP3    H262757   0.081   3.914   1.509  0.9329 -0.1641  0.6609
13756TIP3   OH262758   0.508   1.095   3.606  0.1611 -0.3623 -0.0644
13756TIP3    H162759   0.458   1.053   3.676  0.3519 -0.6286 -0.0872
13756TIP3    H262760   0.593   1.051   3.607  0.6260  0.5452  0.4094
13757TIP3   OH262761   2.969   2.094   2.288 -0.3294 -0.0834 -0.5236
13757TIP3    H162762   2.921   2.111   2.369 -1.4811 -0.2270 -1.1692
13757TIP3    H262763   2.901   2.085   2.222  0.6646  2.1051 -1.8995
13758TIP3   OH262764   3.522   5.784  15.269  0.1502 -0.2055  0.4837
13758TIP3    H162765   3.488   5.857  15.320  0.3151  0.3275 -0.1602
13758TIP3    H262766   3.465   5.778  15.193  1.6851  0.9397 -0.7941
13759TIP3   OH262767   2.740   4.908  16.572 -0.2924 -0.1724 -0.1594
13759TIP3    H162768   2.683   4.921  16.647 -1.0996 -1.6542 -0.4888
13759TIP3    H262769   2.770   4.996  16.549 -0.9500  0.4165  1.1738
13760TIP3   OH262770   6.698   6.614  14.654 -0.2413 -0.4035  0.0882
13760TIP3    H162771   6.782   6.577  14.680  0.1905  0.6585  0.2406
13760TIP3    H262772   6.639   6.593  14.726  0.4234  0.6817  0.9738
13761TIP3   OH262773   5.167   3.110   2.295 -0.2035  0.0497 -0.4978
13761TIP3    H162774   5.143   3.065   2.215 -1.8117  1.7138 -0.9869
13761TIP3    H262775   5.086   3.117   2.345  0.3587  0.8876  0.3217
13762TIP3   OH262776   3.285   6.377   1.699  0.3058 -0.0386 -0.2124
13762TIP3    H162777   3.380   6.380   1.704  0.2510 -0.6527  1.7461
13762TIP3    H262778   3.261   6.450   1.643  1.8692  0.9668  0.4140
13763TIP3   OH262779   2.746   1.368  14.617 -0.1580  0.0708 -0.1021
13763TIP3    H162780   2.722   1.454  14.652 -0.3250  0.3442 -0.8847
13763TIP3    H262781   2.780   1.320  14.693  0.7499  1.1189  0.1607
13764TIP3   OH262782   1.580   1.483   2.916 -0.2945 -0.3956  0.1218
13764TIP3    H162783   1.567   1.486   3.011  2.3225  1.5644  0.4569
13764TIP3    H262784   1.595   1.574   2.891  1.7178 -1.2119 -1.7670
13765TIP3   OH262785   4.973   3.712  13.414 -0.4475  0.0036 -0.8647
13765TIP3    H162786   4.881   3.703  13.389 -1.1399  0.0727  1.5815
13765TIP3    H262787   4.984   3.653  13.488  1.2696  0.6877 -0.5407
13766TIP3   OH262788   5.943   0.150  15.828  0.2710  0.5423  0.3904
13766TIP3    H162789   5.863   0.202  15.815 -0.0811 -0.0083  0.3586
13766TIP3    H262790   5.916   0.060  15.812  0.7585  0.2891  0.9903
13767TIP3   OH262791   3.983   0.156   6.049  0.5188  0.0718 -0.2134
13767TIP3    H162792   4.011   0.245   6.026  0.8921 -0.2790 -1.1383
13767TIP3    H262793   4.030   0.137   6.130 -1.1650  1.4871  1.1313
13768TIP3   OH262794   0.358   4.636   2.568 -0.1083 -0.3322  0.0774
13768TIP3    H162795   0.353   4.541   2.578 -0.0234 -0.4112 -0.5828
13768TIP3    H262796   0.278   4.669   2.610  0.6770 -0.5640  1.7984
13769TIP3   OH262797   4.027   4.646  11.972 -0.0305  0.8032  0.3294
13769TIP3    H162798   3.942   4.671  12.008 -0.1968 -1.0503  1.3123
13769TIP3    H262799   4.014   4.557  11.940  1.3794  0.7100 -0.0341
13770TIP3   OH262800   4.036   4.918   2.496  0.2144 -0.1632  0.0172
13770TIP3    H162801   4.067   4.830   2.472 -0.4849 -0.9461  1.9557
13770TIP3    H262802   3.978   4.904   2.570  0.0926  1.9596  0.3439
13771TIP3   OH262803   1.244   2.717   3.815  0.6318  0.4786  0.6169
13771TIP3    H162804   1.263   2.689   3.904  2.5261  1.5251  0.5685
13771TIP3    H262805   1.255   2.638   3.762  2.1263  0.4092  0.9905
13772TIP3   OH262806   1.194   0.275  12.342 -0.1304 -0.4206 -0.3517
13772TIP3    H162807   1.183   0.271  12.437 -0.0899  0.9247 -0.2874
13772TIP3    H262808   1.261   0.209  12.323 -0.9357 -1.4647  0.4221
13773TIP3   OH262809   0.030   1.274   3.682 -0.1807 -0.6485 -0.2258
13773TIP3    H162810   0.020   1.295   3.775 -0.0675 -0.3329 -0.2853
13773TIP3    H262811   0.090   1.199   3.681  0.1967 -0.3507 -0.0711
13774TIP3   OH262812   3.880   1.909   3.954  0.4441 -0.3022  0.3243
13774TIP3    H162813   3.886   1.882   4.046 -0.1484  0.8519  0.7093
13774TIP3    H262814   3.809   1.856   3.918  0.4325 -0.4973  0.6349
13775TIP3   OH262815   3.661   6.300   6.443 -0.0279 -0.2299  0.0861
13775TIP3    H162816   3.647   6.329   6.533 -0.3719 -2.9379  0.9370
13775TIP3    H262817   3.755   6.286   6.436  0.0719  0.5355 -0.1678
13776TIP3   OH262818   6.434   2.154  15.564 -0.2454  0.0538 -0.1514
13776TIP3    H162819   6.377   2.211  15.512 -0.6392 -1.1877 -1.0934
13776TIP3    H262820   6.456   2.082  15.505  0.3241 -0.7276  1.0048
13777TIP3   OH262821   5.895   0.606  15.297 -0.2849  0.2438 -0.1724
13777TIP3    H162822   5.878   0.700  15.289  1.2579  0.6300  0.9393
13777TIP3    H262823   5.809   0.565  15.288 -0.8014  1.6648 -2.0562
13778TIP3   OH262824   0.918   5.521  11.581  0.1570 -0.3175  0.0297
13778TIP3    H162825   0.950   5.578  11.511 -2.1587  0.0775 -0.7774
13778TIP3    H262826   0.893   5.581  11.651 -2.8275 -0.1960 -1.0406
13779TIP3   OH262827   3.394   3.031   0.959 -0.1525 -0.2768 -0.1364
13779TIP3    H162828   3.481   3.043   0.996 -0.4231  1.5718 -0.0477
13779TIP3    H262829   3.406   3.038   0.864 -0.2271  0.1540 -0.1149
13780TIP3   OH262830   5.433   4.054   4.058 -0.1640  0.1210 -0.5598
13780TIP3    H162831   5.504   4.011   4.011 -0.4104  0.6830 -1.4554
13780TIP3    H262832   5.358   3.996   4.047 -0.4149  0.6155 -1.5000
13781TIP3   OH262833   0.256   5.814  16.640 -0.4250 -0.3621 -0.2442
13781TIP3    H162834   0.203   5.861  16.705 -1.1824  0.1202 -1.2089
13781TIP3    H262835   0.194   5.759  16.593  0.0689 -0.4557 -0.7967
13782TIP3   OH262836   2.647   5.373   6.545 -0.1619 -0.0511 -0.0064
13782TIP3    H162837   2.626   5.285   6.515 -1.5702  0.2501  0.0428
13782TIP3    H262838   2.573   5.397   6.602  0.6107  0.8420  0.6297
13783TIP3   OH262839   2.084   0.363   1.568  0.1283 -0.0439 -0.6792
13783TIP3    H162840   2.036   0.373   1.650  0.0528 -1.9583 -0.4632
13783TIP3    H262841   2.172   0.394   1.589  0.5335 -1.9570  0.5969
13784TIP3   OH262842   6.525   2.944   0.531  0.5669  0.6056 -0.1860
13784TIP3    H162843   6.519   2.957   0.437 -0.9831  1.7510  0.0332
13784TIP3    H262844   6.494   3.027   0.569 -0.8378 -0.5400  1.3061
13785TIP3   OH262845   2.307   5.143  13.227 -0.1565 -0.1201 -0.1197
13785TIP3    H162846   2.280   5.144  13.318  1.6840  0.1190  0.4394
13785TIP3    H262847   2.284   5.055  13.196  0.3127 -0.6036  0.9005
13786TIP3   OH262848   2.274   1.875  13.324 -1.1372  0.8466  0.9721
13786TIP3    H162849   2.184   1.891  13.354 -1.2369  3.4177 -0.6006
13786TIP3    H262850   2.327   1.937  13.374 -0.5556  1.0213  0.1413
13787TIP3   OH262851   3.198   3.807  15.011 -0.1858  0.4269 -0.4123
13787TIP3    H162852   3.275   3.861  14.995  0.2469  0.2865  1.1083
13787TIP3    H262853   3.210   3.731  14.953 -0.2795  1.4445 -1.7774
13788TIP3   OH262854   0.981   6.012  14.156 -0.1137  0.6543 -0.3592
13788TIP3    H162855   1.009   5.980  14.242 -0.0864  2.1815  0.2313
13788TIP3    H262856   0.926   5.943  14.121  1.5635 -0.8906 -0.0138
13789TIP3   OH262857   1.690   0.794  16.681  0.0805 -0.0389  0.2965
13789TIP3    H162858   1.615   0.737  16.659 -0.5603  0.9593 -0.1394
13789TIP3    H262859   1.651   0.881  16.690  1.1735  0.4503  0.2625
13790TIP3   OH262860   2.973   3.326  11.411 -0.3722 -0.3050  1.1143
13790TIP3    H162861   2.943   3.250  11.361  1.2031 -0.0045 -0.3556
13790TIP3    H262862   2.971   3.298  11.502 -1.6158 -1.4658  0.7333
13791TIP3   OH262863   5.432   4.394   0.470 -0.0430 -0.2885 -0.4848
13791TIP3    H162864   5.417   4.472   0.417  0.7117  1.1356  1.3784
13791TIP3    H262865   5.345   4.355   0.481 -0.3976  0.1802 -1.5548
13792TIP3   OH262866   5.289   3.587   2.283  0.0841  0.4435  0.1352
13792TIP3    H162867   5.202   3.616   2.256 -0.3425  0.2249  1.2478
13792TIP3    H262868   5.316   3.525   2.215 -0.1402  1.3791 -0.8149
13793TIP3   OH262869   1.234   5.197   3.311  0.4033 -0.1838 -0.2926
13793TIP3    H162870   1.235   5.201   3.215  0.6988  0.0839 -0.2770
13793TIP3    H262871   1.191   5.277   3.339 -0.7720 -0.8273 -0.2352
13794TIP3   OH262872   1.726   1.523   5.506 -0.0896 -0.0235  0.3473
13794TIP3    H162873   1.796   1.483   5.559  0.2239  1.9821  1.5136
13794TIP3    H262874   1.713   1.610   5.545 -2.1876  0.2234 -0.8142
13795TIP3   OH262875   4.575   2.649   0.459  0.6239 -0.6542  0.6755
13795TIP3    H162876   4.591   2.637   0.552  1.4823  1.2675  0.7803
13795TIP3    H262877   4.497   2.704   0.454  0.7711 -0.4762  0.2610
13796TIP3   OH262878   2.530   3.055   2.554  0.2271  0.1511 -0.2209
13796TIP3    H162879   2.604   3.113   2.575 -0.4004  0.1878  2.0065
13796TIP3    H262880   2.572   2.973   2.526  1.1198  0.7493 -0.6611
13797TIP3   OH262881   1.119   6.371   1.218 -0.6235 -0.0812  0.1663
13797TIP3    H162882   1.050   6.325   1.171  1.5560 -1.7744 -1.4492
13797TIP3    H262883   1.184   6.304   1.238  0.3070  1.3651  2.2136
13798TIP3   OH262884   0.131   6.524   3.412  0.4388 -0.5871 -0.1289
13798TIP3    H162885   0.151   6.493   3.324  1.2300 -1.0210  0.1963
13798TIP3    H262886   0.077   6.454   3.450 -1.4092  0.4046 -0.8688
13799TIP3   OH262887   5.890   5.091  16.808  0.0030 -0.3396  0.3501
13799TIP3    H162888   5.914   5.147  16.733 -0.5570 -0.5890 -0.0182
13799TIP3    H262889   5.820   5.139  16.852  2.4736  1.3711  2.6026
13800TIP3   OH262890   4.545   2.983   6.291 -0.2310 -0.3782  0.1279
13800TIP3    H162891   4.493   2.963   6.213  0.1296 -1.7010  0.2169
13800TIP3    H262892   4.548   3.078   6.294 -1.1841 -0.3100 -0.8568
13801TIP3   OH262893   1.397   6.682   2.470  0.0055 -0.1680  0.1356
13801TIP3    H162894   1.420   6.774   2.477 -0.3618  0.1076 -1.9374
13801TIP3    H262895   1.481   6.636   2.477  0.3801  0.4166 -0.4491
13802TIP3   OH262896   5.544   1.165   3.209 -0.5682 -0.4675  0.6218
13802TIP3    H162897   5.492   1.137   3.285 -0.3113 -0.2374  0.8782
13802TIP3    H262898   5.613   1.220   3.245 -0.3316 -0.5121  0.2417
13803TIP3   OH262899   3.373   3.188   4.410  0.3609 -0.6400 -0.4964
13803TIP3    H162900   3.453   3.228   4.444 -0.9187  2.0143 -0.4473
13803TIP3    H262901   3.305   3.214   4.472 -0.5052 -3.2059 -0.3060
13804TIP3   OH262902   5.434   4.619  13.271 -0.2185 -0.1452 -0.5847
13804TIP3    H162903   5.444   4.616  13.366  0.4749 -1.1391 -0.6826
13804TIP3    H262904   5.504   4.563  13.237 -0.3593  0.3228 -1.6898
13805TIP3   OH262905   2.426   0.651   3.259  0.1866 -0.1985 -0.1203
13805TIP3    H162906   2.371   0.715   3.304  0.8411 -0.5849  1.2632
13805TIP3    H262907   2.516   0.683   3.273  0.5607 -1.7312  1.1413
13806TIP3   OH262908   1.971   3.547  16.473  0.6998  0.1223  0.0094
13806TIP3    H162909   2.052   3.578  16.514  0.4758 -0.1211  0.6519
13806TIP3    H262910   1.908   3.545  16.545  0.6236 -1.4725 -0.0810
13807TIP3   OH262911   0.378   4.420   5.955  0.3853 -0.8437  0.1512
13807TIP3    H162912   0.292   4.414   5.913  0.6744 -2.3721 -0.2445
13807TIP3    H262913   0.375   4.502   6.005 -0.0676  0.8461 -2.5883
13808TIP3   OH262914   0.880   0.295   4.712 -0.1029  0.2115  0.4840
13808TIP3    H162915   0.864   0.352   4.636 -2.3772 -0.2695  0.5698
13808TIP3    H262916   0.804   0.309   4.768 -0.2181 -2.1794  0.9534
13809TIP3   OH262917   6.530   5.911   1.863 -0.0637  0.0580  0.0744
13809TIP3    H162918   6.500   5.840   1.919  0.3761 -0.6289 -0.5505
13809TIP3    H262919   6.452   5.963   1.845 -0.6317 -0.9808 -0.4776
13810TIP3   OH262920   6.719   4.176   6.252 -0.2275  0.3233  0.0068
13810TIP3    H162921   6.814   4.169   6.261 -0.3855  0.3875  2.0172
13810TIP3    H262922   6.689   4.085   6.247 -0.1777  0.2395  1.0211
13811TIP3   OH262923   6.464   1.971   6.381 -0.0205 -0.3973  0.0807
13811TIP3    H162924   6.476   2.065   6.394  2.7520 -0.6962 -0.1384
13811TIP3    H262925   6.550   1.939   6.353 -0.5200 -3.2539  1.6169
13812TIP3   OH262926   3.039   5.621   5.041  0.1161  0.3546  0.1550
13812TIP3    H162927   3.009   5.620   4.950 -0.7036 -0.7869  0.4226
13812TIP3    H262928   3.129   5.652   5.036  1.1945 -2.7981 -1.4182
13813TIP3   OH262929   6.000   1.351  16.501 -0.4751  0.5486  0.0852
13813TIP3    H162930   6.037   1.323  16.585 -0.7515  1.4609  0.5111
13813TIP3    H262931   6.076   1.376  16.449 -0.0232 -2.9138 -1.0432
13814TIP3   OH262932   5.967   2.238   4.738 -0.4520 -0.2677 -0.0701
13814TIP3    H162933   5.986   2.183   4.662 -0.2987  1.4062 -1.2595
13814TIP3    H262934   5.929   2.318   4.701  1.4947  1.4196  1.4595
13815TIP3   OH262935   6.408   5.706  17.206  0.3600  0.2223  0.4094
13815TIP3    H162936   6.366   5.769  17.148  0.2473  0.4095  0.6968
13815TIP3    H262937   6.451   5.644  17.147 -0.6522 -0.2042  0.1110
13816TIP3   OH262938   1.020   3.257  13.594 -0.3933  0.4742 -0.4711
13816TIP3    H162939   0.950   3.246  13.529 -0.2349  0.7623 -0.6953
13816TIP3    H262940   0.974   3.262  13.678 -0.5281 -0.9455 -0.4465
13817TIP3   OH262941   5.063   1.349   1.196  0.9548 -0.5489 -0.1081
13817TIP3    H162942   5.053   1.294   1.118  0.6595 -0.5211 -0.0903
13817TIP3    H262943   5.094   1.433   1.162 -1.8079  0.3611 -0.5042
13818TIP3   OH262944   3.444   1.936  14.237 -0.2853  0.8903  0.4956
13818TIP3    H162945   3.433   1.940  14.142  0.2629 -0.2880  0.3696
13818TIP3    H262946   3.369   1.885  14.268  0.2220  0.1713  0.5490
13819TIP3   OH262947   6.328   6.064  12.759 -0.2464 -0.0395 -0.1724
13819TIP3    H162948   6.414   6.070  12.801 -0.1840 -1.0097 -0.1567
13819TIP3    H262949   6.312   6.152  12.724  1.0493 -0.0308 -0.7646
13820TIP3   OH262950   1.512   3.216   0.056  0.7695  0.1626  0.3002
13820TIP3    H162951   1.419   3.210   0.035  0.9763 -1.3159 -0.2566
13820TIP3    H262952   1.528   3.309   0.067 -0.6586  0.4758 -0.1506
13821TIP3   OH262953   4.828   6.573  11.277 -0.2149 -0.7362  0.3114
13821TIP3    H162954   4.797   6.595  11.189  1.6655 -2.1501 -0.7638
13821TIP3    H262955   4.916   6.537  11.262 -0.2545 -1.8835  2.6802
13822TIP3   OH262956   5.029   1.443  13.800 -0.1582  0.6348  0.3738
13822TIP3    H162957   4.937   1.426  13.780 -0.1887  0.3678  0.7205
13822TIP3    H262958   5.064   1.482  13.721  0.1040 -1.7913 -0.7648
13823TIP3   OH262959   1.967   3.252   1.745  0.2594 -0.2509 -0.2907
13823TIP3    H162960   1.991   3.334   1.702  1.0400 -0.5898 -0.5041
13823TIP3    H262961   1.917   3.205   1.678  0.5324 -0.3085 -0.4545
13824TIP3   OH262962   0.918   2.380   0.049  0.0193 -0.0499 -0.3956
13824TIP3    H162963   0.894   2.364  -0.042  1.0807 -0.1759 -0.6575
13824TIP3    H262964   0.918   2.293   0.089 -1.3000  0.0965 -0.0566
13825TIP3   OH262965   0.758   1.672   0.744  0.4799  0.0191 -0.1225
13825TIP3    H162966   0.806   1.694   0.665  1.3869 -3.0412 -0.4767
13825TIP3    H262967   0.718   1.587   0.726 -1.4883  0.4625  1.7641
13826TIP3   OH262968   1.988   6.300   1.731  0.6323  0.0304 -0.0653
13826TIP3    H162969   2.023   6.275   1.817  4.5007  1.4573 -1.1170
13826TIP3    H262970   1.922   6.366   1.751  1.5549  0.4296  1.8683
13827TIP3   OH262971   6.406   2.503   1.410  0.0556 -0.5280  0.6301
13827TIP3    H162972   6.315   2.515   1.435 -0.3664  0.9725 -1.4518
13827TIP3    H262973   6.402   2.459   1.324  1.3995 -4.0989  2.2707
13828TIP3   OH262974   5.739   0.628   0.273  0.5526 -1.1522 -0.4928
13828TIP3    H162975   5.665   0.674   0.312  0.7763 -0.1733 -1.2035
13828TIP3    H262976   5.816   0.672   0.309  0.7655 -0.9943 -1.1231
13829TIP3   OH262977   4.547   4.612   1.612  0.7429 -0.7543  0.6556
13829TIP3    H162978   4.488   4.680   1.643  0.0971 -1.5900  1.3087
13829TIP3    H262979   4.622   4.659   1.576 -0.6687  0.3392 -0.9209
13830TIP3   OH262980   2.068   2.713   2.320  0.7737  0.0966  0.8252
13830TIP3    H162981   2.028   2.701   2.234  1.6497 -0.5321  0.4954
13830TIP3    H262982   2.065   2.626   2.360  1.1402  0.2008  1.0871
13831TIP3   OH262983   4.517   1.014   3.349  0.9838  0.3157 -0.2502
13831TIP3    H162984   4.472   1.017   3.264  3.8106 -0.3541 -1.8170
13831TIP3    H262985   4.601   1.056   3.333  0.6973  2.2152  2.8244
13832TIP3   OH262986   5.987   6.101  12.813  0.6631  0.2347 -0.2568
13832TIP3    H162987   5.995   6.165  12.742 -0.2313 -0.4053 -0.9456
13832TIP3    H262988   5.998   6.152  12.893 -1.5843  1.5136 -0.7470
13833TIP3   OH262989   0.552   6.723  14.343 -0.1227 -0.3598 -0.3460
13833TIP3    H162990   0.623   6.748  14.401  0.4653 -0.7983 -0.8683
13833TIP3    H262991   0.473   6.760  14.383  0.7489  2.6734 -1.3047
13834TIP3   OH262992   2.995   4.916  11.162  0.0420  0.2710 -0.0015
13834TIP3    H162993   2.986   4.823  11.140 -0.5627  0.1181  0.8970
13834TIP3    H262994   3.027   4.956  11.081  1.1455 -0.8565 -0.1521
13835TIP3   OH262995   6.718   6.317  15.967  0.8222 -0.2712 -0.1372
13835TIP3    H162996   6.707   6.225  15.992 -1.5212 -0.3620 -1.4065
13835TIP3    H262997   6.805   6.340  16.001  1.0873 -2.6856  0.9603
13836TIP3   OH262998   0.450   3.854   6.645 -0.0361 -0.3260 -0.2462
13836TIP3    H162999   0.484   3.842   6.733  0.1933 -1.0617 -0.4350
13836TIP3    H263000   0.508   3.803   6.589  0.8327  1.4632 -1.0304
13837TIP3   OH263001   2.793   2.235  11.990 -0.1204 -0.3041  0.4140
13837TIP3    H163002   2.817   2.143  11.979 -0.7653 -0.3614 -0.5554
13837TIP3    H263003   2.700   2.234  12.011  0.1808  0.0533  1.7930
13838TIP3   OH263004   0.364   1.759   4.249  0.9949 -0.2565  0.2428
13838TIP3    H163005   0.344   1.853   4.253  1.1861 -0.2294  0.5340
13838TIP3    H263006   0.331   1.724   4.331  2.6775 -0.1110  1.0122
13839TIP3   OH263007   1.523   2.777  12.869 -0.6089 -0.8193 -0.6064
13839TIP3    H163008   1.463   2.803  12.940 -0.3065 -0.5215 -0.4612
13839TIP3    H263009   1.596   2.735  12.914 -0.0309  0.0983 -0.6860
13840TIP3   OH263010   4.886   4.552  13.400 -0.3638  0.3544 -0.2462
13840TIP3    H163011   4.842   4.487  13.347  0.2454 -1.5642  1.5054
13840TIP3    H263012   4.979   4.542  13.378 -0.3556  1.2964 -0.6639
13841TIP3   OH263013   2.748   3.800  10.621  0.2741  0.2948 -0.0982
13841TIP3    H163014   2.761   3.713  10.658 -0.2343  0.3433  0.2034
13841TIP3    H263015   2.833   3.823  10.582  0.3912 -0.3575 -0.2348
13842TIP3   OH263016   0.977   4.969   5.087  0.4837 -0.2356 -0.3348
13842TIP3    H163017   0.939   4.891   5.126 -0.4049  0.6128  0.5313
13842TIP3    H263018   0.969   5.036   5.155 -1.4386  1.3802 -2.0813
13843TIP3   OH263019   5.919   0.589   9.912  0.2275 -0.6798 -0.2480
13843TIP3    H163020   5.933   0.525   9.981 -1.0042  0.1456  0.7907
13843TIP3    H263021   5.899   0.537   9.834 -0.7971 -1.5552  0.6007
13844TIP3   OH263022   5.086   1.284  11.998 -0.1843  0.2469 -0.0234
13844TIP3    H163023   5.010   1.308  11.945 -0.6957  1.0435  1.0361
13844TIP3    H263024   5.056   1.211  12.052 -0.0778  0.2917  0.0989
13845TIP3   OH263025   1.401   4.444   1.357  0.1489  0.1320 -0.2379
13845TIP3    H163026   1.415   4.392   1.436  0.6710 -1.0430 -1.0869
13845TIP3    H263027   1.456   4.402   1.290  0.9096  2.0345 -0.8347
13846TIP3   OH263028   0.231   2.411  13.363  0.6289 -0.2039 -0.3126
13846TIP3    H163029   0.149   2.460  13.361  0.9926  0.5184  1.6362
13846TIP3    H263030   0.291   2.462  13.309  0.0844 -0.2212 -0.9426
13847TIP3   OH263031   5.909   2.126   3.014 -0.5278  0.7584 -0.1626
13847TIP3    H163032   5.857   2.052   2.982 -0.4167  0.7251 -0.2627
13847TIP3    H263033   5.917   2.184   2.938  0.0307  0.5159 -0.2907
13848TIP3   OH263034   2.928   1.154  14.017  0.2525 -0.2502  0.0671
13848TIP3    H163035   3.018   1.175  13.993  0.4533 -0.0938  0.9448
13848TIP3    H263036   2.875   1.186  13.944  0.8543  0.2071 -0.1676
13849TIP3   OH263037   4.758   4.315  13.265  0.4917  0.4068  0.3347
13849TIP3    H163038   4.749   4.221  13.275 -0.3161  0.4336 -0.1254
13849TIP3    H263039   4.673   4.344  13.232  1.3707  1.0418 -1.4122
13850TIP3   OH263040   4.156   6.617   1.564 -0.2870  0.6435  0.2094
13850TIP3    H163041   4.185   6.644   1.476  1.3750  2.7322  1.3321
13850TIP3    H263042   4.236   6.586   1.607 -1.0537 -0.2000  1.0403
13851TIP3   OH263043   6.816   2.642  16.977  0.4127  0.1963 -0.1324
13851TIP3    H163044   6.824   2.581  17.049 -0.2419 -1.7694 -1.6760
13851TIP3    H263045   6.906   2.659  16.949  0.5989  0.0112  0.3659
13852TIP3   OH263046   2.488   2.373   2.381  0.3860 -0.5915 -0.4490
13852TIP3    H163047   2.488   2.442   2.314  0.0946  0.7478  0.9049
13852TIP3    H263048   2.449   2.297   2.337  0.4652  0.1737 -1.8777
13853TIP3   OH263049   6.093   3.620  14.810  0.2032 -0.1675  0.3950
13853TIP3    H163050   6.069   3.580  14.893 -2.0895 -0.4895 -0.3872
13853TIP3    H263051   6.059   3.709  14.815 -1.1226 -0.5957 -0.6961
13854TIP3   OH263052   6.317   4.737  12.543  0.5325 -0.2916  0.3556
13854TIP3    H163053   6.329   4.723  12.637 -0.7931 -0.2719  0.5390
13854TIP3    H263054   6.287   4.828  12.537  2.4208  0.3045 -0.2501
13855TIP3   OH263055   4.207   5.887   0.271  0.4980  0.2580 -0.3767
13855TIP3    H163056   4.231   5.917   0.359  0.7884  0.0278 -0.3744
13855TIP3    H263057   4.149   5.812   0.286  0.0141  0.6299 -0.3825
13856TIP3   OH263058   4.544   4.848  16.779 -0.1922  0.2113 -0.2878
13856TIP3    H163059   4.606   4.915  16.807 -0.6922  0.4027  0.3872
13856TIP3    H263060   4.571   4.826  16.690  0.6848  0.4677 -0.0904
13857TIP3   OH263061   2.405   0.065   0.109 -0.1496  0.8712  0.0571
13857TIP3    H163062   2.403   0.152   0.149 -0.1353  2.2283 -2.7216
13857TIP3    H263063   2.497   0.050   0.090 -0.0783 -0.0447  1.1054
13858TIP3   OH263064   1.868   6.709  16.143 -0.3294 -0.2691  0.3220
13858TIP3    H163065   1.947   6.661  16.119 -1.6994 -1.6302 -1.6401
13858TIP3    H263066   1.894   6.801  16.140  1.4471 -0.7270  0.8054
13859TIP3   OH263067   4.150   5.412  12.739  0.6551 -0.5384 -0.3918
13859TIP3    H163068   4.203   5.491  12.746  0.6702 -0.5294 -0.6089
13859TIP3    H263069   4.207   5.349  12.693  1.0528 -1.0357  0.7649
13860TIP3   OH263070   1.062   2.503  12.716 -0.0970 -0.2182  0.2789
13860TIP3    H163071   0.990   2.565  12.712 -0.3024 -0.4848 -0.1255
13860TIP3    H263072   1.024   2.418  12.692  0.5540 -0.1809 -0.9337
13861TIP3   OH263073   0.877   1.631   2.606 -0.3856  0.3750 -0.1602
13861TIP3    H163074   0.812   1.698   2.586  0.6885  1.3203 -0.5024
13861TIP3    H263075   0.960   1.678   2.607  0.4108 -1.0018 -0.6961
13862TIP3   OH263076   4.550   4.100   2.174 -0.1262 -0.0355 -0.6326
13862TIP3    H163077   4.469   4.132   2.132 -1.0277  0.6170  1.5382
13862TIP3    H263078   4.544   4.005   2.166 -1.0048  0.0145 -0.6825
13863TIP3   OH263079   0.879   4.596  10.941 -0.2879  0.3850  0.7081
13863TIP3    H163080   0.835   4.645  11.010 -2.1048  0.3920 -0.4348
13863TIP3    H263081   0.958   4.646  10.923 -0.3954  1.0250  1.9450
13864TIP3   OH263082   0.509   2.051  13.255 -0.0024  0.6555 -0.6889
13864TIP3    H163083   0.542   2.135  13.288 -0.1481  0.1917  0.6694
13864TIP3    H263084   0.414   2.057  13.263 -0.1831  1.4037 -3.1689
13865TIP3   OH263085   0.865   3.830   4.542 -0.3356  0.2504 -0.3243
13865TIP3    H163086   0.782   3.878   4.536 -1.0307 -0.8941 -0.1254
13865TIP3    H263087   0.850   3.750   4.492  1.0713  0.5883 -1.2990
13866TIP3   OH263088   5.913   4.715  11.652  0.2358  0.2469 -0.2279
13866TIP3    H163089   5.891   4.711  11.745  0.0070 -0.4183 -0.3053
13866TIP3    H263090   5.844   4.665  11.609  1.5399 -1.3189 -0.5378
13867TIP3   OH263091   5.224   4.752  16.123  0.4516  0.0972 -0.1160
13867TIP3    H163092   5.302   4.784  16.077  1.1995  0.1383  1.1642
13867TIP3    H263093   5.163   4.728  16.053  2.4323 -2.0012 -1.1779
13868TIP3   OH263094   2.344   5.129  13.699 -0.1067  0.6649 -0.1099
13868TIP3    H163095   2.403   5.124  13.774  0.7481 -0.8015 -0.8455
13868TIP3    H263096   2.287   5.053  13.708  0.0875  0.4032 -1.0046
13869TIP3   OH263097   6.085   5.593  13.303  0.1092 -0.7486 -0.5646
13869TIP3    H163098   6.125   5.551  13.379  0.7954  1.0122  0.0888
13869TIP3    H263099   6.041   5.670  13.339 -0.3030 -0.3778 -1.8406
13870TIP3   OH263100   2.973   4.178  17.140  0.0599 -0.2489 -0.2866
13870TIP3    H163101   3.039   4.111  17.156 -0.8335 -0.4541  2.8670
13870TIP3    H263102   3.024   4.258  17.125  1.0600 -0.7374  0.4580
13871TIP3   OH263103   6.426   1.885   3.354  0.1937  0.2191 -0.0535
13871TIP3    H163104   6.349   1.837   3.327  1.0899 -0.8518 -0.7147
13871TIP3    H263105   6.444   1.854   3.443  0.6629 -0.5433 -0.4107
13872TIP3   OH263106   1.084   2.292   4.299 -0.3604 -0.2506 -0.3630
13872TIP3    H163107   1.049   2.276   4.211  0.3919 -0.4541 -0.6249
13872TIP3    H263108   1.006   2.300   4.354 -0.8300 -0.4927 -0.9827
13873TIP3   OH263109   0.708   3.134  15.249  0.3532  0.1963  0.0505
13873TIP3    H163110   0.717   3.129  15.344 -0.0858  1.8778  0.1903
13873TIP3    H263111   0.620   3.101  15.231 -0.5277  2.2383  0.4746
13874TIP3   OH263112   0.099   4.324   1.120 -0.0534  0.4471 -0.0287
13874TIP3    H163113   0.060   4.241   1.149  1.6847  0.0518  1.2871
13874TIP3    H263114   0.025   4.375   1.089 -0.9964 -2.1436 -2.2474
13875TIP3   OH263115   5.885   3.100  13.081  0.3616 -0.1534  0.3655
13875TIP3    H163116   5.953   3.039  13.052  1.6871  1.5322 -0.1700
13875TIP3    H263117   5.841   3.128  13.001  0.5118  0.4488  0.4888
13876TIP3   OH263118   1.849   4.009  11.667 -0.2547 -0.2789 -0.3156
13876TIP3    H163119   1.820   4.018  11.576 -0.1098  2.8426 -0.1084
13876TIP3    H263120   1.935   4.050  11.668  0.3793 -1.6492  0.9217
13877TIP3   OH263121   5.460   3.082  12.757  0.3270  0.9426  0.5207
13877TIP3    H163122   5.394   3.150  12.765 -1.9058 -1.0385 -0.4958
13877TIP3    H263123   5.430   3.013  12.816  0.6008 -0.6371 -1.1372
13878TIP3   OH263124   2.770   2.245   3.028 -0.3605  0.0898  0.2098
13878TIP3    H163125   2.844   2.189   3.052  0.6453  1.7034  0.9904
13878TIP3    H263126   2.779   2.321   3.085 -2.1082  0.7356 -0.3447
13879TIP3   OH263127   0.399   2.652  16.827  0.1793 -0.0496 -0.5811
13879TIP3    H163128   0.478   2.598  16.820  0.3567  0.1528 -0.1604
13879TIP3    H263129   0.335   2.595  16.870  0.8170  0.5432  1.2023
13880TIP3   OH263130   5.932   2.039   5.114  0.1456 -0.1627  0.0146
13880TIP3    H163131   5.970   1.961   5.153 -0.6253  0.3222  1.8015
13880TIP3    H263132   5.898   2.010   5.030  1.4778 -1.3284 -0.1286
13881TIP3   OH263133   6.137   3.378   4.186 -0.5503 -0.3636 -0.0546
13881TIP3    H163134   6.135   3.364   4.281  0.7034 -0.5397 -0.0467
13881TIP3    H263135   6.058   3.336   4.154 -1.8170  1.0956  1.0915
13882TIP3   OH263136   6.247   5.070  14.221 -0.3216  0.1379  0.6475
13882TIP3    H163137   6.235   5.103  14.311 -0.1137  0.4471  0.5619
13882TIP3    H263138   6.205   5.136  14.166  0.9549  0.7583  0.4070
13883TIP3   OH263139   3.881   4.575   3.222 -0.2116  0.2483 -0.0969
13883TIP3    H163140   3.954   4.521   3.253 -1.5636 -1.5693  0.0088
13883TIP3    H263141   3.865   4.637   3.293  0.2236 -0.3793  0.5545
13884TIP3   OH263142   4.127   6.734   3.799  0.1923 -0.2930 -0.3789
13884TIP3    H163143   4.124   6.803   3.866 -0.0401 -1.2506  0.6113
13884TIP3    H263144   4.036   6.724   3.771  0.2632 -0.0239 -0.7131
13885TIP3   OH263145   5.723   2.081   4.158  0.6560 -0.1440  0.5741
13885TIP3    H163146   5.788   2.035   4.105 -1.4707  1.1131 -3.3308
13885TIP3    H263147   5.765   2.163   4.182  0.7335  0.4275 -1.4624
13886TIP3   OH263148   2.893   0.356  16.280 -0.5325  0.0981 -0.0786
13886TIP3    H163149   2.865   0.442  16.310 -2.2640 -1.1736  1.9996
13886TIP3    H263150   2.953   0.325  16.348 -1.8182 -1.3551  0.4085
13887TIP3   OH263151   3.768   1.261   6.376  0.3731 -0.3337  0.5424
13887TIP3    H163152   3.841   1.230   6.430  0.2570 -0.1648  0.7989
13887TIP3    H263153   3.710   1.186   6.369  0.1705 -0.2243  1.0291
13888TIP3   OH263154   4.952   6.065  13.651  0.0628 -0.0171  0.5577
13888TIP3    H163155   4.920   5.983  13.614 -0.0176  0.2846 -0.0421
13888TIP3    H263156   4.972   6.120  13.575  1.2508  0.0959  0.9411
13889TIP3   OH263157   0.207   1.773  15.609 -0.2531  0.0395 -0.0034
13889TIP3    H163158   0.267   1.847  15.620 -0.4917  0.6136 -2.4121
13889TIP3    H263159   0.125   1.811  15.579 -1.0502 -1.0064  0.7935
13890TIP3   OH263160   5.728   1.046  16.718 -0.7263 -0.2618  0.4519
13890TIP3    H163161   5.634   1.061  16.724 -0.7337 -0.6922  1.5654
13890TIP3    H263162   5.758   1.109  16.653 -1.6356  0.5716  0.8280
13891TIP3   OH263163   4.614   5.031   6.483  0.2089  0.0503  0.0568
13891TIP3    H163164   4.615   5.127   6.477 -0.3006  0.0600  0.0972
13891TIP3    H263165   4.706   5.007   6.492  0.4866  0.4417 -1.5309
13892TIP3   OH263166   3.438   4.498  12.749 -0.4082  0.1163  0.0041
13892TIP3    H163167   3.425   4.562  12.819  1.3506  1.7636 -1.1258
13892TIP3    H263168   3.456   4.551  12.672 -1.4684 -1.6981 -1.5358
13893TIP3   OH263169   1.059   2.791  13.374  0.2724 -0.2993  0.6803
13893TIP3    H163170   0.985   2.822  13.425  0.7829 -0.2401  1.3921
13893TIP3    H263171   1.126   2.769  13.439  1.3778  0.9225 -0.0132
13894TIP3   OH263172   5.222   0.651   5.346 -0.2689  0.5910  0.1975
13894TIP3    H163173   5.208   0.630   5.253 -1.6591  0.6630  0.3691
13894TIP3    H263174   5.316   0.645   5.358 -0.1679 -0.5509 -0.9679
13895TIP3   OH263175   3.569   1.597   4.998  0.0609 -0.1735  0.2849
13895TIP3    H163176   3.520   1.614   5.078 -0.2836 -0.8817  0.2336
13895TIP3    H263177   3.503   1.593   4.929  0.2731 -0.3163  0.0863
13896TIP3   OH263178   2.828   6.243  13.681  0.3433 -0.0337  0.2961
13896TIP3    H163179   2.736   6.267  13.676  0.5035  0.4276 -0.4252
13896TIP3    H263180   2.838   6.169  13.622  0.7810  0.9883 -0.9232
13897TIP3   OH263181   1.312   4.438  11.854  0.2434 -0.0392 -0.1898
13897TIP3    H163182   1.314   4.345  11.832  0.5698 -0.0647 -0.0603
13897TIP3    H263183   1.229   4.470  11.819 -0.2113 -0.5445  0.4247
13898TIP3   OH263184   5.520   4.753   5.405 -0.1726 -0.2720  0.0193
13898TIP3    H163185   5.612   4.778   5.413 -0.1207  0.2278 -1.8261
13898TIP3    H263186   5.478   4.790   5.482  1.1899 -0.6013  0.9358
13899TIP3   OH263187   4.938   2.299   1.488 -0.8352 -0.1117 -0.0064
13899TIP3    H163188   5.008   2.267   1.544 -0.5236  0.1575 -0.2419
13899TIP3    H263189   4.982   2.348   1.419 -1.2423 -0.1048 -0.2655
13900TIP3   OH263190   4.315   2.162   2.450 -0.5743  0.1097  1.2039
13900TIP3    H163191   4.338   2.102   2.379 -2.1001  0.1418  0.6595
13900TIP3    H263192   4.395   2.211   2.467  0.1938 -0.8716  0.4523
13901TIP3   OH263193   0.260   3.485  11.119 -0.1114  0.6413 -0.1822
13901TIP3    H163194   0.300   3.491  11.032  1.5827  0.0240  0.5303
13901TIP3    H263195   0.193   3.418  11.111  1.2408 -0.6733 -0.5812
13902TIP3   OH263196   0.608   2.061  14.889  0.4074 -0.4213 -0.7678
13902TIP3    H163197   0.641   2.150  14.876 -0.2833  0.0315  0.5659
13902TIP3    H263198   0.652   2.029  14.968  1.6248 -1.7523 -1.9390
13903TIP3   OH263199   2.223   6.460   3.500  0.0552  0.2822  0.2903
13903TIP3    H163200   2.160   6.395   3.532  1.3076 -0.6633  0.8623
13903TIP3    H263201   2.308   6.428   3.530  0.7588  1.8413 -0.0037
13904TIP3   OH263202   4.792   2.889  10.720  0.1796  0.9850  0.3316
13904TIP3    H163203   4.858   2.917  10.784  1.9722 -1.3351 -0.4605
13904TIP3    H263204   4.735   2.965  10.711  2.5005  2.9144  1.3262
13905TIP3   OH263205   3.258   6.478   4.505  0.3995  0.0478 -0.3829
13905TIP3    H163206   3.199   6.511   4.572  0.4669 -0.0520 -0.2741
13905TIP3    H263207   3.294   6.557   4.463  0.7106  0.1156  0.0085
13906TIP3   OH263208   1.938   6.732  16.486  0.4050 -0.0770 -0.0359
13906TIP3    H163209   1.848   6.699  16.481  0.1319  0.4197  1.3711
13906TIP3    H263210   1.928   6.827  16.479  0.8080 -0.0167  0.2315
13907TIP3   OH263211   2.812   3.756  15.701 -0.4254  0.2201  0.2226
13907TIP3    H163212   2.844   3.741  15.790 -0.1972 -1.8019 -0.1928
13907TIP3    H263213   2.717   3.745  15.708 -0.5051  0.9492  0.3778
13908TIP3   OH263214   5.292   1.823  14.818 -0.2283  0.2473 -0.2296
13908TIP3    H163215   5.275   1.730  14.805  0.5227 -0.3871  2.9543
13908TIP3    H263216   5.205   1.863  14.822 -0.6773 -0.8718  1.8823
13909TIP3   OH263217   6.418   0.463  16.499 -0.4546 -0.6255 -0.1130
13909TIP3    H163218   6.343   0.505  16.541 -0.7018 -0.9999 -0.1802
13909TIP3    H263219   6.482   0.534  16.488 -0.6823 -0.3689  0.2114
13910TIP3   OH263220   1.577   3.823   0.909  0.1788 -0.1098 -0.1931
13910TIP3    H163221   1.589   3.812   1.004  0.2482  0.1982 -0.1668
13910TIP3    H263222   1.631   3.899   0.887 -1.1669  0.8406 -0.2081
13911TIP3   OH263223   0.605   1.445  12.323  0.0153 -0.5604  0.3891
13911TIP3    H163224   0.538   1.480  12.265  0.5315  0.8331  0.6122
13911TIP3    H263225   0.676   1.417  12.265 -0.5284 -1.5261  0.1883
13912TIP3   OH263226   6.466   6.232   6.758 -0.1220  0.3560  0.1364
13912TIP3    H163227   6.373   6.250   6.746 -0.1100  1.8734  2.1101
13912TIP3    H263228   6.469   6.140   6.785 -0.9304 -0.0436 -1.0738
13913TIP3   OH263229   1.624   1.094  16.638 -0.3551  0.0301  0.4076
13913TIP3    H163230   1.558   1.118  16.703  0.1436 -0.7613  1.2223
13913TIP3    H263231   1.689   1.164  16.643 -0.5231  0.1845  0.4569
13914TIP3   OH263232   6.507   4.941  16.248 -0.6456  0.4706  0.2242
13914TIP3    H163233   6.552   4.870  16.203 -1.2146 -0.8832  1.7421
13914TIP3    H263234   6.544   4.942  16.336 -1.9928  0.7858  0.8115
13915TIP3   OH263235   0.176   4.875   3.501  0.2732  0.6873 -0.5519
13915TIP3    H163236   0.260   4.918   3.515  0.4363  0.4771 -0.8645
13915TIP3    H263237   0.141   4.916   3.422 -0.8290  2.1550  0.6737
13916TIP3   OH263238   0.117   1.130   2.895  0.1136 -0.2605 -0.2683
13916TIP3    H163239   0.157   1.069   2.833  0.1761  0.0181 -0.5024
13916TIP3    H263240   0.132   1.216   2.857  2.1645  0.1045  1.2824
13917TIP3   OH263241   1.599   3.250  13.178  0.2937  0.1971 -0.3269
13917TIP3    H163242   1.618   3.341  13.158  0.8204  0.7242  2.3691
13917TIP3    H263243   1.553   3.253  13.261  0.3796 -2.0068 -0.1698
13918TIP3   OH263244   2.688   5.883   4.303 -0.3934 -0.1596 -0.2716
13918TIP3    H163245   2.687   5.964   4.251 -0.5013  0.8081  1.2175
13918TIP3    H263246   2.779   5.853   4.299 -0.3630  0.0068 -0.8617
13919TIP3   OH263247   1.496   6.211   4.594  0.2124  0.2240  0.0966
13919TIP3    H163248   1.427   6.146   4.581  1.1778 -0.7926 -0.0238
13919TIP3    H263249   1.474   6.282   4.535 -0.8566  0.0053  0.2273
13920TIP3   OH263250   4.993   6.408  14.540 -0.1757  0.1956 -0.7026
13920TIP3    H163251   5.072   6.359  14.564 -0.5347  0.6058  1.4487
13920TIP3    H263252   4.924   6.342  14.536  0.2379 -0.1450 -2.4615
13921TIP3   OH263253   4.321   1.201   2.062 -0.0147 -0.2123 -0.5250
13921TIP3    H163254   4.381   1.232   2.130  0.6967 -2.0202 -0.2978
13921TIP3    H263255   4.360   1.232   1.980 -0.0284  0.6283 -0.2139
13922TIP3   OH263256   4.178   0.141  13.458 -0.2638  0.2050  0.1039
13922TIP3    H163257   4.211   0.161  13.371  0.9484  1.6566  0.8847
13922TIP3    H263258   4.105   0.201  13.471 -2.0722 -1.7129 -0.8683
13923TIP3   OH263259   4.819   4.583  12.956 -0.1039 -0.5774  0.0399
13923TIP3    H163260   4.737   4.548  12.991 -0.5568 -0.0998 -0.5218
13923TIP3    H263261   4.868   4.506  12.928  0.0924 -0.9342  1.3376
13924TIP3   OH263262   2.281   2.409  10.491 -0.1029 -0.5695  0.1776
13924TIP3    H163263   2.367   2.440  10.462 -0.2730 -0.2434  0.0246
13924TIP3    H263264   2.218   2.467  10.448 -0.2782  2.1315  3.7912
13925TIP3   OH263265   3.909   2.872   5.416  0.2902 -0.0952 -0.2338
13925TIP3    H163266   3.863   2.914   5.488  0.9807 -0.9694  0.7356
13925TIP3    H263267   3.872   2.783   5.413  0.6958 -0.2550 -0.5566
13926TIP3   OH263268   5.068   5.567  16.013 -0.8766  0.0821 -0.1648
13926TIP3    H163269   5.064   5.480  16.053 -1.2270 -0.5642 -1.5397
13926TIP3    H263270   5.159   5.576  15.984 -0.6705  0.4665  0.5958
13927TIP3   OH263271   1.445   2.181  12.629  0.1172  0.1226  0.6388
13927TIP3    H163272   1.402   2.124  12.565 -0.6434  0.5172  0.7870
13927TIP3    H263273   1.495   2.121  12.685 -0.1572 -0.3378  0.3953
13928TIP3   OH263274   2.303   0.612  16.696 -0.2589  0.5555  0.6641
13928TIP3    H163275   2.319   0.544  16.761  0.0513 -0.4355 -0.4478
13928TIP3    H263276   2.209   0.606  16.678  0.3129 -1.6661 -1.7287
13929TIP3   OH263277   4.823   1.303   6.368  0.0685 -0.7563  0.0666
13929TIP3    H163278   4.895   1.366   6.364  0.2029 -0.6917  2.6085
13929TIP3    H263279   4.866   1.218   6.378 -0.1651 -0.7938  0.8343
13930TIP3   OH263280   5.539   4.359   3.384 -0.1382 -0.0958  0.0538
13930TIP3    H163281   5.529   4.410   3.304  0.1613  1.1840  0.8064
13930TIP3    H263282   5.465   4.299   3.384  0.2740 -0.6230 -1.5415
13931TIP3   OH263283   4.853   2.078  16.965  0.1398  0.4796 -0.7282
13931TIP3    H163284   4.824   2.149  17.022  1.2266  1.2028 -1.0547
13931TIP3    H263285   4.842   2.113  16.877 -1.9953 -0.8097 -1.0051
13932TIP3   OH263286   4.767   5.925   4.498 -0.1511 -1.2241  0.1130
13932TIP3    H163287   4.765   5.901   4.591  0.9599 -0.4470  0.3547
13932TIP3    H263288   4.678   5.955   4.479 -0.4150 -1.4932  0.8921
13933TIP3   OH263289   2.465   5.291   0.729  0.4423 -0.0167  0.8193
13933TIP3    H163290   2.542   5.312   0.782  0.6676  0.9491  0.1176
13933TIP3    H263291   2.446   5.200   0.750  1.0090  0.1162  1.9674
13934TIP3   OH263292   1.120   0.538  15.574 -0.0753  0.4451  0.0121
13934TIP3    H163293   1.174   0.467  15.540  0.8607  1.0832  0.1473
13934TIP3    H263294   1.182   0.605  15.601 -0.6630 -0.3895  3.9082
13935TIP3   OH263295   1.949   1.270   3.665 -0.1319 -0.0872 -0.6902
13935TIP3    H163296   1.915   1.347   3.619 -0.2848 -1.9103 -3.7710
13935TIP3    H263297   2.044   1.283   3.666 -0.3771  2.2174  2.8033
13936TIP3   OH263298   5.259   1.252   0.808  0.2203 -0.1332  0.2469
13936TIP3    H163299   5.328   1.264   0.872  0.3409 -0.5207  0.1907
13936TIP3    H263300   5.304   1.253   0.723  0.2249 -0.9023  0.2373
13937TIP3   OH263301   5.559   2.512   1.636  0.5416  0.3873  0.4102
13937TIP3    H163302   5.473   2.552   1.620  0.7047  0.6478  0.1922
13937TIP3    H263303   5.541   2.442   1.699  0.5745  2.1131  2.3858
13938TIP3   OH263304   3.276   0.590  16.786  0.2770  0.3327  0.1205
13938TIP3    H163305   3.186   0.613  16.811  0.2976  0.8326 -0.2570
13938TIP3    H263306   3.322   0.674  16.785  0.1323  0.4272 -2.1992
13939TIP3   OH263307   6.120   6.599   4.543 -0.1089  0.1450 -0.4167
13939TIP3    H163308   6.194   6.540   4.526  0.1045  0.6406 -1.2648
13939TIP3    H263309   6.057   6.545   4.590  0.4729 -0.5045 -0.3632
13940TIP3   OH263310   4.663   1.901  13.321  0.6738  0.0056 -0.0389
13940TIP3    H163311   4.680   1.808  13.306  2.4806  0.5187 -1.3021
13940TIP3    H263312   4.600   1.903  13.393  0.3608 -2.2024 -0.2294
13941TIP3   OH263313   4.209   5.530  15.088 -0.1221 -0.5953 -0.0981
13941TIP3    H163314   4.193   5.611  15.135 -2.7355 -1.4175  0.4657
13941TIP3    H263315   4.207   5.462  15.155  1.6692 -1.2128 -0.6214
13942TIP3   OH263316   5.628   2.805  13.825 -0.6293  0.7599  0.2012
13942TIP3    H163317   5.722   2.824  13.835 -0.4533  0.5097 -0.9364
13942TIP3    H263318   5.588   2.891  13.813 -0.5463  0.8642  0.6450
13943TIP3   OH263319   1.001   4.784  16.662  0.4115  0.0269  0.2679
13943TIP3    H163320   1.004   4.701  16.615 -2.4562 -1.1111  1.9342
13943TIP3    H263321   1.051   4.768  16.742  1.2719  0.4573 -0.1776
13944TIP3   OH263322   4.385   5.668   4.985  0.3503 -0.2969 -0.2579
13944TIP3    H163323   4.450   5.687   4.917  0.4048  1.5250  0.2768
13944TIP3    H263324   4.305   5.711   4.954  0.9822  2.6093  1.8996
13945TIP3   OH263325   2.285   6.288   1.120  0.1926 -0.5296  0.0291
13945TIP3    H163326   2.264   6.356   1.183 -0.8209 -0.0251 -0.8374
13945TIP3    H263327   2.206   6.234   1.115  0.9432 -1.7020  0.6160
13946TIP3   OH263328   3.677   2.109   0.103 -0.7590  0.6848  0.4342
13946TIP3    H163329   3.625   2.148   0.033 -0.8539  0.8037  0.5700
13946TIP3    H263330   3.639   2.143   0.183  0.0887  1.4753  0.5143
13947TIP3   OH263331   1.651   6.065  13.987  0.0125  0.7090  0.3464
13947TIP3    H163332   1.645   6.159  13.999  0.3404  0.7634  0.0960
13947TIP3    H263333   1.571   6.030  14.027  0.6964  0.9521  1.9758
13948TIP3   OH263334   3.295   1.177   1.931  0.1328  0.6966  0.0213
13948TIP3    H163335   3.209   1.219   1.924  1.0250  2.8293  1.3209
13948TIP3    H263336   3.281   1.102   1.989 -1.0044  0.5208 -0.4666
13949TIP3   OH263337   6.723   1.922   1.842 -0.4820  0.1776 -0.0001
13949TIP3    H163338   6.759   1.995   1.892 -0.1315 -0.9193  1.3922
13949TIP3    H263339   6.632   1.915   1.872  0.2927 -1.7536  2.0299
13950TIP3   OH263340   3.663   4.077  14.899 -0.5158 -0.2629 -0.0849
13950TIP3    H163341   3.661   4.119  14.813  0.3443  1.3134  0.6340
13950TIP3    H263342   3.737   4.017  14.895  1.2658  1.8222  0.4137
13951TIP3   OH263343   5.163   1.910  17.043  0.0910  0.1251  0.1733
13951TIP3    H163344   5.107   1.889  17.118  0.0740  0.3784  0.2300
13951TIP3    H263345   5.212   1.829  17.028 -0.0460  0.0105  0.3350
13952TIP3   OH263346   0.236   3.280  12.234 -0.4139 -0.0472  0.3224
13952TIP3    H163347   0.148   3.251  12.259 -0.6796 -0.4864 -1.0369
13952TIP3    H263348   0.255   3.230  12.154  0.5208  1.0324 -0.1420
13953TIP3   OH263349   5.493   3.628  15.784  0.3802  0.4735 -0.1323
13953TIP3    H163350   5.586   3.630  15.766  0.5047 -2.4759 -0.0735
13953TIP3    H263351   5.451   3.661  15.705  1.3763 -0.8629 -1.2241
13954TIP3   OH263352   4.944   4.827   5.932 -0.4857  0.2996 -0.4860
13954TIP3    H163353   4.993   4.845   6.012 -0.4779 -0.0824 -0.4054
13954TIP3    H263354   4.997   4.762   5.886 -2.0654 -1.8937  0.6978
13955TIP3   OH263355   3.294   4.619   2.461  0.0743  0.0355  0.2320
13955TIP3    H163356   3.272   4.695   2.406 -2.4010 -1.7363 -1.3422
13955TIP3    H263357   3.353   4.567   2.407 -0.7430 -0.7005  0.0356
13956TIP3   OH263358   1.060   6.275  14.839 -0.4218 -0.4119 -0.3991
13956TIP3    H163359   1.073   6.362  14.801 -1.7386 -0.1907 -0.3535
13956TIP3    H263360   1.139   6.259  14.890 -0.1861  0.7655 -0.3882
13957TIP3   OH263361   0.344   2.136  11.189 -0.0392 -0.5699 -0.6064
13957TIP3    H163362   0.411   2.091  11.139 -1.2322 -1.7623 -1.1664
13957TIP3    H263363   0.388   2.162  11.270  1.6313  0.4935 -1.8358
13958TIP3   OH263364   3.301   5.898   5.542  0.3948 -0.0751 -0.3644
13958TIP3    H163365   3.302   5.811   5.583  0.6553  0.8994  1.7822
13958TIP3    H263366   3.247   5.951   5.600  1.8685  1.6972 -0.5777
13959TIP3   OH263367   6.197   1.556   0.997  0.1459  0.0067 -0.0633
13959TIP3    H163368   6.290   1.570   1.017  0.4036 -1.5664 -0.0599
13959TIP3    H263369   6.192   1.560   0.901  0.1952  0.1789 -0.0592
13960TIP3   OH263370   4.663   1.899   2.133 -0.3783  0.5755 -0.0046
13960TIP3    H163371   4.580   1.901   2.085  0.0911  1.5110 -0.7913
13960TIP3    H263372   4.722   1.846   2.079 -0.4002  0.0632  0.4644
13961TIP3   OH263373   5.690   4.572   2.152  0.2794 -0.4341 -0.4089
13961TIP3    H163374   5.596   4.585   2.149  0.1136 -1.7237 -1.1952
13961TIP3    H263375   5.709   4.558   2.245 -0.5728 -2.0102 -0.4570
13962TIP3   OH263376   5.286   5.699   0.869 -0.0010  0.2767  0.3489
13962TIP3    H163377   5.243   5.762   0.811  0.5515  0.7502  0.4567
13962TIP3    H263378   5.260   5.614   0.834 -0.0856  0.5637 -0.2913
13963TIP3   OH263379   4.053   0.721  15.101 -0.0240 -0.2579  0.0609
13963TIP3    H163380   3.967   0.761  15.113  1.1309  1.8527  1.6805
13963TIP3    H263381   4.073   0.681  15.186  1.2247  0.5720  0.1705
13964TIP3   OH263382   1.889   4.426   3.785 -0.2103 -0.0232  0.0119
13964TIP3    H163383   1.918   4.361   3.849 -0.1059  1.6341  1.7102
13964TIP3    H263384   1.924   4.396   3.702 -1.4712 -2.9545  0.4844
13965TIP3   OH263385   0.490   2.384   0.059 -0.3872 -1.1881 -0.2331
13965TIP3    H163386   0.472   2.290   0.066  0.9404 -1.5270 -1.0619
13965TIP3    H263387   0.533   2.394  -0.026  1.4319 -0.1785  0.7622
13966TIP3   OH263388   1.449   0.687   4.349  0.1826 -0.1914 -0.3919
13966TIP3    H163389   1.453   0.605   4.301  0.1132 -0.1214 -0.5197
13966TIP3    H263390   1.404   0.666   4.431  1.8988 -0.6962  0.4521
13967TIP3   OH263391   3.046   3.682   3.848  0.3812  0.2866 -0.1146
13967TIP3    H163392   3.028   3.721   3.933 -0.4763 -1.3113  0.4565
13967TIP3    H263393   3.002   3.597   3.850  2.4129 -0.8395 -1.2105
13968TIP3   OH263394   2.164   0.990  11.403 -0.0636  0.5265 -0.3421
13968TIP3    H163395   2.155   1.047  11.480  0.2042  1.1850 -0.7864
13968TIP3    H263396   2.109   0.914  11.422 -2.0758  1.8761 -0.6158
13969TIP3   OH263397   5.110   3.883   3.146 -0.2810  0.5904  0.3332
13969TIP3    H163398   5.173   3.863   3.215 -0.8325  0.5509  0.8340
13969TIP3    H263399   5.057   3.804   3.139  0.0701  0.4274 -0.4639
13970TIP3   OH263400   1.037   3.604  14.522 -0.0658 -0.3869 -0.3055
13970TIP3    H163401   1.008   3.547  14.451 -0.8761 -0.1784 -0.1413
13970TIP3    H263402   1.027   3.551  14.601  1.3333 -0.8057 -0.3882
13971TIP3   OH263403   5.004   0.909  11.232 -0.3564  0.0427 -0.4774
13971TIP3    H163404   4.966   0.866  11.156 -0.1827 -0.2689 -0.3844
13971TIP3    H263405   4.991   1.003  11.215 -0.4670 -0.0332 -0.8091
13972TIP3   OH263406   1.051   6.818   0.703 -0.0616  0.4556 -0.2343
13972TIP3    H163407   0.964   6.857   0.713 -0.7679 -1.0982 -0.2007
13972TIP3    H263408   1.077   6.840   0.614 -0.5339  0.8637 -0.2713
13973TIP3   OH263409   0.514   1.107  13.493  0.5979  0.2748 -0.1431
13973TIP3    H163410   0.543   1.141  13.408 -0.7132 -0.5922 -0.9657
13973TIP3    H263411   0.580   1.138  13.555  0.3914  2.7912 -1.1136
13974TIP3   OH263412   6.234   0.083   3.452 -0.3977  0.4373  0.1151
13974TIP3    H163413   6.289   0.070   3.529  0.3050 -0.7667 -0.5653
13974TIP3    H263414   6.293   0.121   3.387 -0.8387  0.8954 -0.0184
13975TIP3   OH263415   2.924   0.411  15.617  0.9139  0.3644  0.4263
13975TIP3    H163416   3.009   0.431  15.579  0.3914 -0.7813 -1.4238
13975TIP3    H263417   2.881   0.497  15.624  0.9262  0.6016 -1.8915
13976TIP3   OH263418   3.633   3.632   5.160  0.6863 -0.4621  0.6393
13976TIP3    H163419   3.641   3.719   5.198  3.1301 -0.3431 -0.1188
13976TIP3    H263420   3.656   3.643   5.067  1.2281 -1.9325  0.5784
13977TIP3   OH263421   0.841   0.415  12.579 -0.0578  0.3122 -0.2108
13977TIP3    H163422   0.912   0.468  12.544 -0.9648  0.7157 -1.4727
13977TIP3    H263423   0.764   0.472  12.576 -0.3817 -0.0037  1.4618
13978TIP3   OH263424   0.433   5.754   4.542 -0.6381  0.7805 -0.2295
13978TIP3    H163425   0.491   5.782   4.472 -0.0873  1.9590  0.6834
13978TIP3    H263426   0.485   5.694   4.595 -0.7004  0.7427 -0.2109
13979TIP3   OH263427   6.558   3.989   4.171 -0.0029 -0.0649  0.4466
13979TIP3    H163428   6.518   4.020   4.089  0.1040 -1.0034  0.0374
13979TIP3    H263429   6.568   4.068   4.224 -0.5800  0.4699 -0.2312
13980TIP3   OH263430   5.329   0.983  11.534 -0.0814 -0.8948  0.4008
13980TIP3    H163431   5.235   0.997  11.524  0.0985 -0.0327 -0.1427
13980TIP3    H263432   5.344   0.894  11.503 -0.3089 -0.0584 -2.2079
13981TIP3   OH263433   2.292   3.540   5.429  0.4224  0.4553 -0.3740
13981TIP3    H163434   2.313   3.626   5.466  1.5928  0.1149 -0.2026
13981TIP3    H263435   2.374   3.512   5.388 -0.1551 -0.2733 -1.0385
13982TIP3   OH263436   4.723   2.671   5.815 -0.0600 -0.0330  0.4740
13982TIP3    H163437   4.700   2.748   5.763 -0.5829  0.4406  1.3887
13982TIP3    H263438   4.813   2.689   5.844  0.2212 -0.2837 -0.2254
13983TIP3   OH263439   4.739   1.430  15.303  0.3784 -0.2861 -0.1479
13983TIP3    H163440   4.666   1.383  15.265 -0.0678 -1.1451  1.6904
13983TIP3    H263441   4.724   1.521  15.279 -1.1279 -0.5002 -0.0737
13984TIP3   OH263442   5.699   2.676   6.108  0.1859 -0.4931 -0.3153
13984TIP3    H163443   5.730   2.681   6.018  0.2717 -1.9867 -0.3918
13984TIP3    H263444   5.747   2.744   6.154  1.0529 -0.5353 -1.1453
13985TIP3   OH263445   2.190   3.069  16.211  0.1257 -0.0327 -0.2547
13985TIP3    H163446   2.205   3.036  16.300  2.2236 -0.0438 -0.6127
13985TIP3    H263447   2.164   3.160  16.223  0.5964  0.0211  0.3545
13986TIP3   OH263448   0.476   1.872   0.431  0.4382 -0.1388 -0.0328
13986TIP3    H163449   0.526   1.853   0.351 -0.4191  0.1388 -0.6440
13986TIP3    H263450   0.393   1.906   0.399 -0.0079 -0.2661  0.9875
13987TIP3   OH263451   4.223   4.193  13.971 -0.0730 -0.4792  0.2582
13987TIP3    H163452   4.198   4.218  14.060  0.0118 -0.5978  0.3164
13987TIP3    H263453   4.163   4.241  13.914  1.0876  1.0949  0.3068
13988TIP3   OH263454   5.781   4.918  14.790  0.1457  0.1823  0.3573
13988TIP3    H163455   5.840   4.868  14.846  0.7733  1.3405  0.7480
13988TIP3    H263456   5.693   4.896  14.822  0.3642 -1.4656 -0.1690
13989TIP3   OH263457   3.557   1.630  16.073  0.3418 -0.1750 -0.2012
13989TIP3    H163458   3.549   1.560  16.139  0.6243  2.4697  2.7533
13989TIP3    H263459   3.650   1.632  16.053  0.2218 -1.1568 -0.9050
13990TIP3   OH263460   0.132   1.960   6.065  0.2343  0.4770  0.1424
13990TIP3    H163461   0.183   2.008   6.129  1.8589  0.6029 -1.2076
13990TIP3    H263462   0.069   2.024   6.031 -0.2444  0.5610  1.1844
13991TIP3   OH263463   3.820   6.097  11.943  0.0690  0.1744 -0.2353
13991TIP3    H163464   3.782   6.184  11.936  2.0555  1.0380 -0.5548
13991TIP3    H263465   3.831   6.083  12.037 -0.5380  0.1365 -0.1695
13992TIP3   OH263466   0.748   4.835   1.643 -0.2285  0.0938 -0.8311
13992TIP3    H163467   0.690   4.764   1.616 -1.7608  1.0898 -0.2193
13992TIP3    H263468   0.717   4.912   1.595  0.4977  0.6734 -0.3875
13993TIP3   OH263469   2.300   2.044  11.092  0.5600 -0.0839  0.0495
13993TIP3    H163470   2.325   1.972  11.034  0.2713 -0.2427  0.1240
13993TIP3    H263471   2.205   2.042  11.094  0.5630  0.0526  0.3671
13994TIP3   OH263472   6.521   3.296  13.994  0.0687 -0.1410 -0.1127
13994TIP3    H163473   6.428   3.316  13.979  0.4548  2.1960  0.4768
13994TIP3    H263474   6.568   3.366  13.950  1.5478 -0.6939  0.5670
13995TIP3   OH263475   1.271   0.209   5.759 -0.2194 -0.7977 -0.0545
13995TIP3    H163476   1.366   0.214   5.774 -0.3670  0.4664  0.5222
13995TIP3    H263477   1.236   0.168   5.838 -0.4350  1.2024  0.9187
13996TIP3   OH263478   5.814   2.594   1.622 -0.8867 -0.2306 -0.7734
13996TIP3    H163479   5.727   2.554   1.632 -1.2305  0.7842  0.3385
13996TIP3    H263480   5.865   2.559   1.695 -0.7662  0.2536 -0.6259
13997TIP3   OH263481   4.676   0.920   3.863  0.0854 -0.2794 -0.0906
13997TIP3    H163482   4.718   0.999   3.898  2.1569 -1.0329 -0.7779
13997TIP3    H263483   4.591   0.916   3.907  0.0560  2.1916  0.1265
13998TIP3   OH263484   6.555   2.346   0.710 -0.1608  0.3270 -0.3987
13998TIP3    H163485   6.536   2.270   0.765 -1.0798  0.2299 -0.8252
13998TIP3    H263486   6.645   2.333   0.681 -0.0497 -0.2012  0.1666
13999TIP3   OH263487   3.598   3.003  16.360 -0.2362 -0.3565 -0.4563
13999TIP3    H163488   3.652   2.935  16.399  0.8573 -0.9382 -2.8720
13999TIP3    H263489   3.508   2.978  16.384  0.3094 -1.3303  0.6415
14000TIP3   OH263490   3.482   6.083   4.524  0.3187 -0.4283 -0.0880
14000TIP3    H163491   3.452   6.144   4.591 -0.4995 -0.2536 -0.6079
14000TIP3    H263492   3.447   6.118   4.442  0.4043 -1.2286 -0.4741
14001TIP3   OH263493   2.908   1.800   2.843  0.1779 -0.0822 -0.3101
14001TIP3    H163494   2.893   1.711   2.878  1.5851 -0.7083 -1.2743
14001TIP3    H263495   2.994   1.795   2.802 -0.1699  1.4753 -1.2432
14002TIP3   OH263496   5.846   1.381   3.297 -0.0704  0.2818 -0.3980
14002TIP3    H163497   5.758   1.379   3.337 -0.1990 -0.2691 -0.7008
14002TIP3    H263498   5.897   1.321   3.351 -0.4479 -1.0669 -1.5289
14003TIP3   OH263499   4.416   5.377  14.062 -0.0196 -0.7196  0.3009
14003TIP3    H163500   4.356   5.303  14.075 -0.9256 -0.0790 -0.1619
14003TIP3    H263501   4.361   5.447  14.026  1.1444 -0.3500 -0.8340
14004TIP3   OH263502   6.192   4.045  12.868  0.0551  0.0750  0.0329
14004TIP3    H163503   6.225   3.982  12.804 -2.2487  1.5566 -2.6873
14004TIP3    H263504   6.187   4.128  12.820 -1.9648  1.1769  2.0491
14005TIP3   OH263505   0.976   3.758  13.662  0.2332  0.1538  0.2771
14005TIP3    H163506   0.898   3.765  13.717 -1.2221  0.9114 -1.8083
14005TIP3    H263507   1.020   3.679  13.694 -2.0227 -0.9953  0.7291
14006TIP3   OH263508   2.170   6.023   1.010  0.1113  0.0339 -0.0708
14006TIP3    H163509   2.191   5.958   1.077 -0.8043 -0.0856  0.1191
14006TIP3    H263510   2.082   6.053   1.034 -1.1636 -1.6191 -2.4522
14007TIP3   OH263511   4.305   2.068  15.517 -0.1191 -0.7047  0.0566
14007TIP3    H163512   4.240   2.019  15.568 -1.1439 -0.4587 -0.9931
14007TIP3    H263513   4.322   2.013  15.441  0.1052 -0.2839 -0.1982
14008TIP3   OH263514   2.193   1.361   3.733  0.2245  0.6396 -0.1463
14008TIP3    H163515   2.177   1.388   3.824  0.9013 -0.3180  0.2613
14008TIP3    H263516   2.230   1.438   3.691  1.2778  0.6436  0.7706
14009TIP3   OH263517   1.323   1.885  16.799 -0.7002  0.4561 -1.0852
14009TIP3    H163518   1.236   1.855  16.774 -0.3271  0.1527 -2.0226
14009TIP3    H263519   1.363   1.913  16.717  0.9712 -1.6380 -1.0081
14010TIP3   OH263520   6.471   2.357  16.641 -0.2386 -0.1635  0.1820
14010TIP3    H163521   6.507   2.367  16.553 -2.4329  0.8669 -0.6298
14010TIP3    H263522   6.504   2.432  16.690 -0.2013  0.0525 -0.1752
14011TIP3   OH263523   5.500   1.886  13.116  1.1490  0.4449 -0.0392
14011TIP3    H163524   5.545   1.950  13.060  1.5802  0.0248 -0.1785
14011TIP3    H263525   5.486   1.933  13.199 -2.3458  2.1299 -1.5178
14012TIP3   OH263526   4.629   1.362   4.375  0.1188 -0.1127 -0.5159
14012TIP3    H163527   4.546   1.314   4.366  0.1039 -0.2517  0.2983
14012TIP3    H263528   4.615   1.420   4.450 -0.5340  2.6040 -2.6629
14013TIP3   OH263529   4.897   2.235  15.895  0.6153  0.0650  0.3651
14013TIP3    H163530   4.954   2.159  15.911  1.6204  0.8638  0.5885
14013TIP3    H263531   4.925   2.268  15.810  0.4405  0.4284  0.4519
14014TIP3   OH263532   1.114   5.918  14.391  0.0595 -0.2124 -0.0545
14014TIP3    H163533   1.139   5.957  14.475  1.4580 -1.6898  0.2335
14014TIP3    H263534   1.195   5.882  14.356 -0.2053  1.6908 -2.7848
14015TIP3   OH263535   1.269   3.117   3.475 -0.0921  0.8418  0.2201
14015TIP3    H163536   1.356   3.150   3.497  0.3524 -1.0510  1.4178
14015TIP3    H263537   1.268   3.114   3.379  1.6209 -0.2883  0.2199
14016TIP3   OH263538   5.298   5.324  13.109 -0.1071  0.4152 -0.4076
14016TIP3    H163539   5.285   5.248  13.166  0.5966  0.8181  0.3118
14016TIP3    H263540   5.215   5.371  13.113 -0.1786  0.2626  0.0207
14017TIP3   OH263541   3.184   1.435   5.693 -0.5655  0.2617  0.3918
14017TIP3    H163542   3.179   1.529   5.672 -0.8119 -0.1157 -1.2653
14017TIP3    H263543   3.101   1.416   5.735 -0.8244  0.6352  0.0607
14018TIP3   OH263544   0.463   0.412  14.177  0.4496  0.2756 -0.2996
14018TIP3    H163545   0.526   0.471  14.135  0.6970  0.0563 -0.2357
14018TIP3    H263546   0.505   0.326  14.175 -0.2455 -0.0478 -1.1089
14019TIP3   OH263547   1.497   1.717   5.558  0.2272 -0.3087  0.1875
14019TIP3    H163548   1.431   1.698   5.491  0.7144 -1.2724 -0.0200
14019TIP3    H263549   1.488   1.811   5.573 -0.9677 -0.3608 -0.0818
14020TIP3   OH263550   6.220   3.988   1.614 -0.3408  0.2751 -0.0280
14020TIP3    H163551   6.232   3.950   1.527  0.0880 -0.2804  0.2721
14020TIP3    H263552   6.207   3.913   1.672  0.5354  0.5775  0.5696
14021TIP3   OH263553   3.598   4.106   5.109  0.2229  0.0458  0.1859
14021TIP3    H163554   3.534   4.176   5.123  0.4964  0.2427  0.4834
14021TIP3    H263555   3.671   4.149   5.064  0.6085  0.0724  0.8204
14022TIP3   OH263556   1.037   1.063  16.192  0.1429  0.1778  0.4598
14022TIP3    H163557   1.131   1.055  16.206  0.1292 -1.2254 -0.1806
14022TIP3    H263558   0.998   1.008  16.260 -0.1700 -0.2041 -0.0213
14023TIP3   OH263559   1.507   5.485  12.295 -0.1848 -0.1531 -0.5258
14023TIP3    H163560   1.475   5.445  12.376  0.0755  0.8450  0.0822
14023TIP3    H263561   1.600   5.501  12.311  0.2755 -1.5651 -1.6855
14024TIP3   OH263562   4.210   6.384   4.432  0.4089 -0.2900  0.4326
14024TIP3    H163563   4.169   6.464   4.400  0.4292 -0.1987  0.6410
14024TIP3    H263564   4.156   6.313   4.395  1.0145 -0.2102 -0.6405
14025TIP3   OH263565   0.369   0.040   2.471 -0.1379  0.2047 -0.2168
14025TIP3    H163566   0.330   0.116   2.427 -0.1558  1.3771  1.7454
14025TIP3    H263567   0.463   0.056   2.467  0.3865 -3.0785 -5.7659
14026TIP3   OH263568   1.698   4.739  13.356  0.3924  0.0976  0.6128
14026TIP3    H163569   1.705   4.643  13.361 -0.6495 -0.0730 -0.7597
14026TIP3    H263570   1.611   4.758  13.393 -1.1765  0.1062 -2.8830
14027TIP3   OH263571   6.491   4.997   1.434  0.1223 -0.1775  0.2997
14027TIP3    H163572   6.541   4.926   1.473  1.8978  1.0728  0.3521
14027TIP3    H263573   6.484   5.062   1.504  0.0812  0.4773 -0.3101
14028TIP3   OH263574   4.810   1.833  15.683  0.0885 -0.1745 -0.2874
14028TIP3    H163575   4.780   1.840  15.773 -0.2851 -0.4485 -0.3915
14028TIP3    H263576   4.801   1.922  15.648 -1.2661 -0.4028 -0.5281
14029TIP3   OH263577   5.057   6.477   5.257 -0.6348 -0.5039 -0.1458
14029TIP3    H163578   4.993   6.406   5.245 -0.6799 -0.5576  0.4105
14029TIP3    H263579   5.013   6.539   5.315 -0.0745 -0.6810  0.4690
14030TIP3   OH263580   5.111   0.399  17.034  0.1351  0.0753  0.2144
14030TIP3    H163581   5.054   0.465  16.994 -0.4398 -0.0137  0.8682
14030TIP3    H263582   5.180   0.450  17.076  0.2265  0.2143 -0.1031
14031TIP3   OH263583   4.295   5.697  14.358  0.3070  0.3632  0.2518
14031TIP3    H163584   4.277   5.752  14.282 -1.1874 -0.7068 -0.2032
14031TIP3    H263585   4.270   5.609  14.330  1.6236 -0.3675  1.3264
14032TIP3   OH263586   1.245   1.001  14.442  0.5054 -0.0404 -0.1134
14032TIP3    H163587   1.199   1.036  14.366  2.6853  0.7951 -1.0710
14032TIP3    H263588   1.293   1.076  14.478  1.6909 -1.0409  0.4340
14033TIP3   OH263589   3.467   0.313   6.244 -0.5574 -0.6123 -0.2448
14033TIP3    H163590   3.421   0.256   6.305  0.5211 -1.6391 -0.3768
14033TIP3    H263591   3.402   0.334   6.177 -1.0540 -1.3893 -0.0049
14034TIP3   OH263592   3.834   6.744  11.496  0.3773 -0.0465  0.7182
14034TIP3    H163593   3.748   6.782  11.478  1.2394  0.6295 -2.1474
14034TIP3    H263594   3.830   6.657  11.457  0.9064 -0.1302  0.8486
14035TIP3   OH263595   2.120   4.303  16.184 -0.0681 -0.0361 -0.5166
14035TIP3    H163596   2.190   4.259  16.136  0.2175 -1.0659  0.8136
14035TIP3    H263597   2.042   4.290  16.131  0.5934  0.4524 -1.6206
14036TIP3   OH263598   6.235   4.193   1.150 -0.0063 -0.2912 -0.2600
14036TIP3    H163599   6.304   4.166   1.089 -0.1199  0.1131 -0.5690
14036TIP3    H263600   6.154   4.180   1.101 -0.2058 -1.5398  0.3876
14037TIP3   OH263601   1.446   2.253  14.066  0.1247  0.2771 -0.2519
14037TIP3    H163602   1.538   2.235  14.084  0.6160  2.1935 -0.6600
14037TIP3    H263603   1.411   2.170  14.034  1.6881 -0.4883 -0.0484
14038TIP3   OH263604   1.484   3.728   1.339 -0.1758  0.0408  0.4836
14038TIP3    H163605   1.570   3.720   1.297 -0.3529 -0.1134  0.1425
14038TIP3    H263606   1.500   3.777   1.419 -0.1302  2.0364 -0.7131
14039TIP3   OH263607   3.854   3.023   2.417 -0.0693 -0.1886  0.5266
14039TIP3    H163608   3.797   2.959   2.460 -0.4517  0.1909  0.5845
14039TIP3    H263609   3.856   2.995   2.325 -0.4709 -0.1121  0.4941
14040TIP3   OH263610   0.535   0.199  14.853  0.3146  0.3385 -0.9518
14040TIP3    H163611   0.583   0.198  14.935 -0.1815 -0.8077 -0.6693
14040TIP3    H263612   0.445   0.174  14.876 -0.0045  0.7209 -1.7266
14041TIP3   OH263613   6.141   0.390  13.391 -0.4549 -0.6963  0.1249
14041TIP3    H163614   6.053   0.417  13.366  0.2682  1.5375 -0.1344
14041TIP3    H263615   6.193   0.403  13.311 -0.0468 -2.8041  0.0341
14042TIP3   OH263616   2.950   2.109  10.708 -0.6239  0.1929  0.2698
14042TIP3    H163617   2.956   2.040  10.641  2.6649  1.8259 -1.2002
14042TIP3    H263618   3.005   2.077  10.780  1.7239  1.6566 -0.8211
14043TIP3   OH263619   1.605   6.138  14.958 -0.7303  0.0765 -0.3597
14043TIP3    H163620   1.594   6.170  15.048  0.9929  0.8921 -0.4029
14043TIP3    H263621   1.653   6.208  14.914  0.1118 -1.1174 -1.3859
14044TIP3   OH263622   0.423   2.350   2.847  0.8227  0.5537  0.1802
14044TIP3    H163623   0.456   2.311   2.928 -0.8998 -1.7001 -0.1644
14044TIP3    H263624   0.451   2.290   2.778 -2.0445 -0.2679 -0.3440
14045TIP3   OH263625   6.809   5.627   4.206  0.1663  0.1883  0.2503
14045TIP3    H163626   6.787   5.619   4.113  1.1241 -0.7684  0.0993
14045TIP3    H263627   6.895   5.669   4.208 -0.1346  0.7973  0.7326
14046TIP3   OH263628   5.153   0.749   5.593  0.3784 -0.2940 -0.1879
14046TIP3    H163629   5.211   0.697   5.537  2.4137  0.1072  1.4859
14046TIP3    H263630   5.087   0.784   5.533  1.4748 -1.3254 -2.0411
14047TIP3   OH263631   6.257   5.286   2.018  0.2296  0.3074  0.7536
14047TIP3    H163632   6.272   5.332   2.100 -0.6098  1.1803  0.4207
14047TIP3    H263633   6.201   5.212   2.043  0.7656  0.0201  1.1204
14048TIP3   OH263634   1.966   5.996   0.386  0.1273 -0.1778 -0.1617
14048TIP3    H163635   1.905   6.064   0.359  0.0811 -0.4652 -0.8013
14048TIP3    H263636   1.948   5.982   0.479 -0.1985  0.3291 -0.1464
14049TIP3   OH263637   2.838   6.158  12.256 -0.0053 -0.2610  0.8468
14049TIP3    H163638   2.807   6.091  12.194  2.3743  0.8452 -1.6342
14049TIP3    H263639   2.758   6.195  12.293 -1.5062 -1.0019 -1.5537
14050TIP3   OH263640   5.868   4.285  12.194  0.0826 -0.2017  0.2886
14050TIP3    H163641   5.883   4.209  12.250 -0.5278 -0.2004  0.4623
14050TIP3    H263642   5.820   4.250  12.119 -1.5644  0.2628  1.1029
14051TIP3   OH263643   0.605   3.920   1.367 -0.4197 -0.0055 -0.0231
14051TIP3    H163644   0.600   4.008   1.405 -0.6260  1.2975 -2.9341
14051TIP3    H263645   0.698   3.898   1.371 -0.4202  0.1870  1.0768
14052TIP3   OH263646   5.184   5.029  16.067  0.2115 -0.0342 -0.0712
14052TIP3    H163647   5.103   5.009  16.019  1.4093 -1.1078 -1.6735
14052TIP3    H263648   5.194   4.956  16.128 -1.2418  1.2659  1.7724
14053TIP3   OH263649   3.808   3.834   6.231 -0.3082  0.1153  0.3712
14053TIP3    H163650   3.736   3.791   6.277 -0.3816 -1.8564 -1.4554
14053TIP3    H263651   3.887   3.806   6.278 -0.4549 -1.1121 -0.0833
14054TIP3   OH263652   3.490   1.023  13.552  0.8069  0.8683 -0.1061
14054TIP3    H163653   3.533   0.964  13.490  0.1552 -0.4784  0.7157
14054TIP3    H263654   3.530   1.004  13.636 -0.5898  0.4045  0.4638
14055TIP3   OH263655   5.522   6.635  15.218  0.0832 -0.3284 -0.0931
14055TIP3    H163656   5.570   6.554  15.205  0.3326 -0.4684  1.5140
14055TIP3    H263657   5.511   6.641  15.313  0.5248  1.7843 -0.1470
14056TIP3   OH263658   2.400   5.121   3.951  0.4719 -0.1352 -0.3638
14056TIP3    H163659   2.439   5.130   4.038 -0.1877 -0.1258 -0.0683
14056TIP3    H263660   2.393   5.027   3.936  2.7271 -0.1764 -1.3775
14057TIP3   OH263661   4.318   2.021  11.520  0.1706  0.2201  0.1926
14057TIP3    H163662   4.237   2.028  11.471 -0.9023  2.4868  2.2119
14057TIP3    H263663   4.307   1.942  11.574  0.1469 -0.5759 -0.9545
14058TIP3   OH263664   6.554   6.740  10.329 -0.2899  0.0088  0.9890
14058TIP3    H163665   6.593   6.660  10.364  0.2838  0.8441  2.2923
14058TIP3    H263666   6.621   6.807  10.342 -0.2451  0.4338 -1.3298
14059TIP3   OH263667   6.504   1.935   1.064  0.4559  0.1661 -1.0228
14059TIP3    H163668   6.547   1.973   1.141 -0.6549 -1.5699  0.5030
14059TIP3    H263669   6.410   1.940   1.084  0.2103 -1.3222 -1.7701
14060TIP3   OH263670   4.662   3.604  13.806  0.0194  0.4677 -0.2635
14060TIP3    H163671   4.638   3.556  13.885  0.6285  2.4017  1.1387
14060TIP3    H263672   4.693   3.537  13.746  0.6598 -0.9151  1.5599
14061TIP3   OH263673   4.539   2.593  10.707 -0.7838 -0.2312  0.1384
14061TIP3    H163674   4.537   2.654  10.781  0.4162 -0.7133  0.5621
14061TIP3    H263675   4.525   2.507  10.746 -0.3329 -0.4646 -0.2123
14062TIP3   OH263676   3.701   2.616  15.900 -0.1948  0.6506  0.2082
14062TIP3    H163677   3.729   2.549  15.963  2.5852  0.9725 -0.6120
14062TIP3    H263678   3.725   2.580  15.815 -0.3210  1.9225 -0.3695
14063TIP3   OH263679   6.631   6.632  11.042  0.1390 -0.0489  0.2511
14063TIP3    H163680   6.658   6.724  11.035 -2.7649  1.0333  2.4213
14063TIP3    H263681   6.551   6.627  10.989  0.6993 -1.5402 -0.4825
14064TIP3   OH263682   1.745   5.299  12.711  0.2581 -0.0042 -0.1974
14064TIP3    H163683   1.749   5.217  12.760  0.8794  0.6381  0.8484
14064TIP3    H263684   1.776   5.365  12.773 -0.0465  0.9898 -1.0948
14065TIP3   OH263685   3.426   0.520  11.530 -0.4341  0.2854  0.0761
14065TIP3    H163686   3.392   0.536  11.442 -0.6934 -0.7720 -0.0245
14065TIP3    H263687   3.518   0.497  11.517 -0.4727  0.1281  0.0863
14066TIP3   OH263688   6.810   2.195  12.180 -0.3244 -0.2567  0.0304
14066TIP3    H163689   6.775   2.190  12.091  1.6268  0.2837 -0.7777
14066TIP3    H263690   6.751   2.140  12.231 -1.2717 -0.8446 -1.6405
14067TIP3   OH263691   1.101   1.350  13.166  0.3813 -0.1838  0.2310
14067TIP3    H163692   1.185   1.350  13.120  0.9348 -2.8374  1.1457
14067TIP3    H263693   1.124   1.334  13.257 -1.0685 -0.0943  0.6146
14068TIP3   OH263694   0.315   2.782  15.198  0.1739 -0.4211  0.6191
14068TIP3    H163695   0.254   2.823  15.137  1.5571  0.5576 -0.1590
14068TIP3    H263696   0.263   2.761  15.275 -1.2066  0.0363 -0.1753
14069TIP3   OH263697   6.789   3.671  15.966 -0.2433  0.0108 -0.5465
14069TIP3    H163698   6.758   3.717  15.889 -2.3566 -0.9247 -0.2847
14069TIP3    H263699   6.862   3.724  15.998 -0.2096  1.1168 -2.3918
14070TIP3   OH263700   4.813   0.988  16.880  0.3946  0.0559 -0.2249
14070TIP3    H163701   4.732   1.034  16.903  0.2493 -0.3280  0.0538
14070TIP3    H263702   4.832   0.934  16.957 -0.0423 -1.1647 -0.9507
14071TIP3   OH263703   1.329   5.285  14.634 -0.4030 -0.5209  0.3686
14071TIP3    H163704   1.413   5.276  14.589 -0.0642  2.1680  0.3644
14071TIP3    H263705   1.266   5.303  14.564 -0.6836 -0.8933  0.5274
14072TIP3   OH263706   4.349   3.378   0.535  0.2837 -0.0849 -0.4046
14072TIP3    H163707   4.362   3.393   0.441 -1.9978 -0.1179 -0.7653
14072TIP3    H263708   4.384   3.291   0.550 -0.7187 -0.7081 -1.5603
14073TIP3   OH263709   4.993   5.914   4.914  0.1950 -0.4630  0.4867
14073TIP3    H163710   5.074   5.872   4.885  1.0792  0.1045  2.0654
14073TIP3    H263711   4.928   5.891   4.847  1.7552 -0.5802 -1.0087
14074TIP3   OH263712   2.729   5.716  12.208 -0.0773 -0.2311 -0.2509
14074TIP3    H163713   2.714   5.635  12.158  2.3982 -1.1746  0.4739
14074TIP3    H263714   2.794   5.764  12.158  2.2342 -1.0626  1.8266
14075TIP3   OH263715   6.785   0.284   6.255  0.5875  0.4673  0.3306
14075TIP3    H163716   6.861   0.259   6.307  1.3421 -1.0916 -1.4897
14075TIP3    H263717   6.758   0.368   6.292  3.4041  1.2346  0.7678
14076TIP3   OH263718   3.211   2.662  15.870 -0.6905 -0.5818  0.2617
14076TIP3    H163719   3.146   2.678  15.802  0.3491  2.2037 -0.1347
14076TIP3    H263720   3.289   2.632  15.822 -0.3379  0.2250  0.3248
14077TIP3   OH263721   1.541   0.015   2.090 -0.0794 -0.8239  0.3566
14077TIP3    H163722   1.494  -0.068   2.080 -2.7031  0.7241 -0.4988
14077TIP3    H263723   1.593   0.023   2.011 -0.0059 -1.5458  0.3284
14078TIP3   OH263724   0.768   2.128  11.369 -0.4427 -0.2225  0.0283
14078TIP3    H163725   0.797   2.122  11.459 -0.9005 -0.6490  0.1470
14078TIP3    H263726   0.847   2.114  11.317 -0.0757  0.5521  0.3611
14079TIP3   OH263727   5.561   1.512   4.728  0.6713  0.7574 -0.0872
14079TIP3    H163728   5.475   1.475   4.708  0.1574  0.9237  1.6707
14079TIP3    H263729   5.551   1.606   4.713 -0.2962  1.1479  2.6988
14080TIP3   OH263730   6.505   1.353   1.480  0.0247  0.1746  0.0869
14080TIP3    H163731   6.561   1.322   1.552  0.6275 -0.5992 -0.6932
14080TIP3    H263732   6.418   1.360   1.519  0.6906  1.5586  1.3642
14081TIP3   OH263733   5.451   5.038   2.474 -0.0740  0.4052  0.4744
14081TIP3    H163734   5.415   5.088   2.547  1.4432 -0.9996  2.2391
14081TIP3    H263735   5.522   5.092   2.441  0.3516  0.2657  1.1564
14082TIP3   OH263736   6.265   0.371   5.108  0.0893  0.3151  0.1198
14082TIP3    H163737   6.277   0.427   5.185  0.6884 -0.1532  0.3826
14082TIP3    H263738   6.297   0.285   5.137  1.2147  0.3629 -0.9472
14083TIP3   OH263739   1.245   0.452   3.073  0.8507  0.0647  0.5014
14083TIP3    H163740   1.290   0.485   2.995 -1.0032 -0.2613 -0.7411
14083TIP3    H263741   1.286   0.367   3.090  1.3429  0.1885 -0.0452
14084TIP3   OH263742   1.885   3.327   2.402 -0.1732 -1.4138 -0.0778
14084TIP3    H163743   1.908   3.248   2.354  0.2032 -1.0095 -0.5715
14084TIP3    H263744   1.789   3.330   2.399 -0.1523 -1.4080 -0.7716
14085TIP3   OH263745   3.926   1.845   0.469  0.1726  0.8545 -0.6093
14085TIP3    H163746   3.919   1.782   0.397 -0.5966  1.7782 -1.3493
14085TIP3    H263747   4.018   1.840   0.495 -0.0726 -1.2539 -0.0194
14086TIP3   OH263748   2.060   5.048  10.819  0.0319 -0.2259 -0.1184
14086TIP3    H163749   2.027   5.089  10.739 -3.3016 -1.7790  0.3675
14086TIP3    H263750   2.132   4.992  10.790  0.2228  0.8324 -1.7140
14087TIP3   OH263751   5.965   2.215   3.279 -0.0524  0.8294  0.0360
14087TIP3    H163752   5.924   2.302   3.276  2.1689  1.9207  0.1032
14087TIP3    H263753   5.965   2.186   3.188 -0.9938  0.7796  0.0377
14088TIP3   OH263754   3.993   2.486   6.165 -0.4633  0.3119 -0.0706
14088TIP3    H163755   3.963   2.427   6.095  0.3995 -2.0226  1.4347
14088TIP3    H263756   3.963   2.572   6.138  0.1978 -0.4324 -3.5329
14089TIP3   OH263757   4.856   3.316   5.832 -0.0839 -0.0207 -0.0572
14089TIP3    H163758   4.945   3.339   5.804  0.2210 -0.6969  0.3492
14089TIP3    H263759   4.803   3.323   5.753  0.2801  0.6570 -0.2433
14090TIP3   OH263760   4.002   3.316   0.632  0.4028  0.0662 -0.1399
14090TIP3    H163761   4.045   3.231   0.621  0.1233 -0.1359  0.2964
14090TIP3    H263762   3.976   3.342   0.544  0.7316 -0.1713 -0.3105
14091TIP3   OH263763   2.651   5.722   4.041  0.1736 -0.7125 -0.2595
14091TIP3    H163764   2.625   5.775   3.966 -0.0991  0.5328  0.6943
14091TIP3    H263765   2.738   5.688   4.019 -0.2119 -0.9534 -1.4327
14092TIP3   OH263766   4.483   1.745  17.115 -0.6183  0.4516  0.2760
14092TIP3    H163767   4.541   1.815  17.083  0.9003 -0.9999 -0.2037
14092TIP3    H263768   4.519   1.721  17.200 -1.5112  0.6602  0.7192
14093TIP3   OH263769   2.805   2.239   1.274 -0.4189 -0.3000  0.3211
14093TIP3    H163770   2.895   2.208   1.262 -0.8347 -1.2430 -0.4635
14093TIP3    H263771   2.777   2.197   1.356  0.1100  0.6289  0.9921
14094TIP3   OH263772   2.168   4.511  14.289  0.2040  0.4943 -0.3498
14094TIP3    H163773   2.239   4.495  14.350  0.6400  0.5672 -0.8332
14094TIP3    H263774   2.161   4.431  14.237 -3.1108 -1.3219  2.6971
14095TIP3   OH263775   3.390   5.127  10.565 -0.0315  0.6071  0.3900
14095TIP3    H163776   3.399   5.090  10.477 -2.1116 -1.1047  0.8614
14095TIP3    H263777   3.389   5.051  10.623 -1.1735  1.5853  1.6710
14096TIP3   OH263778   5.925   2.215  14.877  0.8158 -0.2144  0.2999
14096TIP3    H163779   5.860   2.228  14.809 -0.8993 -1.4607  1.6582
14096TIP3    H263780   5.875   2.196  14.956  2.7928 -0.1229  1.6349
14097TIP3   OH263781   4.107   0.664   4.565  0.2365  0.2263 -0.5851
14097TIP3    H163782   4.136   0.735   4.508  1.1973  1.2991  1.1949
14097TIP3    H263783   4.187   0.633   4.607 -0.3592 -1.0281 -0.3667
14098TIP3   OH263784   3.501   2.255   4.215 -0.1586 -0.5305 -0.6186
14098TIP3    H163785   3.511   2.164   4.242 -0.4796 -0.5915 -0.6962
14098TIP3    H263786   3.416   2.281   4.250 -0.2498 -0.3858 -0.9431
14099TIP3   OH263787   5.812   6.474  12.409 -0.0281 -0.1938 -0.1566
14099TIP3    H163788   5.801   6.534  12.482  0.2731 -0.9388  0.5105
14099TIP3    H263789   5.744   6.408  12.423 -0.1183 -0.2096 -0.6788
14100TIP3   OH263790   4.358   6.703   2.433  0.2161  0.3028 -0.3644
14100TIP3    H163791   4.278   6.739   2.471  0.1716 -0.6541  0.4735
14100TIP3    H263792   4.412   6.779   2.415 -0.0964  0.8323  0.8762
14101TIP3   OH263793   4.107   1.132   0.411 -0.1458 -0.0208  0.0185
14101TIP3    H163794   4.114   1.179   0.328 -0.1541 -2.3016 -1.2907
14101TIP3    H263795   4.044   1.062   0.395  0.5240 -1.0396  1.6866
14102TIP3   OH263796   6.480   5.128  12.065  0.3704  0.1973 -0.0218
14102TIP3    H163797   6.423   5.132  11.989 -0.4226 -0.4341  0.5287
14102TIP3    H263798   6.468   5.212  12.109  0.4880  0.3868 -0.3549
14103TIP3   OH263799   0.791   4.220   2.239  0.0247 -0.6010 -0.1933
14103TIP3    H163800   0.700   4.248   2.236 -0.1794 -1.1740  0.3948
14103TIP3    H263801   0.795   4.144   2.181 -0.2764 -1.6561  1.1394
14104TIP3   OH263802   5.624   1.111   1.733  0.0585  0.0619 -0.3861
14104TIP3    H163803   5.582   1.067   1.807  1.7789 -1.8910 -0.5322
14104TIP3    H263804   5.693   1.164   1.772  0.8550 -0.8340 -0.5682
14105TIP3   OH263805   3.031   4.663  12.245  0.1094  0.0730 -0.0961
14105TIP3    H163806   3.045   4.695  12.156 -0.0012  0.8876  0.1789
14105TIP3    H263807   3.115   4.624  12.270  0.2784  0.2472 -0.3855
14106TIP3   OH263808   0.590   0.160   4.158  0.0723  0.5792 -0.1736
14106TIP3    H163809   0.520   0.219   4.131  0.7312  0.7749 -1.5525
14106TIP3    H263810   0.574   0.080   4.108 -0.4915 -0.2073  1.2608
14107TIP3   OH263811   5.943   3.900   1.604  0.2194 -0.0768 -1.0235
14107TIP3    H163812   6.037   3.917   1.609 -0.1392  2.2853 -1.5897
14107TIP3    H263813   5.916   3.882   1.694  1.3312 -1.4947 -0.9665
14108TIP3   OH263814   6.698   1.709   3.292 -0.4693 -0.2957 -0.4028
14108TIP3    H163815   6.742   1.765   3.357 -0.1643 -0.5991 -0.3429
14108TIP3    H263816   6.643   1.769   3.242 -1.9106 -0.2945  1.1536
14109TIP3   OH263817   2.650   4.962   5.153  0.0064  0.0784  0.7700
14109TIP3    H163818   2.729   4.969   5.099 -1.2698 -0.3342 -1.2343
14109TIP3    H263819   2.653   4.873   5.188  0.6249  0.1938  1.0103
14110TIP3   OH263820   2.313   0.291  13.234 -0.3160  0.2454  0.1695
14110TIP3    H163821   2.358   0.375  13.230 -1.5615  0.9752  1.1176
14110TIP3    H263822   2.366   0.237  13.293  0.3136  0.4553 -0.2001
14111TIP3   OH263823   5.341   3.041  15.265 -0.2710 -0.4522  0.4608
14111TIP3    H163824   5.344   3.013  15.357  1.0631 -1.0264  0.2540
14111TIP3    H263825   5.418   3.096  15.254 -0.5551 -0.2002 -0.2558
14112TIP3   OH263826   4.265   1.574   5.724 -0.3131  0.0473 -0.0999
14112TIP3    H163827   4.353   1.574   5.762 -1.1714 -2.6603  2.1251
14112TIP3    H263828   4.217   1.640   5.774 -0.1346 -0.1131  0.2894
14113TIP3   OH263829   6.633   4.084   1.110 -0.1440  0.2191 -0.3215
14113TIP3    H163830   6.551   4.037   1.127 -0.7570  1.5456  0.4549
14113TIP3    H263831   6.609   4.176   1.116  1.4408  0.6108  0.0914
14114TIP3   OH263832   2.652   0.158  12.652  0.3743 -0.0192  0.7145
14114TIP3    H163833   2.589   0.147  12.580  1.2315 -1.4680  0.1750
14114TIP3    H263834   2.709   0.230  12.623 -1.3982  1.7459  1.4869
14115TIP3   OH263835   4.866   4.263  16.236 -0.3783  0.3544 -0.0557
14115TIP3    H163836   4.845   4.261  16.329  1.2155 -0.5595  0.3018
14115TIP3    H263837   4.855   4.173  16.207  1.4283  0.1674 -0.2124
14116TIP3   OH263838   1.552   1.780   1.539 -0.3758  0.0109  0.3384
14116TIP3    H163839   1.538   1.686   1.543 -2.9029  0.3791  1.0021
14116TIP3    H263840   1.608   1.799   1.615 -1.5081 -0.6939  1.3670
14117TIP3   OH263841   4.057   0.988   4.730 -0.2697  0.2188 -0.3367
14117TIP3    H163842   4.124   0.953   4.671 -0.2237 -0.1866 -0.0446
14117TIP3    H263843   4.040   1.076   4.697  2.4302  1.3926  1.2477
14118TIP3   OH263844   5.885   0.453  13.325 -0.0026  0.1883  0.0367
14118TIP3    H163845   5.889   0.488  13.414  1.3713  0.9991 -0.3209
14118TIP3    H263846   5.839   0.520  13.275  0.8979  0.6058 -0.2439
14119TIP3   OH263847   3.924   1.165  11.875  0.2175 -0.2750  0.3005
14119TIP3    H163848   3.903   1.123  11.959  1.0211  1.2376  1.2876
14119TIP3    H263849   3.955   1.094  11.820 -2.0774 -1.6130  0.6566
14120TIP3   OH263850   2.210   5.031  12.595 -0.4075 -0.1152 -1.0093
14120TIP3    H163851   2.228   5.010  12.687  0.2901  0.8722 -0.9023
14120TIP3    H263852   2.193   4.947  12.553  0.7149 -0.7271 -0.2777
14121TIP3   OH263853   3.733   5.597  14.071  0.5486 -0.0585 -0.2128
14121TIP3    H163854   3.677   5.566  14.142  0.9190 -0.3187 -0.0321
14121TIP3    H263855   3.802   5.531  14.064  0.2130 -0.3234 -1.1851
14122TIP3   OH263856   5.029   0.480   3.245  0.0920  0.0320 -0.1953
14122TIP3    H163857   4.960   0.518   3.190 -0.9529  2.7394  2.8386
14122TIP3    H263858   5.103   0.539   3.233 -0.2623  0.8537  1.5448
14123TIP3   OH263859   3.523   5.819   4.531 -0.0026 -0.0049  0.2337
14123TIP3    H163860   3.516   5.914   4.545 -1.3360 -0.2728  1.5867
14123TIP3    H263861   3.433   5.787   4.537  0.0455 -0.9955 -3.3327
14124TIP3   OH263862   1.706   6.206   1.288 -0.1170  0.0117  0.4507
14124TIP3    H163863   1.772   6.211   1.357  0.7552  2.9225 -0.5145
14124TIP3    H263864   1.686   6.297   1.267 -1.6534 -0.8132 -1.9149
14125TIP3   OH263865   6.592   3.697   4.048  0.6209 -0.0444 -0.0712
14125TIP3    H163866   6.582   3.764   4.115  1.1758 -2.0329  2.0431
14125TIP3    H263867   6.669   3.647   4.075  0.5196 -1.2298 -1.8786
14126TIP3   OH263868   6.609   5.838  14.575  0.6111 -0.2591 -0.2603
14126TIP3    H163869   6.647   5.833  14.487 -0.7571  1.8390 -1.0040
14126TIP3    H263870   6.546   5.766  14.578  1.3805 -0.9577 -0.6228
14127TIP3   OH263871   1.501   0.164  15.323 -0.4982 -0.0117 -0.1274
14127TIP3    H163872   1.480   0.199  15.237 -0.8814 -1.4447 -0.6256
14127TIP3    H263873   1.594   0.140  15.317 -0.5426 -0.1746 -0.1622
14128TIP3   OH263874   0.431   4.458  12.111  0.8960 -0.5946  0.5097
14128TIP3    H163875   0.522   4.434  12.129  1.1242  0.6616  1.0840
14128TIP3    H263876   0.435   4.506  12.028  0.5538 -1.8438 -0.2289
14129TIP3   OH263877   3.091   2.012   1.514 -0.3857  0.4976  0.2320
14129TIP3    H163878   3.175   2.034   1.554  0.3047 -2.3636  0.5133
14129TIP3    H263879   3.102   2.033   1.421  0.0548  1.6863  0.5546
14130TIP3   OH263880   6.126   2.835   4.444  0.5982 -0.6167  0.1848
14130TIP3    H163881   6.032   2.820   4.443  0.5642 -0.5690  1.3765
14130TIP3    H263882   6.145   2.860   4.535  1.6263  0.1876 -0.2367
14131TIP3   OH263883   3.331   4.220   0.153  0.1036  0.6634  0.2888
14131TIP3    H163884   3.306   4.194   0.065 -1.0369 -0.4850  0.9365
14131TIP3    H263885   3.397   4.288   0.140 -1.5804  2.0248 -1.4520
14132TIP3   OH263886   0.499   1.158   2.888 -0.4093  0.4079  0.0192
14132TIP3    H163887   0.511   1.111   2.805 -1.0190  0.3688 -0.0487
14132TIP3    H263888   0.527   1.095   2.955  0.4287  0.5684 -0.1764
14133TIP3   OH263889   0.460   4.222   1.125 -0.0862 -0.5736  0.4878
14133TIP3    H163890   0.419   4.268   1.052  0.4741  2.7483  2.1538
14133TIP3    H263891   0.409   4.248   1.202  1.1832 -1.5417  1.6824
14134TIP3   OH263892   1.363   2.051   1.652 -0.1787  0.1937 -0.1094
14134TIP3    H163893   1.405   1.980   1.701 -0.7099 -1.5584 -2.1244
14134TIP3    H263894   1.427   2.122   1.654  0.4562 -0.3832  1.7475
14135TIP3   OH263895   0.008   4.669   4.549 -0.3190  0.1909  0.0834
14135TIP3    H163896   0.047   4.604   4.607 -0.7591 -0.2752 -0.1379
14135TIP3    H263897   0.012   4.629   4.462 -0.5938  0.4582 -0.0533
14136TIP3   OH263898   3.652   0.445   5.770 -0.1812 -0.0949  0.4733
14136TIP3    H163899   3.610   0.361   5.786 -0.7643 -0.3692 -2.2861
14136TIP3    H263900   3.693   0.468   5.854 -1.8299 -2.0659  1.8671
14137TIP3   OH263901   6.301   6.313  12.564  0.4137  0.3377  0.2743
14137TIP3    H163902   6.347   6.293  12.483  0.6665  0.3435  0.4188
14137TIP3    H263903   6.361   6.370  12.613 -1.0091  3.0064 -0.9442
14138TIP3   OH263904   5.929   5.930  11.953  0.1117  0.6499 -0.0790
14138TIP3    H163905   5.965   5.982  11.881  0.1634  0.6011 -0.0875
14138TIP3    H263906   5.877   5.993  12.004 -1.6722  0.2206 -1.3501
14139TIP3   OH263907   6.651   3.969   1.691 -0.2228  0.5580 -0.9973
14139TIP3    H163908   6.726   3.922   1.654  1.8530  2.2397  0.9524
14139TIP3    H263909   6.635   4.040   1.628 -0.9087 -0.4559 -1.9846
14140TIP3   OH263910   1.951   4.052  15.105  0.1417  0.4396 -0.1123
14140TIP3    H163911   1.999   4.116  15.158 -1.3964  1.4717  0.0755
14140TIP3    H263912   1.862   4.087  15.100 -0.3864 -0.9969 -1.1733
14141TIP3   OH263913   6.111   3.776  12.350  0.4850  0.1241  0.0279
14141TIP3    H163914   6.116   3.774  12.255 -0.6493  0.4792 -0.0516
14141TIP3    H263915   6.101   3.685  12.376 -1.3409  0.1835 -0.3482
14142TIP3   OH263916   0.793   1.432  15.207 -0.2347 -0.5641  0.3441
14142TIP3    H163917   0.854   1.373  15.163 -1.8922 -0.7720 -1.8094
14142TIP3    H263918   0.726   1.450  15.140  0.6610  4.4646  0.6311
14143TIP3   OH263919   0.966   0.146  11.749 -0.4220 -0.2273 -0.1310
14143TIP3    H163920   0.953   0.184  11.836 -0.0843 -1.4079  0.4421
14143TIP3    H263921   0.897   0.186  11.696  0.0486  1.3509  0.3891
14144TIP3   OH263922   0.949   6.628  11.699 -0.0035 -0.1823  0.1362
14144TIP3    H163923   1.012   6.663  11.763  0.6030  1.1555 -1.1757
14144TIP3    H263924   0.992   6.640  11.614 -1.7439  0.0791 -0.7167
14145TIP3   OH263925   1.638   3.394   1.487  0.5286 -0.1430 -0.3953
14145TIP3    H163926   1.631   3.396   1.392  1.7941  0.5316 -0.4908
14145TIP3    H263927   1.732   3.380   1.504  0.9310  3.4496  0.7245
14146TIP3   OH263928   1.404   1.937  14.571  0.2958 -0.0304 -0.2303
14146TIP3    H163929   1.473   2.004  14.569 -0.1623  0.5082  1.0311
14146TIP3    H263930   1.340   1.966  14.506 -0.4189  1.3491  1.0620
14147TIP3   OH263931   1.916   5.145   1.222 -0.3633  0.0800 -0.4442
14147TIP3    H163932   1.838   5.170   1.172  0.1415  0.8785 -0.8422
14147TIP3    H263933   1.983   5.130   1.156  0.1395  0.5377 -0.0497
14148TIP3   OH263934   6.394   1.617  12.934 -0.1203 -0.2464 -0.2718
14148TIP3    H163935   6.353   1.538  12.968 -0.8400 -0.2584 -1.1273
14148TIP3    H263936   6.481   1.589  12.905 -0.2979 -0.6804 -0.3805
14149TIP3   OH263937   3.223   2.028  14.562 -0.2846  0.9407  0.5956
14149TIP3    H163938   3.227   2.123  14.553  0.4615  0.8535  0.0309
14149TIP3    H263939   3.303   2.005  14.608 -0.2015  0.5176  0.2348
14150TIP3   OH263940   0.054   3.525  12.597 -0.3678 -0.1527  0.4414
14150TIP3    H163941   0.014   3.457  12.652 -2.5838  0.2212 -0.6471
14150TIP3    H263942   0.077   3.595  12.658  1.3634 -1.5915  1.4927
14151TIP3   OH263943   6.461   5.120   7.070  0.7488 -0.0732  0.5376
14151TIP3    H163944   6.548   5.088   7.048 -0.4242 -2.6973 -0.5780
14151TIP3    H263945   6.426   5.153   6.987  0.0937 -0.5485  0.6211
14152TIP3   OH263946   0.176   5.286  15.412 -0.3475  0.3511 -0.8479
14152TIP3    H163947   0.251   5.341  15.389 -0.6573  1.8192  1.5043
14152TIP3    H263948   0.215   5.205  15.446  0.2728  1.6531  1.7111
14153TIP3   OH263949   6.634   2.849   1.777 -0.3603 -0.0440 -0.2450
14153TIP3    H163950   6.695   2.922   1.785 -2.3500  1.4145  2.0871
14153TIP3    H263951   6.660   2.788   1.846  0.4752 -0.9932 -1.3605
14154TIP3   OH263952   3.569   2.808   3.726 -0.0316  0.2132 -0.5066
14154TIP3    H163953   3.548   2.878   3.664  0.8611  1.1843  0.2750
14154TIP3    H263954   3.665   2.805   3.726 -0.0610 -0.7614 -0.2517
14155TIP3   OH263955   3.412   4.439  11.219  0.6917 -0.3182 -0.0160
14155TIP3    H163956   3.370   4.519  11.187 -1.5564 -1.0250  1.0506
14155TIP3    H263957   3.460   4.467  11.297 -0.9652 -0.1599  0.9801
14156TIP3   OH263958   2.580   0.897   1.215  0.4722 -0.0778 -0.3891
14156TIP3    H163959   2.587   0.932   1.303  1.0140 -1.3203  0.0683
14156TIP3    H263960   2.541   0.968   1.164 -0.5510  0.3836  0.9994
14157TIP3   OH263961   1.525   1.489  16.162  0.5796 -0.3586 -0.7574
14157TIP3    H163962   1.490   1.556  16.221 -1.7006 -1.0995 -1.2009
14157TIP3    H263963   1.487   1.510  16.077  0.4793 -1.7598 -1.0683
14158TIP3   OH263964   4.871   3.698   0.283 -0.9342  0.5918  0.0471
14158TIP3    H163965   4.905   3.767   0.227  3.3667  1.0496  3.0203
14158TIP3    H263966   4.888   3.617   0.234 -0.0338  1.1750 -0.6160
14159TIP3   OH263967   3.551   1.423  14.555 -0.4160 -0.2257  0.4905
14159TIP3    H163968   3.468   1.377  14.552 -0.9198  0.6269  1.0901
14159TIP3    H263969   3.544   1.490  14.486  0.3869 -1.1468 -0.5123
14160TIP3   OH263970   1.055   6.734  11.232  0.0197 -0.2928 -0.7886
14160TIP3    H163971   1.110   6.662  11.202  0.6921 -0.6654  1.3020
14160TIP3    H263972   0.980   6.692  11.272  0.4968  0.1577  0.5935
14161TIP3   OH263973   2.579   5.310  15.792  0.2170 -0.0267  0.0196
14161TIP3    H163974   2.605   5.227  15.833  0.7979 -0.6553 -1.5823
14161TIP3    H263975   2.488   5.295  15.763  0.5417 -0.3610 -0.8657
14162TIP3   OH263976   0.984   4.429   6.208 -0.0997 -0.2360  0.1439
14162TIP3    H163977   0.939   4.469   6.283  0.4135  0.6409 -0.0082
14162TIP3    H263978   1.075   4.424   6.235 -0.6543 -4.8597  1.6961
14163TIP3   OH263979   0.561   0.761  11.238  0.4150 -0.4918 -0.1872
14163TIP3    H163980   0.584   0.727  11.152  0.2355  0.3292 -0.5695
14163TIP3    H263981   0.609   0.706  11.300  1.7260 -0.1345 -0.8722
14164TIP3   OH263982   6.107   1.245   1.917 -0.1313 -0.4654 -0.6313
14164TIP3    H163983   6.171   1.257   1.846 -0.8311  0.5067 -1.1150
14164TIP3    H263984   6.027   1.216   1.873 -0.6022  0.2535 -0.2680
14165TIP3   OH263985   2.235   6.316  11.808 -0.1514 -0.5131  0.2301
14165TIP3    H163986   2.266   6.261  11.736 -0.9161 -1.9062  0.9403
14165TIP3    H263987   2.314   6.341  11.854  0.5401  2.1027 -2.2650
14166TIP3   OH263988   0.308   2.697   4.511 -0.4572 -0.3378  0.4432
14166TIP3    H163989   0.347   2.784   4.508  0.8146 -0.9163  0.1261
14166TIP3    H263990   0.218   2.712   4.542 -0.2949  1.0938  0.2391
14167TIP3   OH263991   3.914   3.700   0.137 -0.0573 -0.0646 -0.1465
14167TIP3    H163992   3.979   3.633   0.155 -0.5245 -0.0205  1.7884
14167TIP3    H263993   3.965   3.781   0.129  0.1095  0.0617  1.9039
14168TIP3   OH263994   1.360   0.013  12.267  0.4279  0.8016 -0.1054
14168TIP3    H163995   1.372  -0.062  12.209 -0.5241 -1.1997  2.1890
14168TIP3    H263996   1.447   0.030  12.303  0.5705  0.4829 -0.2994
14169TIP3   OH263997   3.895   2.092  12.371 -0.0727  0.0240  0.3402
14169TIP3    H163998   3.969   2.090  12.432 -0.9250 -0.6605  1.3580
14169TIP3    H263999   3.853   2.177  12.386 -0.9351 -0.5993  1.4987
14170TIP3   OH264000   2.171   3.084   1.853  0.5520  0.1428 -0.4944
14170TIP3    H164001   2.245   3.127   1.809 -0.0109 -2.0738 -3.8258
14170TIP3    H264002   2.094   3.111   1.801 -0.5930  0.0641  1.1319
14171TIP3   OH264003   1.868   5.214   0.439  0.3155 -0.3545  0.6909
14171TIP3    H164004   1.797   5.236   0.499 -0.4739 -1.4272  0.1898
14171TIP3    H264005   1.874   5.119   0.444  1.2122 -0.3286  0.1516
14172TIP3   OH264006   2.268   5.427   5.829  0.1249  0.6234 -0.3981
14172TIP3    H164007   2.212   5.487   5.780 -1.3734 -0.4622 -0.0600
14172TIP3    H264008   2.299   5.478   5.903 -2.9864  0.4133  1.1754
14173TIP3   OH264009   2.801   2.403  13.602 -0.3370  0.1102  0.7932
14173TIP3    H164010   2.815   2.363  13.687 -1.5108 -0.2626  0.8224
14173TIP3    H264011   2.783   2.495  13.620 -0.7022  0.0062  0.9603
14174TIP3   OH264012   5.240   5.676   3.389  0.5146  0.1159 -0.4232
14174TIP3    H164013   5.180   5.626   3.334  2.0158  0.1155 -2.1257
14174TIP3    H264014   5.230   5.638   3.476 -2.7722  0.9034 -0.4159
14175TIP3   OH264015   4.396   3.334  12.710  0.9736  0.3134  0.2705
14175TIP3    H164016   4.438   3.265  12.760  0.6557 -0.7165 -0.8656
14175TIP3    H264017   4.357   3.289  12.635 -1.2828  1.3964  0.7735
14176TIP3   OH264018   4.257   6.394   3.496 -0.2286 -0.0454  0.2843
14176TIP3    H164019   4.234   6.364   3.584  0.4102 -1.2761  0.0381
14176TIP3    H264020   4.176   6.383   3.446 -0.3041 -0.3210  0.4651
14177TIP3   OH264021   0.377   0.169  15.944 -0.7520  0.0140  0.6020
14177TIP3    H164022   0.328   0.107  15.889 -2.5163  2.1158 -0.2594
14177TIP3    H264023   0.341   0.156  16.032 -2.0500  0.7030  0.1924
14178TIP3   OH264024   0.502   3.036  12.184  0.1758 -0.2849 -0.3169
14178TIP3    H164025   0.498   3.112  12.126 -1.6991 -0.3816 -0.3527
14178TIP3    H264026   0.446   2.971  12.142 -2.5888  0.2281  2.4095
14179TIP3   OH264027   5.835   1.011  10.947  0.2259  0.2444  0.3850
14179TIP3    H164028   5.898   0.974  10.885  1.0611  3.0307 -0.5117
14179TIP3    H264029   5.809   1.094  10.908 -2.1693  0.2842  1.9568
14180TIP3   OH264030   2.523   6.025   0.283 -0.0486 -0.0575  0.0190
14180TIP3    H164031   2.437   5.988   0.305  0.2399 -2.1011 -2.1282
14180TIP3    H264032   2.572   5.952   0.245  2.1733  1.4309 -0.0581
14181TIP3   OH264033   6.723   3.272  14.920  0.3731  1.0562  0.6489
14181TIP3    H164034   6.738   3.353  14.967  0.2524  1.1263  0.5666
14181TIP3    H264035   6.801   3.219  14.938  0.1079  0.8960  1.3162
14182TIP3   OH264036   6.781   5.210   1.556  0.0522 -0.4254 -0.0318
14182TIP3    H164037   6.808   5.143   1.619  1.7094  0.2071 -0.0377
14182TIP3    H264038   6.801   5.293   1.599  2.4775  0.0033 -1.8888
14183TIP3   OH264039   2.461   3.348   2.937 -0.0500 -0.3590  0.3635
14183TIP3    H164040   2.434   3.435   2.906  0.2537 -0.0944  0.8367
14183TIP3    H264041   2.454   3.292   2.859  2.7987  0.7572 -0.7627
14184TIP3   OH264042   2.451   3.764   0.235  0.6436  0.0288  0.5352
14184TIP3    H164043   2.546   3.774   0.243  0.8968 -0.0589 -2.0016
14184TIP3    H264044   2.426   3.826   0.167 -0.8521 -1.3071 -0.1598
14185TIP3   OH264045   1.993   6.305  14.998 -0.3528 -0.1095  0.4171
14185TIP3    H164046   2.035   6.255  15.068  1.0201  2.1627  1.2554
14185TIP3    H264047   2.066   6.337  14.945 -1.2927 -0.1572 -0.9125
14186TIP3   OH264048   4.783   6.767  11.752 -0.3028 -0.3147  0.1761
14186TIP3    H164049   4.764   6.733  11.840 -0.6264 -0.4572  0.0542
14186TIP3    H264050   4.878   6.761  11.744 -0.2777 -0.3633  0.4924
14187TIP3   OH264051   1.954   3.549  13.798  0.7391  0.3412 -0.0448
14187TIP3    H164052   2.000   3.480  13.844 -1.4505 -0.5709  0.8576
14187TIP3    H264053   1.876   3.506  13.761  0.9427  1.6721 -2.1285
14188TIP3   OH264054   4.666   6.215  16.146 -0.0988  0.1241 -0.6007
14188TIP3    H164055   4.725   6.275  16.192  0.0294 -0.8321  0.4934
14188TIP3    H264056   4.724   6.146  16.114 -0.4230 -0.0658 -0.7743
14189TIP3   OH264057   5.976   3.332  16.557  0.1338  0.5241 -0.2471
14189TIP3    H164058   5.996   3.421  16.585 -0.5382  0.9256 -0.9989
14189TIP3    H264059   5.915   3.299  16.622  1.2695  0.1915  0.6720
14190TIP3   OH264060   2.614   6.516  13.386  0.4832 -0.1196 -0.1247
14190TIP3    H164061   2.654   6.603  13.385  0.1317  0.0603  0.6734
14190TIP3    H264062   2.685   6.457  13.364  1.3953  0.1325  1.9771
14191TIP3   OH264063   0.859   2.766   2.547 -0.5036 -0.0289  0.3963
14191TIP3    H164064   0.878   2.804   2.461 -0.8624  0.9220  0.7257
14191TIP3    H264065   0.789   2.821   2.582  0.0323 -0.0632  1.5387
14192TIP3   OH264066   5.234   6.143   5.008  0.3344  0.4253  0.4142
14192TIP3    H164067   5.185   6.168   4.930  1.2217  0.1766 -0.2274
14192TIP3    H264068   5.247   6.225   5.056 -1.6277  0.3514  1.1473
14193TIP3   OH264069   1.380   6.752  15.434  0.8610 -0.0417  0.1655
14193TIP3    H164070   1.305   6.751  15.374  0.0636  0.5764  1.1423
14193TIP3    H264071   1.434   6.825  15.403  1.2685 -0.7388 -0.7827
14194TIP3   OH264072   5.594   6.113  16.952 -0.4828  0.1908 -0.2650
14194TIP3    H164073   5.620   6.062  17.029 -0.5871 -1.8045 -1.5354
14194TIP3    H264074   5.501   6.130  16.964 -0.5311 -0.2429 -0.0115
14195TIP3   OH264075   1.194   3.252  16.840  0.0987 -0.1513 -0.2382
14195TIP3    H164076   1.122   3.264  16.778 -0.3229  1.0827  0.4760
14195TIP3    H264077   1.159   3.284  16.923  1.0302 -0.7807  0.3973
14196TIP3   OH264078   4.503   1.682  11.908  0.8684 -0.4368  0.4018
14196TIP3    H164079   4.446   1.729  11.848  0.7853  0.2352  0.9951
14196TIP3    H264080   4.457   1.600  11.927  1.1332 -0.8765 -0.8378
14197TIP3   OH264081   2.386   3.088  15.252 -0.0617  0.0820 -0.2630
14197TIP3    H164082   2.430   3.062  15.171  1.0631 -2.8216  1.2018
14197TIP3    H264083   2.322   3.018  15.267 -0.7859  0.9984  0.9600
14198TIP3   OH264084   5.247   3.683   6.799  0.0330 -0.2518  0.9296
14198TIP3    H164085   5.315   3.625   6.765 -0.0397 -0.4272  1.0855
14198TIP3    H264086   5.169   3.628   6.806 -0.5763  0.3485 -0.8311
14199TIP3   OH264087   3.308   2.491   5.958 -0.4257  0.2663  0.2315
14199TIP3    H164088   3.359   2.413   5.939 -1.1077 -0.1268 -0.0166
14199TIP3    H264089   3.343   2.523   6.041  0.2886  0.0684  0.0085
14200TIP3   OH264090   2.766   4.541  13.546  0.1384  0.6852  0.1347
14200TIP3    H164091   2.743   4.460  13.590 -3.1282  0.7913 -1.2502
14200TIP3    H264092   2.767   4.607  13.615 -0.4513  0.0606  0.7363
14201TIP3   OH264093   0.143   4.557  14.619  0.1356 -0.2099 -0.0027
14201TIP3    H164094   0.121   4.612  14.695 -0.2285  1.2013 -1.1022
14201TIP3    H264095   0.211   4.607  14.573 -0.3116 -0.6101 -1.1042
14202TIP3   OH264096   6.733   3.954   0.152 -0.5888 -0.2229 -0.3609
14202TIP3    H164097   6.749   4.046   0.176 -2.0080  0.0084 -0.2399
14202TIP3    H264098   6.818   3.912   0.162 -0.0046  0.9929 -0.0129
14203TIP3   OH264099   0.136   3.922  16.493  0.3846  0.2551 -0.1467
14203TIP3    H164100   0.106   3.848  16.544  0.2315  0.2110 -0.2969
14203TIP3    H264101   0.103   3.905  16.404 -0.7345  1.1095  0.0835
14204TIP3   OH264102   2.345   3.169  12.616  0.4025 -0.0222  0.0933
14204TIP3    H164103   2.297   3.088  12.635  1.3500 -0.8474 -0.9310
14204TIP3    H264104   2.282   3.224  12.570 -0.3121 -0.0833  0.9807
14205TIP3   OH264105   0.104   1.009  16.631  0.3143 -0.2257  0.0832
14205TIP3    H164106   0.131   1.045  16.546 -0.5660 -0.7550 -0.4400
14205TIP3    H264107   0.179   1.024  16.688  1.9691 -2.1746 -1.4731
14206TIP3   OH264108   2.411   4.674   1.092  0.3928 -0.0831 -0.2554
14206TIP3    H164109   2.357   4.612   1.042 -2.2533  1.6893  0.2847
14206TIP3    H264110   2.411   4.639   1.181  0.0951 -0.0530 -0.2435
14207TIP3   OH264111   2.718   5.870   5.871  0.2640  0.5807  0.1711
14207TIP3    H164112   2.652   5.881   5.939  1.0155  2.0358  0.6899
14207TIP3    H264113   2.768   5.951   5.872  1.7870 -0.3092 -0.5184
14208TIP3   OH264114   1.392   3.767   1.798 -0.2307 -0.0404 -0.0988
14208TIP3    H164115   1.423   3.686   1.757 -1.2814  0.1995 -1.3740
14208TIP3    H264116   1.308   3.744   1.836 -0.6716  0.5189 -0.7240
14209TIP3   OH264117   3.119   0.757   3.287 -0.4070 -0.5025 -0.0042
14209TIP3    H164118   3.198   0.768   3.233 -1.6321  0.3512 -1.6697
14209TIP3    H264119   3.120   0.665   3.312  0.9930 -0.5603 -0.2217
14210TIP3   OH264120   0.220   0.416   5.735 -0.1222  0.4817 -0.1158
14210TIP3    H164121   0.241   0.451   5.822 -0.5597  1.4492 -0.3970
14210TIP3    H264122   0.268   0.473   5.674  0.5718 -0.4880 -0.4922
14211TIP3   OH264123   0.103   6.164  14.989 -0.2216 -0.3252  0.2224
14211TIP3    H164124   0.067   6.178  15.077  1.4130 -0.4096  0.9169
14211TIP3    H264125   0.043   6.102  14.948 -1.9311  0.9811  0.6807
14212TIP3   OH264126   1.320   6.261  14.905 -0.4906 -0.6955 -0.0056
14212TIP3    H164127   1.362   6.234  14.823  1.0209 -1.6886  1.0588
14212TIP3    H264128   1.361   6.345  14.927 -0.5402 -0.6672 -0.0211
14213TIP3   OH264129   0.320   3.691  16.354 -0.6630  0.6821 -0.6491
14213TIP3    H164130   0.320   3.641  16.436 -0.0847 -0.2832 -1.2271
14213TIP3    H264131   0.410   3.683  16.322 -1.3592 -0.5899 -2.3630
14214TIP3   OH264132   3.031   3.968  11.831  0.4378  0.0808 -0.1938
14214TIP3    H164133   3.024   3.885  11.783  0.2977  0.2475 -0.4604
14214TIP3    H264134   2.959   3.966  11.894  0.4561 -0.0141 -0.1759
14215TIP3   OH264135   4.127   5.858  16.444 -0.6225  0.0410  0.2113
14215TIP3    H164136   4.132   5.773  16.401  0.6912 -0.5421  1.4485
14215TIP3    H264137   4.148   5.921  16.375  3.0234 -0.9772  0.2857
14216TIP3   OH264138   5.867   5.771   4.748  0.1156 -0.2173 -0.1000
14216TIP3    H164139   5.895   5.789   4.837 -0.0157 -0.4005 -0.0198
14216TIP3    H264140   5.883   5.853   4.700  1.2259 -0.4770 -0.1720
14217TIP3   OH264141   5.485   0.541  13.755 -0.5318 -0.8099 -0.4561
14217TIP3    H164142   5.398   0.524  13.792 -0.2545 -0.4177  0.3920
14217TIP3    H264143   5.524   0.605  13.815  0.1740 -0.6572 -1.0770
14218TIP3   OH264144   3.397   2.906   4.931 -0.2668  0.2018  0.4491
14218TIP3    H164145   3.436   2.993   4.935 -0.1158  0.2552 -1.7098
14218TIP3    H264146   3.395   2.884   4.838  3.1019 -3.6819  1.1673
14219TIP3   OH264147   2.799   6.552  11.295 -0.2903 -0.2266  0.2914
14219TIP3    H164148   2.768   6.553  11.386  2.1866  2.8578  1.1559
14219TIP3    H264149   2.788   6.642  11.264  1.6332 -0.5740 -1.5107
14220TIP3   OH264150   4.928   4.487  10.793 -0.3093  0.0815 -0.0611
14220TIP3    H164151   4.897   4.508  10.882  1.5513 -1.5536  1.0219
14220TIP3    H264152   4.996   4.552  10.775 -2.0434  1.6518 -1.1297
14221TIP3   OH264153   2.137   2.308  11.211  0.4645 -0.1884 -0.0231
14221TIP3    H164154   2.108   2.246  11.277  1.8929  2.5831  3.3816
14221TIP3    H264155   2.232   2.311  11.220  0.5732  1.2109 -1.2823
14222TIP3   OH264156   2.129   5.597   5.669  0.1540  0.2081  0.2748
14222TIP3    H164157   2.059   5.619   5.730  1.7389  2.4379  1.3832
14222TIP3    H264158   2.089   5.601   5.583 -1.4570 -0.1477  1.0000
14223TIP3   OH264159   5.038   2.008   2.738  0.3539  0.5233  0.3314
14223TIP3    H164160   5.109   1.972   2.791  0.2111 -1.5300 -0.8224
14223TIP3    H264161   4.962   1.953   2.760 -0.8565  2.6070  1.4550
14224TIP3   OH264162   2.130   5.216  17.185  0.0120  0.3007  0.1528
14224TIP3    H164163   2.088   5.220  17.100  0.8325  0.9126 -0.2315
14224TIP3    H264164   2.140   5.123  17.203 -0.3825  0.1715 -0.3115
14225TIP3   OH264165   1.519   5.812   0.654 -0.2704  0.1117 -0.2512
14225TIP3    H164166   1.537   5.737   0.712 -1.8467 -0.6932 -0.7781
14225TIP3    H264167   1.437   5.789   0.611 -0.3255  1.7868 -1.0456
14226TIP3   OH264168   0.409   6.769   0.388  0.5220  0.2286  0.2687
14226TIP3    H164169   0.401   6.762   0.292  2.3657 -2.2998  0.2718
14226TIP3    H264170   0.343   6.708   0.422  2.8598 -2.2272  0.5245
14227TIP3   OH264171   5.124   2.111   0.545 -0.1203  0.4146  0.4998
14227TIP3    H164172   5.054   2.071   0.598 -0.5886  0.1769 -0.2932
14227TIP3    H264173   5.078   2.152   0.472  0.4899  1.1711  0.5378
14228TIP3   OH264174   0.727   5.904   2.500  0.4648  0.9382 -0.5774
14228TIP3    H164175   0.680   5.934   2.578  0.9817  0.9606 -0.2720
14228TIP3    H264176   0.818   5.926   2.517  1.1362 -2.2156  0.3635
14229TIP3   OH264177   4.558   1.890   1.747  0.1518 -0.6642  0.1669
14229TIP3    H164178   4.504   1.907   1.824  0.8407  0.1357  0.4707
14229TIP3    H264179   4.638   1.850   1.781  1.4024  1.6915  0.1025
14230TIP3   OH264180   3.417   1.642  15.682 -0.5328 -0.2421  0.1965
14230TIP3    H164181   3.370   1.601  15.609 -0.4233  1.4153 -0.8178
14230TIP3    H264182   3.424   1.572  15.748  0.9547 -2.3449 -2.0768
14231TIP3   OH264183   6.700   0.791   6.293 -0.1973  0.0415  0.6788
14231TIP3    H164184   6.634   0.780   6.362 -0.6250  2.4814  0.6788
14231TIP3    H264185   6.719   0.884   6.293  0.2282 -0.0223 -2.1470
14232TIP3   OH264186   2.223   2.547  13.396  0.1209  1.0175 -0.2143
14232TIP3    H164187   2.171   2.572  13.472  0.4458  1.2661 -0.0725
14232TIP3    H264188   2.196   2.608  13.328 -0.3428  0.6429 -0.3730
14233TIP3   OH264189   3.274   6.707   0.535 -0.2386 -0.1556 -0.3591
14233TIP3    H164190   3.233   6.666   0.459 -0.0321  0.4650 -0.8008
14233TIP3    H264191   3.350   6.652   0.554 -1.0739 -1.1326  0.2749
14234TIP3   OH264192   4.637   3.340  15.647  0.4154  0.4643 -0.0528
14234TIP3    H164193   4.731   3.354  15.642  0.7837 -1.7798  0.1248
14234TIP3    H264194   4.627   3.263  15.703 -1.6037  1.5438  1.1543
14235TIP3   OH264195   1.189   2.308  14.728  0.3667 -0.1372  0.6752
14235TIP3    H164196   1.132   2.333  14.655  0.3503 -0.4736  0.5728
14235TIP3    H264197   1.174   2.377  14.793  2.7364  1.9179 -0.8532
14236TIP3   OH264198   5.587   5.426   6.793 -0.0548 -0.4467 -0.2889
14236TIP3    H164199   5.560   5.392   6.708 -2.2426  0.7491 -0.1072
14236TIP3    H264200   5.519   5.396   6.854 -0.9537  2.4314  0.2298
14237TIP3   OH264201   3.437   5.662   6.028 -0.5511 -0.1654  0.2266
14237TIP3    H164202   3.473   5.674   5.940 -0.0442 -3.2128 -0.0417
14237TIP3    H264203   3.514   5.665   6.085 -0.6944  0.2553  0.3975
14238TIP3   OH264204   2.464   3.017   6.476  0.0383  0.0695  0.5283
14238TIP3    H164205   2.508   2.970   6.405  0.8691  0.1065  1.0126
14238TIP3    H264206   2.437   2.949   6.537 -2.3126 -0.1254 -0.7114
14239TIP3   OH264207   0.710   0.526   2.572 -0.0784  0.1645  0.2235
14239TIP3    H164208   0.775   0.587   2.608  1.1173  0.2225 -1.9599
14239TIP3    H264209   0.626   0.569   2.587  0.7729  2.6912 -1.8197
14240TIP3   OH264210   5.861   1.999   4.855  0.3549  0.2968 -0.2507
14240TIP3    H164211   5.906   2.078   4.827  0.0796  0.3936 -0.4185
14240TIP3    H264212   5.800   1.979   4.784 -1.3023  1.2915  0.8532
14241TIP3   OH264213   0.805   5.992   1.726 -0.1374  0.5124  0.2399
14241TIP3    H164214   0.863   6.037   1.787 -1.0789  0.8980  0.8591
14241TIP3    H264215   0.811   6.043   1.645 -0.6199  1.3085  0.7082
14242TIP3   OH264216   4.254   3.303  14.098 -0.3076  0.1615  0.1527
14242TIP3    H164217   4.208   3.221  14.082  0.8727 -0.4729 -0.0697
14242TIP3    H264218   4.246   3.316  14.193 -1.8280  0.6067 -0.0275
14243TIP3   OH264219   2.620   5.847   5.579  0.3804 -0.3575  0.0225
14243TIP3    H164220   2.568   5.818   5.654 -1.2318  0.3549 -0.8019
14243TIP3    H264221   2.689   5.901   5.617  1.3059 -2.3297  1.2479
14244TIP3   OH264222   1.299   1.399  13.932  0.0590 -0.3029 -0.2787
14244TIP3    H164223   1.296   1.428  13.840 -0.6679  1.2129  0.1956
14244TIP3    H264224   1.384   1.429  13.963 -0.1758  0.2396 -0.1430
14245TIP3   OH264225   2.645   0.232   4.817 -0.3538  0.7381  0.5242
14245TIP3    H164226   2.631   0.292   4.744  2.7028  0.6065 -0.2216
14245TIP3    H264227   2.582   0.161   4.802 -0.4174  1.1865 -1.4468
14246TIP3   OH264228   6.042   1.435  12.112  0.0378 -0.5109 -0.2844
14246TIP3    H164229   5.972   1.459  12.173  1.2367  1.7995  0.2586
14246TIP3    H264230   6.104   1.386  12.165  0.8088  1.0118  0.2387
14247TIP3   OH264231   6.018   1.566   1.227  0.0050 -0.2234  0.4971
14247TIP3    H164232   5.949   1.631   1.212 -0.2523 -0.5502  0.2582
14247TIP3    H264233   6.080   1.581   1.156  0.5156  0.5077  1.0892
14248TIP3   OH264234   4.702   4.881   2.754 -0.2068 -0.1522 -0.3057
14248TIP3    H164235   4.701   4.951   2.820  1.3473 -0.1571 -0.2608
14248TIP3    H264236   4.771   4.907   2.693  1.0835 -2.1147  0.2541
14249TIP3   OH264237   6.164   2.486   5.059 -0.4041  0.2232 -0.0317
14249TIP3    H164238   6.208   2.440   4.988 -1.1811 -4.1124  2.1097
14249TIP3    H264239   6.072   2.458   5.052 -0.8197  1.1012  1.6150
14250TIP3   OH264240   1.416   6.675  12.054  0.1054 -0.4833  0.3508
14250TIP3    H164241   1.505   6.705  12.036  0.8062 -1.6850  1.6932
14250TIP3    H264242   1.390   6.626  11.975  0.1559  0.8864 -0.5304
14251TIP3   OH264243   4.658   3.123  12.523 -0.5502  0.1802 -0.0438
14251TIP3    H164244   4.751   3.106  12.507 -0.8913 -0.2109 -1.6422
14251TIP3    H264245   4.637   3.069  12.599  0.5025  0.1879  0.2665
14252TIP3   OH264246   3.413   4.985   1.531  0.3544 -0.2278  0.2194
14252TIP3    H164247   3.444   5.067   1.491 -1.5020  0.7956  0.7963
14252TIP3    H264248   3.477   4.920   1.505  1.5713  1.3091 -0.7353
14253TIP3   OH264249   5.015   4.355  10.571 -0.2020  0.0541 -0.0947
14253TIP3    H164250   4.942   4.372  10.631  1.8368 -0.1758  2.5418
14253TIP3    H264251   4.994   4.406  10.493 -2.1882  1.6005  1.3816
14254TIP3   OH264252   5.949   2.819   4.771 -0.3627  0.1705 -0.5847
14254TIP3    H164253   5.882   2.799   4.706 -1.2030 -0.6990  0.5097
14254TIP3    H264254   5.903   2.809   4.855  0.7174  1.1737  0.1399
14255TIP3   OH264255   2.310   6.290  15.808  0.0386  0.0450  0.1033
14255TIP3    H164256   2.311   6.194  15.799  1.4396 -0.0151  0.7161
14255TIP3    H264257   2.288   6.322  15.721  1.6931 -0.7826 -0.6403
14256TIP3   OH264258   3.085   5.771   4.566 -0.3800 -0.4677  0.3105
14256TIP3    H164259   3.013   5.708   4.576  0.0470 -1.0595 -0.2710
14256TIP3    H264260   3.112   5.792   4.655 -0.4218 -1.2424  0.5055
14257TIP3   OH264261   3.890   1.270  15.160  0.4247 -0.5166 -0.1703
14257TIP3    H164262   3.828   1.201  15.184 -0.4074  0.0483 -0.6955
14257TIP3    H264263   3.922   1.245  15.074 -1.3502  0.7562 -1.2303
14258TIP3   OH264264   4.976   2.378   1.910 -0.7136 -0.4078 -0.5082
14258TIP3    H164265   4.933   2.459   1.884 -1.2416 -0.3052  0.6761
14258TIP3    H264266   5.066   2.387   1.878 -0.6952  0.7669 -0.1244
14259TIP3   OH264267   2.618   6.676  15.121  0.4114  0.0495  0.2483
14259TIP3    H164268   2.569   6.745  15.167 -0.0164 -0.8177  1.1145
14259TIP3    H264269   2.708   6.709  15.117 -0.4120  2.1298 -2.2785
14260TIP3   OH264270   5.350   3.801  11.492  0.0836 -0.1776 -0.0233
14260TIP3    H164271   5.422   3.862  11.475 -0.7828  1.1751  1.0336
14260TIP3    H264272   5.388   3.733  11.546  0.9605 -0.3399 -0.8342
14261TIP3   OH264273   3.867   1.293  12.607  0.5805 -0.3031  0.0380
14261TIP3    H164274   3.856   1.387  12.594  1.4682  0.1064  2.1921
14261TIP3    H264275   3.794   1.268  12.664 -0.6374 -1.2598 -1.8791
14262TIP3   OH264276   2.387   3.357  13.065  0.3923 -0.5837 -0.0700
14262TIP3    H164277   2.370   3.421  13.134  0.3661 -2.0736  1.3199
14262TIP3    H264278   2.412   3.410  12.989  1.5699  1.0108  1.4053
14263TIP3   OH264279   5.975   2.750  16.211  0.4235  0.0759 -0.7851
14263TIP3    H164280   5.950   2.806  16.285 -0.0833 -0.3592 -0.6176
14263TIP3    H264281   5.930   2.667  16.229  0.8170 -0.2363 -1.2552
14264TIP3   OH264282   5.612   0.165   1.763 -0.7342  0.3979 -0.7381
14264TIP3    H164283   5.626   0.190   1.671 -0.3276  0.5804 -0.6264
14264TIP3    H264284   5.609   0.069   1.761 -0.7811  0.4025 -0.9511
14265TIP3   OH264285   2.014   6.173  11.458 -0.1606  0.3003 -0.2561
14265TIP3    H164286   2.090   6.124  11.490 -1.1885 -1.3351 -0.2765
14265TIP3    H264287   1.943   6.148  11.517 -0.9518  0.9591 -0.9185
14266TIP3   OH264288   6.495   3.805   6.999  0.5391 -0.2236  0.0081
14266TIP3    H164289   6.423   3.839   6.946 -0.8520 -1.2179  1.2224
14266TIP3    H264290   6.547   3.882   7.023 -1.3411  0.7734  0.9301
14267TIP3   OH264291   2.674   3.258  10.711  0.6637 -0.3003  0.1845
14267TIP3    H164292   2.696   3.269  10.618  1.3750  2.4951  0.6291
14267TIP3    H264293   2.579   3.247  10.713  0.7945 -1.6416 -0.9715
14268TIP3   OH264294   2.117   5.294   6.092 -0.1180 -0.4335 -0.8386
14268TIP3    H164295   2.072   5.355   6.033 -0.4811  0.1890  0.0618
14268TIP3    H264296   2.049   5.265   6.153 -0.1191 -2.3631 -1.7435
14269TIP3   OH264297   5.813   5.872  10.743  0.3154 -0.6955 -0.1217
14269TIP3    H164298   5.888   5.829  10.703  1.2055  0.8296 -0.1044
14269TIP3    H264299   5.761   5.904  10.669  0.4342 -0.4732 -0.1104
14270TIP3   OH264300   1.624   3.321   2.924  0.3166  0.3160  0.1994
14270TIP3    H164301   1.610   3.416   2.921 -0.3635  0.2062 -0.2040
14270TIP3    H264302   1.587   3.295   3.008  0.4981  0.4083  0.3085
14271TIP3   OH264303   6.598   4.109  15.451  0.3690 -0.2226 -0.2136
14271TIP3    H164304   6.671   4.078  15.503  1.4345  0.7365 -1.1084
14271TIP3    H264305   6.581   4.039  15.389  0.5126 -0.4549  0.0077
14272TIP3   OH264306   4.160   2.252   1.334 -0.0339  0.5230 -0.3330
14272TIP3    H164307   4.089   2.265   1.397 -0.9643 -1.8255 -0.8350
14272TIP3    H264308   4.240   2.263   1.385 -0.7798  0.2950  0.8925
14273TIP3   OH264309   5.816   0.714   4.310  0.2154 -0.3432 -0.2204
14273TIP3    H164310   5.770   0.643   4.265 -1.8801 -0.8966  2.6842
14273TIP3    H264311   5.747   0.776   4.333  1.5565  0.9688  0.3156
14274TIP3   OH264312   5.703   3.157   4.548  0.6198 -0.3887 -1.0520
14274TIP3    H164313   5.694   3.130   4.640 -3.1561  0.9146 -0.9535
14274TIP3    H264314   5.748   3.242   4.552 -0.2991  0.0766 -0.3051
14275TIP3   OH264315   1.772   5.213  12.407 -0.0280  0.1160 -0.0021
14275TIP3    H164316   1.829   5.235  12.480  2.3666 -1.0984 -1.4354
14275TIP3    H264317   1.690   5.185  12.447  1.0014  0.1530  2.1632
14276TIP3   OH264318   2.470   5.074   2.154 -0.4156  0.4473 -0.0805
14276TIP3    H164319   2.507   5.134   2.089  0.1868 -1.1037 -1.1882
14276TIP3    H264320   2.379   5.062   2.127 -0.1789 -0.1584 -0.5902
14277TIP3   OH264321   2.686   4.429   4.621 -0.6612  0.5857 -0.1153
14277TIP3    H164322   2.748   4.356   4.632 -0.9681  0.4486  0.7879
14277TIP3    H264323   2.641   4.410   4.539  0.6393  0.7997 -0.8903
14278TIP3   OH264324   1.105   3.098  10.454 -0.7260  0.0671  0.5222
14278TIP3    H164325   1.027   3.148  10.429 -1.3723 -0.9176  0.5464
14278TIP3    H264326   1.095   3.014  10.410 -0.2087 -0.4623  1.3888
14279TIP3   OH264327   2.032   2.645   1.106  0.4589 -0.1338  0.1707
14279TIP3    H164328   2.088   2.624   1.181 -1.5707 -2.2323  1.1417
14279TIP3    H264329   2.034   2.566   1.052 -0.2326  0.4049 -0.6482
14280TIP3   OH264330   5.146   3.536   5.205  0.1779  0.5505 -0.2318
14280TIP3    H164331   5.203   3.499   5.138  0.9231  2.5340 -0.7209
14280TIP3    H264332   5.057   3.519   5.172  0.4315 -2.1324  0.3154
14281TIP3   OH264333   4.583   2.107  11.238 -0.2165  0.2514  0.2566
14281TIP3    H164334   4.538   2.165  11.299  2.0757  1.6403  0.6766
14281TIP3    H264335   4.611   2.164  11.166 -2.4525 -1.2772 -1.8957
14282TIP3   OH264336   5.914   1.446  15.675  0.6324  0.6872  0.0694
14282TIP3    H164337   5.927   1.539  15.693  1.6613  0.0990  2.6351
14282TIP3    H264338   6.003   1.410  15.674  0.2610 -0.2119 -1.2644
14283TIP3   OH264339   4.842   3.915   6.388 -0.4896 -0.8837 -0.1674
14283TIP3    H164340   4.923   3.942   6.431 -0.7412  2.2313 -1.5150
14283TIP3    H264341   4.867   3.840   6.334  0.6762 -2.2433  2.2037
14284TIP3   OH264342   3.685   2.776  15.122 -0.0184 -0.8620 -0.2455
14284TIP3    H164343   3.613   2.839  15.124  0.6514 -0.0732 -0.3989
14284TIP3    H264344   3.652   2.704  15.069 -0.2705  0.0305 -1.3354
14285TIP3   OH264345   3.988   0.891   0.180  0.5372  0.4744 -0.3853
14285TIP3    H164346   3.902   0.858   0.205  1.2684 -1.5617 -0.5141
14285TIP3    H264347   3.976   0.921   0.089  0.5967 -2.2661 -1.3318
14286TIP3   OH264348   6.262   1.910   3.680  0.1171 -0.1491  0.4933
14286TIP3    H164349   6.330   1.847   3.656 -0.9179 -1.3205  0.5989
14286TIP3    H264350   6.211   1.866   3.748 -1.7316  0.0789 -0.7264
14287TIP3   OH264351   3.429   5.541  16.512 -0.6382  0.0111 -0.1841
14287TIP3    H164352   3.511   5.582  16.483 -0.6243  0.2745  0.2250
14287TIP3    H264353   3.400   5.594  16.586 -0.9125 -0.3929 -0.0001
14288TIP3   OH264354   1.443   2.018  12.150  0.0549  0.5890 -0.1907
14288TIP3    H164355   1.512   1.995  12.211  0.6246 -0.5882 -1.2482
14288TIP3    H264356   1.362   2.000  12.198  0.4936  0.4121  0.4859
14289TIP3   OH264357   5.743   5.480  16.081  0.1528  0.0513  0.1490
14289TIP3    H164358   5.730   5.575  16.086  0.7029  0.2093 -1.2132
14289TIP3    H264359   5.672   5.450  16.024  0.5380 -0.2414 -0.1733
14290TIP3   OH264360   3.696   6.510   3.727 -0.6841 -0.0361 -0.4493
14290TIP3    H164361   3.651   6.575   3.780  1.0297  0.0352  0.9700
14290TIP3    H264362   3.716   6.439   3.787 -0.0398 -0.6255 -1.3381
14291TIP3   OH264363   5.284   4.773   2.565  0.3793 -0.1730 -0.0393
14291TIP3    H164364   5.312   4.697   2.514  2.8614 -0.9508  2.3881
14291TIP3    H264365   5.201   4.745   2.605 -0.3823 -0.3886 -1.7163
14292TIP3   OH264366   1.683   2.863   5.422  0.1606 -1.0048 -0.2099
14292TIP3    H164367   1.652   2.904   5.502  0.1508 -0.7295 -0.3545
14292TIP3    H264368   1.608   2.813   5.390 -0.1290 -0.3513 -0.5515
14293TIP3   OH264369   4.936   5.265  15.998  0.4499 -1.0671 -0.1292
14293TIP3    H164370   4.877   5.317  15.943 -0.9719 -1.2756  1.1665
14293TIP3    H264371   4.888   5.184  16.014  0.7361 -0.8988  1.6497
14294TIP3   OH264372   5.144   0.321  13.006 -0.0504 -0.3063 -0.8238
14294TIP3    H164373   5.051   0.337  12.994 -0.6823 -2.2463  1.1221
14294TIP3    H264374   5.161   0.240  12.957  0.5639 -0.1003 -0.9581
14295TIP3   OH264375   1.237   3.696   2.754 -0.6620 -0.4869  0.0012
14295TIP3    H164376   1.221   3.753   2.830 -3.2920 -0.9449 -0.1436
14295TIP3    H264377   1.200   3.611   2.781  3.1001 -2.1474  0.1770
14296TIP3   OH264378   5.749   5.360   6.470  0.5257  0.0114 -0.1079
14296TIP3    H164379   5.785   5.358   6.558 -0.2828 -1.0923  0.2117
14296TIP3    H264380   5.684   5.290   6.469 -0.2214  0.6998 -1.2610
14297TIP3   OH264381   5.222   6.652  15.990 -0.9481  0.0548 -0.6003
14297TIP3    H164382   5.257   6.574  15.948  0.0454  0.3253 -0.2919
14297TIP3    H264383   5.160   6.620  16.055  1.3661 -0.6166  1.3287
14298TIP3   OH264384   3.542   2.976  11.431 -0.1198  0.2106  0.1113
14298TIP3    H164385   3.606   2.914  11.465 -2.0138 -1.9637 -0.1956
14298TIP3    H264386   3.582   3.011  11.351 -0.4965 -3.3615 -1.7389
14299TIP3   OH264387   1.420   1.341  11.893  0.2045  0.4039  0.4371
14299TIP3    H164388   1.344   1.348  11.951  1.1149 -1.6121  1.9497
14299TIP3    H264389   1.414   1.253  11.856 -0.1018  1.5016 -2.2039
14300TIP3   OH264390   3.212   1.167   5.566 -0.3131  0.2283 -0.2186
14300TIP3    H164391   3.256   1.101   5.620  2.2699  2.0026 -0.0808
14300TIP3    H264392   3.159   1.217   5.628 -0.5053 -0.2863  0.0362
14301TIP3   OH264393   3.735   4.351   2.487  0.4946  0.5502 -0.3930
14301TIP3    H164394   3.747   4.256   2.488 -0.4656  0.4164  1.4849
14301TIP3    H264395   3.772   4.380   2.404  0.7091 -1.4860 -1.0181
14302TIP3   OH264396   4.636   0.479  14.311  0.1527 -0.2012  0.8725
14302TIP3    H164397   4.683   0.435  14.241  0.2872  0.5391  0.4909
14302TIP3    H264398   4.565   0.419  14.335 -0.7326  0.1468 -0.8492
14303TIP3   OH264399   4.515   4.444  15.012 -0.7720 -0.9922 -0.5120
14303TIP3    H164400   4.576   4.385  14.967  0.1995 -0.5388  0.1936
14303TIP3    H264401   4.487   4.396  15.089 -0.0956 -0.6079 -0.0157
14304TIP3   OH264402   6.189   3.535   3.724  0.1999 -0.1049  0.5134
14304TIP3    H164403   6.272   3.526   3.770  1.1888  0.8222 -1.0669
14304TIP3    H264404   6.146   3.611   3.764  0.6016  0.0833  0.5810
14305TIP3   OH264405   6.068   4.762   6.217 -0.0938 -0.3038 -0.7832
14305TIP3    H164406   6.063   4.858   6.213  1.3551 -0.0651  1.9446
14305TIP3    H264407   6.161   4.742   6.214 -0.2589 -1.4701  1.0724
14306TIP3   OH264408   5.011   0.153   4.269 -0.8494  0.6726  1.0604
14306TIP3    H164409   5.039   0.119   4.185  1.3044  1.8795  1.2619
14306TIP3    H264410   4.933   0.102   4.291 -0.0138 -1.3275 -0.4962
14307TIP3   OH264411   2.289   3.456   6.124 -0.4871 -0.4417  0.1118
14307TIP3    H164412   2.318   3.384   6.180  0.1376  1.5076  2.3820
14307TIP3    H264413   2.195   3.444   6.116 -0.1077 -2.7422 -1.3778
14308TIP3   OH264414   4.350   4.717   5.322 -0.1875 -0.2016 -0.6038
14308TIP3    H164415   4.389   4.679   5.400  2.7497  3.2255 -0.2790
14308TIP3    H264416   4.263   4.746   5.351 -0.3432 -1.7441  0.5348
14309TIP3   OH264417   0.038   5.691  12.034  0.5202  0.0171 -0.2247
14309TIP3    H164418   0.079   5.704  11.949 -3.1488  0.4175 -2.0471
14309TIP3    H264419  -0.028   5.760  12.040 -1.8099 -2.2479  1.2888
14310TIP3   OH264420   4.708   6.642  17.246 -0.1377  0.1688  0.3269
14310TIP3    H164421   4.707   6.687  17.330 -0.7948  2.1638 -0.7361
14310TIP3    H264422   4.664   6.701  17.185 -2.6420 -2.6173 -0.7395
14311TIP3   OH264423   0.800   2.679  15.784 -0.6316 -0.3951 -0.0538
14311TIP3    H164424   0.753   2.670  15.867 -0.4753  0.3112  0.1130
14311TIP3    H264425   0.743   2.734  15.730  0.6001  1.6026  0.6218
14312TIP3   OH264426   5.051   3.866   4.183  0.1458  0.0892 -0.2551
14312TIP3    H164427   5.085   3.811   4.254 -1.3266 -2.2062 -1.2410
14312TIP3    H264428   4.957   3.873   4.201  0.1708  1.5624 -0.6521
14313TIP3   OH264429   3.181   4.562  15.075  0.3600  0.0333 -0.0866
14313TIP3    H164430   3.263   4.582  15.030  0.3408 -0.4999 -0.3743
14313TIP3    H264431   3.176   4.466  15.074  0.8706 -0.0293  1.9908
14314TIP3   OH264432   3.868   1.229   1.661 -0.2098 -0.6749  0.6390
14314TIP3    H164433   3.879   1.197   1.571  3.4652  2.0897 -0.0233
14314TIP3    H264434   3.781   1.268   1.662 -0.7854 -1.8516 -1.3676
14315TIP3   OH264435   3.795   1.325   3.741  0.0190  0.7534 -0.1053
14315TIP3    H164436   3.750   1.360   3.817 -1.2588  0.8168 -0.8817
14315TIP3    H264437   3.850   1.397   3.710  0.4969  0.7432  0.7143
14316TIP3   OH264438   1.219   3.459  14.324 -0.2143 -0.0838  0.5753
14316TIP3    H164439   1.167   3.386  14.289  1.7500 -1.0378 -0.3965
14316TIP3    H264440   1.231   3.439  14.416  0.5514 -1.1440  0.2498
14317TIP3   OH264441   1.151   0.148  13.713 -0.5456 -0.1912  0.3316
14317TIP3    H164442   1.153   0.058  13.679  0.2395 -0.1563  0.2684
14317TIP3    H264443   1.132   0.202  13.636 -0.6748 -0.2766  0.3051
14318TIP3   OH264444   6.744   0.504  14.887  0.1439 -0.0347  0.1367
14318TIP3    H164445   6.784   0.541  14.808  1.5470  0.5935  1.1324
14318TIP3    H264446   6.649   0.510  14.871  0.3662  2.2481 -0.5207
14319TIP3   OH264447   6.120   0.192  15.120  0.0130  0.3053 -0.1738
14319TIP3    H164448   6.034   0.176  15.158  0.3974  1.7677  1.4581
14319TIP3    H264449   6.153   0.106  15.096 -1.2810 -0.4184  0.5852
14320TIP3   OH264450   3.918   4.669   5.717  0.0491 -0.3130  0.2846
14320TIP3    H164451   3.987   4.607   5.693  0.7390 -0.4608  2.5622
14320TIP3    H264452   3.857   4.667   5.643  0.8983 -2.4875 -0.3897
14321TIP3   OH264453   4.527   4.414  14.001  0.1411 -0.5612  0.1788
14321TIP3    H164454   4.496   4.463  14.077 -1.6742 -1.1660 -0.1572
14321TIP3    H264455   4.576   4.479  13.950  0.0459  0.2312  1.0789
14322TIP3   OH264456   2.213   6.108   3.856  0.2824 -0.3960  0.0490
14322TIP3    H164457   2.271   6.151   3.793 -1.4195  0.0277 -1.2727
14322TIP3    H264458   2.157   6.051   3.802 -1.7617  0.5918  1.0523
14323TIP3   OH264459   0.498   5.586  12.944 -0.2147 -0.4125  0.0860
14323TIP3    H164460   0.569   5.615  12.887 -0.0156 -0.5789  0.2486
14323TIP3    H264461   0.542   5.541  13.016 -0.5090 -1.0100 -0.0978
14324TIP3   OH264462   2.076   2.544  10.383 -0.4081 -0.1973  0.1990
14324TIP3    H164463   2.038   2.473  10.332 -1.1700 -0.1927  0.7551
14324TIP3    H264464   2.011   2.614  10.380  0.4502  0.5953 -0.5775
14325TIP3   OH264465   1.548   0.219   0.886  0.4883  0.2719 -0.0241
14325TIP3    H164466   1.563   0.151   0.951 -2.4891  0.2776  0.7230
14325TIP3    H264467   1.459   0.204   0.855  1.3581  1.1023 -3.1558
14326TIP3   OH264468   5.909   1.653  15.420  0.2358  0.0753 -0.2411
14326TIP3    H164469   5.902   1.743  15.390  0.1974 -0.3575 -1.5919
14326TIP3    H264470   5.878   1.601  15.345  0.0914 -1.0395  0.5848
14327TIP3   OH264471   1.044   5.416  15.233  0.4835  0.1835  0.6716
14327TIP3    H164472   1.054   5.410  15.328 -0.1087 -0.3985  0.6927
14327TIP3    H264473   1.013   5.330  15.206 -1.7451  1.0848  0.2520
14328TIP3   OH264474   4.154   4.836  16.193  0.4482  0.7594  0.5223
14328TIP3    H164475   4.066   4.800  16.198  0.1012  1.5505  0.1878
14328TIP3    H264476   4.143   4.921  16.150  1.2312  1.3240  1.4091
14329TIP3   OH264477   3.377   5.953  12.738  0.3241 -0.0649  0.1036
14329TIP3    H164478   3.404   5.974  12.649  0.3429 -0.7998 -0.0690
14329TIP3    H264479   3.425   6.015  12.793  1.2477 -0.4029 -0.3133
14330TIP3   OH264480   1.553   6.409  13.872 -0.7448 -0.0521  0.1240
14330TIP3    H164481   1.565   6.502  13.851  0.2367 -0.3925 -0.8625
14330TIP3    H264482   1.605   6.395  13.951  0.5234 -0.1370 -0.7032
14331TIP3   OH264483   2.075   4.751   1.361  0.3597 -0.6776 -0.0148
14331TIP3    H164484   2.000   4.718   1.412  0.2892 -0.9646 -0.3017
14331TIP3    H264485   2.152   4.725   1.412  0.2791 -0.7053  0.0940
14332TIP3   OH264486   3.726   1.836   2.475 -0.3414 -0.2779 -0.3635
14332TIP3    H164487   3.631   1.836   2.485 -0.1354  0.7584  1.9748
14332TIP3    H264488   3.756   1.765   2.531  0.3729  0.6870  0.5012
14333TIP3   OH264489   3.123   1.081  12.915 -0.8151  0.3829  0.1140
14333TIP3    H164490   3.038   1.056  12.950 -1.0313  1.2826  0.2332
14333TIP3    H264491   3.161   1.138  12.981  0.1519 -0.5092  0.3406
14334TIP3   OH264492   2.429   5.365   5.188  0.0633 -0.2405 -0.5314
14334TIP3    H164493   2.400   5.318   5.265 -1.0176  0.0371 -0.7658
14334TIP3    H264494   2.454   5.297   5.126 -2.0657 -0.5437 -1.0933
14335TIP3   OH264495   4.353   1.385  12.911 -0.3049 -0.5233  0.0398
14335TIP3    H164496   4.281   1.353  12.856 -1.3764  1.5729  0.1724
14335TIP3    H264497   4.340   1.341  12.995  0.3439 -2.4440 -0.8427
14336TIP3   OH264498   5.159   0.809   6.109  0.2165 -0.2892  0.0638
14336TIP3    H164499   5.197   0.828   6.023 -2.0997 -2.5631 -1.5584
14336TIP3    H264500   5.234   0.786   6.163  1.5909 -0.4802 -1.8440
14337TIP3   OH264501   5.363   5.096  12.566 -0.1713  1.1933 -0.9325
14337TIP3    H164502   5.350   5.044  12.487  0.9474  0.1546 -0.4563
14337TIP3    H264503   5.450   5.071  12.597 -0.4663  1.8159  0.4480
14338TIP3   OH264504   3.267   0.130  12.306 -0.0022 -0.4076  0.1199
14338TIP3    H164505   3.280   0.212  12.259 -0.2575 -0.4228  0.0191
14338TIP3    H264506   3.340   0.074  12.279 -1.2901 -1.1540 -1.8810
14339TIP3   OH264507   6.095   2.804  14.696  0.0300 -0.2051 -0.1618
14339TIP3    H164508   6.140   2.737  14.646 -1.8610 -0.5186 -1.4517
14339TIP3    H264509   6.069   2.870  14.631 -0.2636  0.5950  0.7498
14340TIP3   OH264510   0.921   0.009   6.050  0.5372 -0.1577 -0.1817
14340TIP3    H164511   0.927  -0.023   5.960  0.8649  0.6846 -0.4624
14340TIP3    H264512   0.853  -0.046   6.090 -0.9934  0.7183 -1.4972
14341TIP3   OH264513   2.484   1.715  11.053  0.0921  0.4091 -0.1578
14341TIP3    H164514   2.536   1.794  11.066 -0.6677  1.0574 -0.9596
14341TIP3    H264515   2.393   1.746  11.058 -0.2656 -0.8659  2.3268
14342TIP3   OH264516   5.561   0.317   4.594  0.4364  0.1286  0.4209
14342TIP3    H164517   5.580   0.406   4.625  0.0915  0.2319  0.3399
14342TIP3    H264518   5.549   0.266   4.673  2.1816 -0.1939  0.4957
14343TIP3   OH264519   0.557   3.333   2.546  0.1774 -0.0100 -0.1286
14343TIP3    H164520   0.590   3.372   2.627 -0.9778  1.2015 -0.2187
14343TIP3    H264521   0.492   3.268   2.575  1.4300 -1.2179 -0.0098
14344TIP3   OH264522   3.103   2.350  16.946 -0.7087 -0.2727  0.6718
14344TIP3    H164523   3.105   2.413  17.018  1.6283  1.5578 -0.9063
14344TIP3    H264524   3.189   2.308  16.950 -1.3987 -1.7391  0.2911
14345TIP3   OH264525   2.371   0.568  15.644 -0.0587 -0.0441  0.1177
14345TIP3    H164526   2.405   0.520  15.568 -1.0597  0.0630 -0.3961
14345TIP3    H264527   2.290   0.523  15.667  0.0549  0.1499  0.8982
14346TIP3   OH264528   2.489   5.868  11.490 -0.6230 -0.0507 -0.5567
14346TIP3    H164529   2.545   5.931  11.536 -1.6508  0.0495  0.5892
14346TIP3    H264530   2.546   5.792  11.475  0.3672  0.8044 -1.1456
14347TIP3   OH264531   4.735   0.698   0.205  0.3421  0.0713 -0.2942
14347TIP3    H164532   4.703   0.608   0.199  0.7308 -0.0571 -0.5313
14347TIP3    H264533   4.814   0.691   0.259  0.4284  0.2487 -0.3970
14348TIP3   OH264534   6.470   4.871  14.850 -0.3712  0.8213  0.0513
14348TIP3    H164535   6.376   4.887  14.843 -0.2443  1.7395  0.3025
14348TIP3    H264536   6.481   4.779  14.828 -1.6857 -0.0466  2.8290
14349TIP3   OH264537   1.997   3.928   1.802  0.1626  0.3807  0.4565
14349TIP3    H164538   1.914   3.975   1.801 -1.1148 -1.7874  0.9297
14349TIP3    H264539   2.029   3.934   1.892 -0.3000 -0.1516  0.6576
14350TIP3   OH264540   2.120   0.895   0.512  0.3848 -0.2056  0.0344
14350TIP3    H164541   2.105   0.864   0.602  1.4761  0.9719  0.6402
14350TIP3    H264542   2.212   0.876   0.495 -0.0900 -1.3873 -1.2291
14351TIP3   OH264543   4.650   1.276   6.169 -0.1587  0.3696  0.4535
14351TIP3    H164544   4.599   1.219   6.227 -0.9728  1.6764  1.0369
14351TIP3    H264545   4.729   1.297   6.219 -0.6828  1.1839  0.9499
14352TIP3   OH264546   1.175   6.215   0.264  0.0016 -0.3110 -0.9103
14352TIP3    H164547   1.139   6.241   0.348  1.1739  0.6042 -0.6748
14352TIP3    H264548   1.214   6.129   0.281 -0.7174 -0.6173 -0.7943
14353TIP3   OH264549   3.248   3.204  12.779  0.1487 -0.1616  0.5004
14353TIP3    H164550   3.336   3.171  12.797 -0.0342 -1.6076 -1.1392
14353TIP3    H264551   3.201   3.189  12.861  1.2891  0.1588  1.2305
14354TIP3   OH264552   0.712   4.146  17.140  0.0679 -0.4998 -0.6450
14354TIP3    H164553   0.630   4.105  17.167 -0.9413  1.1549 -1.1346
14354TIP3    H264554   0.727   4.113  17.052  0.0821 -1.0493 -0.4370
14355TIP3   OH264555   5.489   0.855   3.273 -0.4548 -0.1946 -0.1303
14355TIP3    H164556   5.559   0.884   3.215  0.0512  1.9643  1.5147
14355TIP3    H264557   5.409   0.892   3.235 -0.0225  1.9300  0.9783
14356TIP3   OH264558   4.687   6.682   1.615  0.1704 -0.1907  0.1851
14356TIP3    H164559   4.640   6.689   1.532 -0.2881 -0.0872  0.4558
14356TIP3    H264560   4.779   6.693   1.591  0.0350 -0.1231 -0.3047
14357TIP3   OH264561   0.378   0.969   0.989 -0.4253 -0.0506  0.1402
14357TIP3    H164562   0.334   0.989   0.906 -2.6536 -0.0466  1.2798
14357TIP3    H264563   0.307   0.964   1.053  1.4045  2.0449  2.4656
14358TIP3   OH264564   1.613   2.311   2.264 -0.1503 -0.5482 -0.3859
14358TIP3    H164565   1.642   2.286   2.352 -0.2573 -0.2451 -0.2636
14358TIP3    H264566   1.626   2.233   2.211 -0.5113 -0.8729  0.0014
14359TIP3   OH264567   4.569   4.115  10.790  0.1706  0.0565  0.1851
14359TIP3    H164568   4.522   4.049  10.842 -1.5934  1.6985  0.7825
14359TIP3    H264569   4.655   4.077  10.774 -0.6762 -2.2143  0.8281
14360TIP3   OH264570   1.889   2.206   1.041 -0.0814  0.4441 -0.0473
14360TIP3    H164571   1.807   2.253   1.032  0.0837  0.6849 -0.3132
14360TIP3    H264572   1.879   2.129   0.984  0.6167  1.4969 -1.6580
14361TIP3   OH264573   4.577   4.633  16.257 -0.1796  0.3905 -0.4280
14361TIP3    H164574   4.501   4.598  16.303 -0.5265  1.3939 -0.2159
14361TIP3    H264575   4.540   4.687  16.187  0.3177  1.6883  0.2872
14362TIP3   OH264576   2.320   6.508   2.947 -0.3105  0.4464  0.1566
14362TIP3    H164577   2.372   6.561   2.885  0.7916  0.7061  1.2929
14362TIP3    H264578   2.251   6.567   2.976 -1.7742 -0.1546 -1.9925
14363TIP3   OH264579   0.746   2.945   2.732 -0.2501  0.2214  0.1867
14363TIP3    H164580   0.829   2.972   2.772 -1.5059  0.0023  3.0819
14363TIP3    H264581   0.739   2.852   2.752 -1.2399  0.2634  0.0522
14364TIP3   OH264582   3.145   0.033  14.594 -0.5588  0.0030 -0.1978
14364TIP3    H164583   3.094   0.005  14.518 -1.4336  2.7417 -0.6919
14364TIP3    H264584   3.082   0.031  14.666  0.1687 -2.2134  0.4026
14365TIP3   OH264585   1.706   0.201  15.900 -0.3382 -0.4563 -0.6040
14365TIP3    H164586   1.642   0.227  15.966 -0.0590  0.3906 -0.6614
14365TIP3    H264587   1.750   0.282  15.876  0.0474 -0.8720 -1.3194
14366TIP3   OH264588   2.224   2.861  16.720  0.2864 -0.0051  0.0571
14366TIP3    H164589   2.128   2.857  16.725  0.3464 -0.5025  1.0050
14366TIP3    H264590   2.251   2.769  16.723  0.7972  0.1411 -0.1023
14367TIP3   OH264591   3.412   5.735  17.144 -0.7632  0.2033  0.0338
14367TIP3    H164592   3.508   5.726  17.146 -0.6651  1.3020  0.7435
14367TIP3    H264593   3.384   5.719  17.234 -1.3655 -1.2004 -0.3893
14368TIP3   OH264594   0.025   2.477   3.083 -0.3589  0.7900 -0.4592
14368TIP3    H164595   0.087   2.405   3.092 -0.3311  0.8080 -0.5068
14368TIP3    H264596  -0.033   2.449   3.013 -1.9031 -0.3026  1.2178
14369TIP3   OH264597   2.279   2.720   3.517 -0.2412 -1.0179 -0.5225
14369TIP3    H164598   2.221   2.765   3.579  2.1996  0.4852  0.7657
14369TIP3    H264599   2.255   2.628   3.523 -2.8000 -0.3762 -0.3873
14370TIP3   OH264600   0.477   1.246   0.514 -0.1312  0.0856  0.3814
14370TIP3    H164601   0.415   1.289   0.455  0.9439  0.0245 -0.7851
14370TIP3    H264602   0.421   1.197   0.574 -1.4593  3.7065  2.2846
14371TIP3   OH264603   1.506   1.696  11.946  0.2596  0.7441  0.2313
14371TIP3    H164604   1.550   1.618  11.912 -0.8568  1.2833 -2.6276
14371TIP3    H264605   1.442   1.662  12.009 -0.2379 -0.6939 -1.0051
14372TIP3   OH264606   0.667   2.514   0.296  0.0311  0.2295  0.6548
14372TIP3    H164607   0.634   2.430   0.263  0.8866  0.4587 -0.8210
14372TIP3    H264608   0.596   2.576   0.280 -0.2749 -0.0377  0.9716
14373TIP3   OH264609   6.805   6.085   1.240 -0.3456  0.4276  0.5267
14373TIP3    H164610   6.719   6.058   1.210 -0.9174  2.5278  0.2075
14373TIP3    H264611   6.788   6.138   1.317  0.5055  2.3672 -0.5831
14374TIP3   OH264612   6.328   5.797   2.277  0.3454  0.0915  0.5426
14374TIP3    H164613   6.269   5.850   2.331  0.5567  0.0551  0.8089
14374TIP3    H264614   6.270   5.753   2.215  0.0638 -0.1093  0.9454
14375TIP3   OH264615   4.499   1.697  14.631  0.2322 -0.0075  0.8144
14375TIP3    H164616   4.411   1.683  14.666 -0.1165 -0.2887 -0.1405
14375TIP3    H264617   4.486   1.707  14.537  1.0907  1.1984  0.8113
14376TIP3   OH264618   1.073   2.478  10.394  0.0619  0.1431 -0.0414
14376TIP3    H164619   1.157   2.436  10.416 -0.9287 -2.3818 -0.8736
14376TIP3    H264620   1.019   2.465  10.472 -0.0751  0.3308 -0.1077
14377TIP3   OH264621   6.348   1.661   0.659  0.4183 -0.0707 -0.2938
14377TIP3    H164622   6.346   1.709   0.576 -0.2435  0.0950 -0.1830
14377TIP3    H264623   6.377   1.726   0.724 -2.3950  0.7610  0.2201
14378TIP3   OH264624   2.293   4.309   0.487  0.5355  0.4607  0.0895
14378TIP3    H164625   2.373   4.271   0.450  0.3136  0.3716 -0.2939
14378TIP3    H264626   2.305   4.300   0.582 -0.1332 -1.8191 -0.0195
14379TIP3   OH264627   0.130   1.505   5.095 -0.5709 -0.8599  0.3729
14379TIP3    H164628   0.082   1.437   5.047  1.4362 -1.5687 -0.6744
14379TIP3    H264629   0.113   1.486   5.187 -0.5118 -2.4197  0.0708
14380TIP3   OH264630   3.090   4.181  12.285 -0.1010 -0.1410  0.3402
14380TIP3    H164631   3.033   4.250  12.320 -0.2852 -0.5322  0.8291
14380TIP3    H264632   3.175   4.196  12.327  0.3086  0.7586 -0.7903
14381TIP3   OH264633   2.548   0.310  16.523  0.6323 -0.5830 -0.4216
14381TIP3    H164634   2.606   0.234  16.529 -0.2640 -1.1791  0.7860
14381TIP3    H264635   2.560   0.342  16.433  2.7527 -0.7415 -0.2306
14382TIP3   OH264636   4.630   4.342   4.952 -0.5131  0.2376  0.0187
14382TIP3    H164637   4.707   4.304   4.995 -0.5019  0.8809  0.5783
14382TIP3    H264638   4.583   4.386   5.023 -0.8777  0.6993 -0.5071
14383TIP3   OH264639   0.221   5.131   5.159 -0.1530  0.3075 -0.5663
14383TIP3    H164640   0.199   5.116   5.067 -1.3627  0.7745 -0.3678
14383TIP3    H264641   0.309   5.167   5.157  0.1671 -0.5123 -1.4868
14384TIP3   OH264642   4.891   1.102  12.060  0.3652  0.6483  0.1027
14384TIP3    H164643   4.914   1.019  12.101 -0.7310  0.1702 -0.2217
14384TIP3    H264644   4.832   1.144  12.123  1.0198  1.2444  0.3245
14385TIP3   OH264645   1.854   1.866  16.885 -0.4734  0.2101 -0.1263
14385TIP3    H164646   1.868   1.816  16.804 -1.5311  2.6406 -1.8570
14385TIP3    H264647   1.935   1.914  16.898 -0.8204  0.9390 -0.5850
14386TIP3   OH264648   0.448   0.748  11.650 -0.0828  0.0130  0.9108
14386TIP3    H164649   0.363   0.748  11.605  0.8669  0.9617 -0.9391
14386TIP3    H264650   0.497   0.677  11.609  0.7434  0.7884  0.5384
14387TIP3   OH264651   6.204   1.439   0.687 -0.5304 -0.2147  0.7110
14387TIP3    H164652   6.257   1.518   0.678 -1.3494  0.3448  0.6735
14387TIP3    H264653   6.242   1.376   0.626 -0.2681  0.3670  0.2811
14388TIP3   OH264654   2.292   1.720   3.327  0.3341 -0.5739  0.4831
14388TIP3    H164655   2.263   1.628   3.324  2.5624 -1.2818 -1.0721
14388TIP3    H264656   2.270   1.749   3.415 -1.4701 -2.2407  0.6204
14389TIP3   OH264657   0.347   5.926   2.066  0.4459  0.9926  0.3360
14389TIP3    H164658   0.325   5.944   2.158 -1.7544  2.1826 -0.4014
14389TIP3    H264659   0.436   5.958   2.057  1.0011  0.1127  2.2646
14390TIP3   OH264660   4.037   4.651  16.431  0.1675 -0.5121  0.0528
14390TIP3    H164661   3.995   4.579  16.384 -0.0810 -0.9662  0.9701
14390TIP3    H264662   4.025   4.630  16.523  0.9834  0.1924  0.3207
14391TIP3   OH264663   1.242   6.661  14.106  0.0781  0.5515  0.2033
14391TIP3    H164664   1.242   6.731  14.040  2.3564  1.3533  1.0224
14391TIP3    H264665   1.238   6.580  14.055  0.9547  1.1868 -0.8959
14392TIP3   OH264666   6.533   3.818  17.225  0.3206 -0.2292 -0.1929
14392TIP3    H164667   6.560   3.880  17.293  0.5543  0.0407 -0.5306
14392TIP3    H264668   6.542   3.867  17.144 -2.8842  0.4918 -0.2009
14393TIP3   OH264669   2.764   0.090  16.565 -0.3027  0.0375 -0.1183
14393TIP3    H164670   2.687   0.041  16.591 -0.9757  1.9388  1.6661
14393TIP3    H264671   2.791   0.052  16.481 -2.4803 -1.3883 -0.1984
14394TIP3   OH264672   1.911   3.902   4.734 -0.0374 -0.0693  0.2411
14394TIP3    H164673   1.859   3.935   4.661  0.1023  0.0335  0.1891
14394TIP3    H264674   1.846   3.877   4.801 -0.0602  2.3068  1.1447
14395TIP3   OH264675   4.141   0.718   5.224  0.2499  0.0444 -0.1120
14395TIP3    H164676   4.166   0.626   5.216 -2.1672 -0.6534  0.0761
14395TIP3    H264677   4.184   0.748   5.304 -0.7639 -1.5559  1.0612
14396TIP3   OH264678   4.059   4.686   0.892  0.1126  0.5890 -0.1502
14396TIP3    H164679   4.083   4.670   0.983  0.2359  0.0130 -0.2847
14396TIP3    H264680   4.000   4.614   0.869 -0.2685  0.9743 -0.3903
14397TIP3   OH264681   1.534   0.618  12.890 -0.1712  0.4241 -0.1464
14397TIP3    H164682   1.559   0.648  12.978 -0.0285 -0.8272  0.2515
14397TIP3    H264683   1.450   0.661  12.873  0.4981  1.8219 -0.0029
14398TIP3   OH264684   5.920   3.144   2.365 -0.0008  0.1791  0.6045
14398TIP3    H164685   5.906   3.232   2.400 -0.9642  0.0636  0.5176
14398TIP3    H264686   5.913   3.086   2.441  2.2449  0.3136  0.9332
14399TIP3   OH264687   4.220   2.640  16.332  0.1088 -0.0917  0.2550
14399TIP3    H164688   4.157   2.711  16.340  0.2585  0.1342 -0.4848
14399TIP3    H264689   4.279   2.651  16.406 -1.6864 -1.2895  1.9132
14400TIP3   OH264690   0.707   5.406   3.697  0.1099  0.6822 -0.2024
14400TIP3    H164691   0.629   5.458   3.717  0.1620  1.8462 -2.8667
14400TIP3    H264692   0.675   5.316   3.693 -0.3058  0.6345  2.6638
14401TIP3   OH264693   5.922   6.184   4.067 -0.0577  0.0528  0.2284
14401TIP3    H164694   5.918   6.156   3.975 -1.7769  2.4550 -0.4512
14401TIP3    H264695   5.906   6.278   4.065 -0.5530  0.0777  3.0621
14402TIP3   OH264696   2.499   1.749   0.305 -0.5503 -0.2100 -0.3690
14402TIP3    H164697   2.443   1.676   0.333 -0.8005  0.0719 -0.1372
14402TIP3    H264698   2.468   1.824   0.356  0.9822 -0.3615  0.8319
14403TIP3   OH264699   0.525   6.165  10.991 -0.8428 -0.2403  0.2240
14403TIP3    H164700   0.448   6.109  10.981 -1.7974  0.9591  0.7129
14403TIP3    H264701   0.517   6.202  11.079 -0.6567  1.2718 -0.3766
14404TIP3   OH264702   3.607   1.755   3.716  0.5953  0.7337  0.0270
14404TIP3    H164703   3.599   1.662   3.699 -0.8449  0.8383  0.0777
14404TIP3    H264704   3.654   1.790   3.640  0.5879  0.0662 -0.2822
14405TIP3   OH264705   4.338   5.245  12.609 -0.0159  0.1391  0.0132
14405TIP3    H164706   4.408   5.271  12.549 -0.1633  1.5560  0.4275
14405TIP3    H264707   4.381   5.239  12.694 -0.1006 -0.4287  0.0167
14406TIP3   OH264708   4.624   4.634   3.117 -0.4031 -0.0248  0.7779
14406TIP3    H164709   4.652   4.572   3.185  0.2109 -0.5336  0.0603
14406TIP3    H264710   4.671   4.607   3.039 -2.8259 -0.8604 -0.4425
14407TIP3   OH264711   4.332   4.436   3.497 -0.4690  0.4161 -0.3824
14407TIP3    H164712   4.304   4.424   3.587 -1.7011  0.2081 -0.7814
14407TIP3    H264713   4.426   4.420   3.498 -0.5877 -0.2026  0.7435
14408TIP3   OH264714   6.145   6.746   1.591  0.0127  0.7256  0.1791
14408TIP3    H164715   6.230   6.703   1.586 -0.1186  0.5018 -0.2415
14408TIP3    H264716   6.131   6.763   1.684  0.3879  0.4963  0.2766
14409TIP3   OH264717   2.817   4.175   3.427  0.0830 -0.0039  0.2793
14409TIP3    H164718   2.865   4.240   3.477  1.6579 -0.0797 -1.0949
14409TIP3    H264719   2.865   4.093   3.440  0.1391 -0.1588 -0.8037
14410TIP3   OH264720   3.058   6.205   1.696  0.1624 -0.2151 -0.1796
14410TIP3    H164721   3.148   6.238   1.696  0.6932 -1.6532  0.1650
14410TIP3    H264722   3.066   6.110   1.695 -1.3590 -0.3702 -1.3552
14411TIP3   OH264723   4.113   5.488  14.239  0.0219  0.2721  0.5181
14411TIP3    H164724   4.128   5.418  14.302 -0.4243  0.0406  0.3659
14411TIP3    H264725   4.050   5.452  14.177  0.0887  0.6701  0.2176
14412TIP3   OH264726   0.354   0.399   3.849 -0.1783  0.2081 -0.8690
14412TIP3    H164727   0.364   0.492   3.828  1.5727 -0.0269 -1.1490
14412TIP3    H264728   0.387   0.391   3.939 -1.5666  0.0807 -0.3644
14413TIP3   OH264729   5.369   1.414  11.104 -0.3306  0.6926 -0.0288
14413TIP3    H164730   5.389   1.430  11.197 -1.6381  4.6115 -0.3187
14413TIP3    H264731   5.301   1.478  11.083  1.3700  1.2763 -4.2248
14414TIP3   OH264732   1.184   2.125  10.599 -0.0850 -0.5852  0.1331
14414TIP3    H164733   1.115   2.142  10.534  1.1092 -0.6422 -1.1692
14414TIP3    H264734   1.139   2.080  10.670 -1.5893  0.2407 -0.2639
14415TIP3   OH264735   1.802   2.541  13.709 -0.1259 -0.5879 -0.3565
14415TIP3    H164736   1.738   2.561  13.777  2.1503 -0.3071  1.7696
14415TIP3    H264737   1.796   2.446  13.698  0.5809 -0.8606  1.4061
14416TIP3   OH264738   1.195   5.798   4.558  0.4227 -0.2422  0.8471
14416TIP3    H164739   1.121   5.832   4.609 -0.7711 -3.2458  1.2473
14416TIP3    H264740   1.252   5.757   4.623  2.0778  1.3486  0.4346
14417TIP3   OH264741   2.827   6.060   5.678 -0.0442  0.1137 -0.2850
14417TIP3    H164742   2.861   6.103   5.600  1.5484  2.1484  1.4727
14417TIP3    H264743   2.883   5.983   5.690 -0.8655 -0.7119 -1.6193
14418TIP3   OH264744   5.660   3.631  15.014 -0.4298  0.2236  0.7816
14418TIP3    H164745   5.667   3.702  14.951 -0.3295 -1.2728 -0.9497
14418TIP3    H264746   5.586   3.578  14.983  1.6615 -2.3445 -0.0109
14419TIP3   OH264747   4.346   1.365  13.454  0.1970  0.2497 -0.1597
14419TIP3    H164748   4.412   1.433  13.440  0.3472 -0.0853 -1.1110
14419TIP3    H264749   4.394   1.283  13.440 -0.3555 -0.0043 -0.5335
14420TIP3   OH264750   5.960   0.743   0.357 -0.1345  0.1655 -0.5816
14420TIP3    H164751   6.046   0.771   0.326 -1.4184  1.4021 -3.1563
14420TIP3    H264752   5.949   0.787   0.442  0.8471  1.7463 -1.2639
14421TIP3   OH264753   3.140   2.952  11.344  0.0767 -0.4610  0.0460
14421TIP3    H164754   3.075   3.022  11.334 -0.9773 -1.3972  0.2334
14421TIP3    H264755   3.134   2.902  11.262  1.2408  0.0091 -0.3298
14422TIP3   OH264756   6.409   0.032   5.789 -0.4355 -0.0326 -0.4719
14422TIP3    H164757   6.429   0.119   5.756  0.6455 -0.2179 -0.3356
14422TIP3    H264758   6.383   0.045   5.880  2.3861 -0.0924  0.4038
14423TIP3   OH264759   0.054   2.867   5.131  0.4983 -0.2116  0.1328
14423TIP3    H164760   0.141   2.827   5.134  0.3070 -0.5598  1.2133
14423TIP3    H264761   0.001   2.807   5.079  0.7132 -0.3832  0.1132
14424TIP3   OH264762   5.542   0.877  14.798 -0.2093 -0.6668 -0.1075
14424TIP3    H164763   5.450   0.895  14.819 -0.1266 -1.9683  1.4017
14424TIP3    H264764   5.538   0.807  14.733 -0.3418  0.9008 -1.8294
14425TIP3   OH264765   1.672   0.910  12.688  0.8262 -0.0735  0.0329
14425TIP3    H164766   1.680   0.906  12.593 -1.7522 -1.0498 -0.1807
14425TIP3    H264767   1.690   0.821  12.718 -0.9450 -0.3701  0.2297
14426TIP3   OH264768   5.419   5.999  15.954 -0.4628 -0.5045 -0.1779
14426TIP3    H164769   5.412   6.039  16.040 -1.8365  0.7210 -0.8378
14426TIP3    H264770   5.513   5.986  15.941 -0.1971 -0.0152  1.1855
14427TIP3   OH264771   4.949   3.571  17.159  0.7095  0.3078  0.2850
14427TIP3    H164772   4.941   3.660  17.125 -1.7446 -0.2495 -0.7479
14427TIP3    H264773   4.992   3.522  17.089 -2.0872 -0.2842 -1.0993
14428TIP3   OH264774   0.765   1.948  15.090 -0.1698  0.1257 -0.2610
14428TIP3    H164775   0.760   1.962  15.184  1.0103  0.5817 -0.2516
14428TIP3    H264776   0.798   1.859  15.081 -2.1782 -0.6325 -0.2694
14429TIP3   OH264777   6.064   1.869   6.265  0.0868  0.3172 -0.4166
14429TIP3    H164778   5.976   1.899   6.240 -0.3413  0.0372  0.7228
14429TIP3    H264779   6.094   1.933   6.329  0.6446  0.3031 -0.6589
14430TIP3   OH264780   4.846   3.800  12.535  0.0761 -0.0244  0.0397
14430TIP3    H164781   4.796   3.873  12.498 -1.6572 -0.5532  1.3022
14430TIP3    H264782   4.854   3.821  12.628  3.1654  0.5727 -0.2903
14431TIP3   OH264783   1.208   5.640  14.296 -0.5234 -0.2235  0.0061
14431TIP3    H164784   1.196   5.547  14.311 -0.6760 -0.1177  0.5510
14431TIP3    H264785   1.123   5.671  14.266  0.2800 -0.8047 -3.0540
14432TIP3   OH264786   3.729   4.243   0.796 -0.2136  0.2225 -0.1424
14432TIP3    H164787   3.815   4.276   0.771  0.3010 -0.2192  1.0192
14432TIP3    H264788   3.674   4.322   0.802  1.0813  0.9479  2.9105
14433TIP3   OH264789   5.862   0.121  16.467  0.0686 -0.3776  0.6914
14433TIP3    H164790   5.950   0.151  16.491  0.6756 -0.1767 -1.6679
14433TIP3    H264791   5.834   0.181  16.397 -1.1483 -1.6489  0.0581
14434TIP3   OH264792   3.101   2.946  14.012 -0.0106 -0.4525 -0.5610
14434TIP3    H164793   3.117   3.001  14.089 -0.1530 -0.3180 -0.6287
14434TIP3    H264794   3.177   2.887  14.009 -0.3990 -1.0058  0.1655
14435TIP3   OH264795   2.977   0.713  14.403  0.0987  0.1530 -0.1194
14435TIP3    H164796   3.003   0.790  14.454  1.8326  0.3554 -1.2510
14435TIP3    H264797   2.882   0.710  14.411  0.0586  2.1024  0.4116
14436TIP3   OH264798   6.155   1.222   2.985  0.1468  0.7439  0.0699
14436TIP3    H164799   6.088   1.184   3.042 -0.2582 -0.1579 -0.9873
14436TIP3    H264800   6.228   1.241   3.044 -0.7593  1.0639  1.1162
14437TIP3   OH264801   6.514   3.651   0.831 -0.2603 -0.3116  0.3775
14437TIP3    H164802   6.593   3.682   0.874  0.6950 -2.1884  0.0298
14437TIP3    H264803   6.527   3.669   0.738  0.5345 -2.1635  0.1050
14438TIP3   OH264804   5.660   0.179  12.902  0.0491 -0.2309 -0.4893
14438TIP3    H164805   5.736   0.238  12.902 -0.4468  0.4127 -0.7671
14438TIP3    H264806   5.698   0.092  12.916  0.7535  0.1870  0.2373
14439TIP3   OH264807   5.918   4.341   4.309 -0.2537 -0.0162 -0.2937
14439TIP3    H164808   5.856   4.316   4.241 -0.5510 -1.6421  0.5262
14439TIP3    H264809   5.997   4.368   4.262 -0.4124 -1.2546 -1.2860
14440TIP3   OH264810   1.509   5.733   4.554  0.2767 -0.4383  0.7101
14440TIP3    H164811   1.539   5.645   4.575  0.0035 -0.6923  0.0547
14440TIP3    H264812   1.581   5.771   4.502  0.6361 -0.0762  1.4718
14441TIP3   OH264813   4.591   0.915   5.352 -0.0764 -0.7609 -0.1823
14441TIP3    H164814   4.613   0.977   5.421 -0.2117  0.5743 -1.3170
14441TIP3    H264815   4.617   0.830   5.387  0.9378  0.0331  1.0457
14442TIP3   OH264816   0.398   1.584   5.114  0.0702 -0.3085 -0.2180
14442TIP3    H164817   0.411   1.523   5.186  0.6765 -0.8422 -0.7716
14442TIP3    H264818   0.305   1.577   5.092 -0.3140  0.5430  1.1200
14443TIP3   OH264819   0.848   6.744   1.710 -0.3164  0.4221 -0.2720
14443TIP3    H164820   0.912   6.674   1.710 -0.5024  0.2524 -0.2145
14443TIP3    H264821   0.763   6.700   1.717 -0.4456  0.6384 -0.4374
14444TIP3   OH264822   6.026   5.513  11.781 -0.6699  0.2458 -0.4947
14444TIP3    H164823   5.953   5.456  11.753 -0.3433 -0.8393  0.7889
14444TIP3    H264824   5.983   5.589  11.819 -1.1797 -0.7701  1.0306
14445TIP3   OH264825   4.082   4.843   1.673 -0.2076 -0.3492  0.4800
14445TIP3    H164826   4.093   4.892   1.755  1.9454 -2.3252  1.4313
14445TIP3    H264827   4.031   4.901   1.617  0.1011  1.9192  2.4720
14446TIP3   OH264828   5.961   5.511   0.874  0.1726  0.4269 -0.0377
14446TIP3    H164829   5.989   5.457   0.948 -0.9699  0.2940  0.2994
14446TIP3    H264830   6.003   5.596   0.890 -0.7836  0.6707  1.2515
14447TIP3   OH264831   5.134   4.514  15.169 -0.2959  0.3289  0.1093
14447TIP3    H164832   5.140   4.562  15.086 -1.1531  0.1287 -0.0651
14447TIP3    H264833   5.169   4.576  15.234 -1.0911  1.0833 -0.1636
14448TIP3   OH264834   6.421   5.622  11.340  0.4706 -0.0984  0.4942
14448TIP3    H164835   6.394   5.538  11.378  1.3039  0.3042  2.0099
14448TIP3    H264836   6.349   5.681  11.360  0.1915 -0.2700  0.0219
14449TIP3   OH264837   5.610   4.374   6.106  0.2584  0.2803 -0.1487
14449TIP3    H164838   5.610   4.435   6.032 -1.3362  0.8369  0.2902
14449TIP3    H264839   5.700   4.376   6.139  0.5087  1.4915 -0.8725
14450TIP3   OH264840   0.143   4.480   0.775  0.1948  0.2038 -0.3414
14450TIP3    H164841   0.155   4.558   0.720 -3.0148  1.0821  0.1406
14450TIP3    H264842   0.143   4.514   0.864  1.2694 -0.6920  0.0101
14451TIP3   OH264843   2.543   1.674  14.678  0.2222  0.3721  0.0681
14451TIP3    H164844   2.456   1.641  14.654  0.6623 -0.8859  0.1715
14451TIP3    H264845   2.557   1.641  14.767 -0.4230  3.0511  1.2104
14452TIP3   OH264846   3.556   4.250  15.450  0.7266 -0.2249  0.3764
14452TIP3    H164847   3.588   4.230  15.538  0.5092  0.0467  0.5144
14452TIP3    H264848   3.471   4.206  15.444  1.0492 -0.8243  0.0570
14453TIP3   OH264849   0.712   5.040   4.009 -0.6193  0.5514 -0.0353
14453TIP3    H164850   0.697   4.990   4.089 -0.6114  2.6673  1.3240
14453TIP3    H264851   0.790   5.092   4.028  0.6882 -0.5292 -2.2332
14454TIP3   OH264852   2.999   1.630  13.604 -0.6074  0.3461  0.4291
14454TIP3    H164853   3.016   1.661  13.693 -1.2630  0.8027  0.3914
14454TIP3    H264854   3.040   1.696  13.547 -2.0850  1.1926  0.3463
14455TIP3   OH264855   5.713   1.007  17.001  0.2638  0.1260 -0.4518
14455TIP3    H164856   5.716   1.009  16.905 -0.3958  1.4339 -0.4583
14455TIP3    H264857   5.635   0.956  17.021  0.7475 -0.6813 -0.6025
14456TIP3   OH264858   4.623   4.503   0.850  0.0942 -0.4552 -0.0378
14456TIP3    H164859   4.556   4.534   0.910  1.3189  0.4899  0.8557
14456TIP3    H264860   4.668   4.434   0.898 -1.3281 -2.3047 -1.2780
14457TIP3   OH264861   5.486   1.338   3.775  0.8146 -0.0630  0.2677
14457TIP3    H164862   5.434   1.258   3.783  0.4582  0.1985  0.5605
14457TIP3    H264863   5.463   1.390   3.852  0.3766  0.7111 -0.3816
14458TIP3   OH264864   4.841   4.157  11.287  0.1929 -0.7425  0.2342
14458TIP3    H164865   4.759   4.182  11.330  0.0750  0.2338 -0.5184
14458TIP3    H264866   4.859   4.230  11.226  3.3909  0.7059  2.7640
14459TIP3   OH264867   6.576   6.585   0.501 -0.0858 -0.0253 -0.1906
14459TIP3    H164868   6.500   6.638   0.524 -1.5889 -1.4276 -1.7752
14459TIP3    H264869   6.603   6.544   0.583 -0.0700  1.6822  0.6794
14460TIP3   OH264870   5.695   2.328  15.709 -0.2068  0.1024 -0.0845
14460TIP3    H164871   5.720   2.317  15.801 -0.2647 -0.6138 -0.1524
14460TIP3    H264872   5.626   2.263  15.695  0.1076 -0.0845 -0.7537
14461TIP3   OH264873   5.424   1.197  13.006  0.0266  0.3107 -0.4738
14461TIP3    H164874   5.432   1.289  13.033  3.5308 -0.9162  3.1046
14461TIP3    H264875   5.513   1.171  12.981 -0.3446 -2.8432  1.2320
14462TIP3   OH264876   4.949   4.427  12.248 -0.3276  0.7464 -0.3914
14462TIP3    H164877   4.972   4.511  12.209  1.0728  0.0710 -1.0741
14462TIP3    H264878   4.964   4.438  12.341  0.5801  1.0392 -0.5650
14463TIP3   OH264879   0.270   0.856   1.618  0.4396  0.0396 -0.5556
14463TIP3    H164880   0.326   0.858   1.695  0.0415  0.0364 -0.2635
14463TIP3    H264881   0.278   0.943   1.580  0.7883 -0.0210 -0.6188
14464TIP3   OH264882   3.648   3.008   5.286 -0.3492 -0.6371  0.0388
14464TIP3    H164883   3.561   2.978   5.312 -0.8060  1.5684  1.1958
14464TIP3    H264884   3.708   2.942   5.320 -1.4974 -1.6761  0.0643
14465TIP3   OH264885   4.610   1.110  12.737  0.4273  0.2084  0.4455
14465TIP3    H164886   4.661   1.072  12.665  0.0489 -0.9795  0.7905
14465TIP3    H264887   4.611   1.204  12.721  2.6581  0.1904  0.4051
14466TIP3   OH264888   0.448   6.225  16.010  0.0087 -0.4143  0.4370
14466TIP3    H164889   0.446   6.145  15.956  1.4826  0.1473 -0.4738
14466TIP3    H264890   0.412   6.293  15.954  0.0457 -0.1506  0.7307
14467TIP3   OH264891   1.399   0.861   3.074 -0.1709  0.7856  0.3040
14467TIP3    H164892   1.365   0.934   3.126  0.0537  1.3784 -0.3742
14467TIP3    H264893   1.320   0.818   3.040 -0.2897  1.3078 -0.1002
14468TIP3   OH264894   5.556   5.476  17.132  0.3533 -0.6223 -0.0520
14468TIP3    H164895   5.512   5.551  17.172  3.5395 -0.1092  2.6906
14468TIP3    H264896   5.503   5.401  17.158 -0.6708  0.2867  0.5504
14469TIP3   OH264897   4.668   2.821   5.153  0.4777  0.3666  0.4457
14469TIP3    H164898   4.680   2.916   5.155  2.1750  0.1579  1.3320
14469TIP3    H264899   4.693   2.796   5.064  0.7998  0.6593  0.4529
14470TIP3   OH264900   4.358   4.183  12.072  0.0206 -0.1919  0.0729
14470TIP3    H164901   4.293   4.253  12.062 -1.1145 -1.3303 -0.6230
14470TIP3    H264902   4.310   4.111  12.112  0.9762 -0.8833 -0.0050
14471TIP3   OH264903   0.728   6.811  11.867  0.3662  0.4682  0.2437
14471TIP3    H164904   0.771   6.735  11.827  0.0231 -0.3589  1.4079
14471TIP3    H264905   0.793   6.846  11.928 -0.2923 -0.3090  1.4204
14472TIP3   OH264906   0.346   5.497  13.655 -0.2261 -0.6251  0.5687
14472TIP3    H164907   0.434   5.467  13.632 -0.7490 -1.6586 -0.0894
14472TIP3    H264908   0.290   5.466  13.584 -1.0979  0.1876  0.8864
14473TIP3   OH264909   2.841   4.079  14.751 -0.1232  0.0607  0.0730
14473TIP3    H164910   2.832   4.115  14.663 -1.0238  1.9131  0.8943
14473TIP3    H264911   2.911   4.014  14.743  0.5297  0.9502 -1.7792
14474TIP3   OH264912   4.401   0.767   5.849  0.3500 -0.8596 -0.0342
14474TIP3    H164913   4.447   0.689   5.880  1.9308  0.1940  0.3772
14474TIP3    H264914   4.457   0.840   5.877 -1.1322  0.4270 -0.3399
14475TIP3   OH264915   6.650   3.446  12.806 -0.5655  0.2972 -0.1288
14475TIP3    H164916   6.644   3.541  12.817  0.3538  0.4705 -1.0839
14475TIP3    H264917   6.574   3.423  12.752 -1.1576  0.3890  0.6498
14476TIP3   OH264918   5.435   3.335   1.082  0.0908  0.3585  0.0729
14476TIP3    H164919   5.354   3.352   1.131 -0.8618 -0.1144 -1.3033
14476TIP3    H264920   5.480   3.267   1.132 -0.8991 -0.1631  0.2645
14477TIP3   OH264921   1.963   2.385   5.982 -0.1035  0.0859 -0.3227
14477TIP3    H164922   2.035   2.397   6.044  0.3639  1.1466 -1.0642
14477TIP3    H264923   1.954   2.290   5.975  2.1177 -0.0799 -1.2514
14478TIP3   OH264924   0.241   3.777  13.157  0.3731  0.2505  0.3762
14478TIP3    H164925   0.190   3.791  13.077  0.0889  1.5920  0.7874
14478TIP3    H264926   0.292   3.857  13.167  0.6101 -0.0249  1.4007
14479TIP3   OH264927   3.417   4.812  14.770  0.1332 -0.2046  0.2688
14479TIP3    H164928   3.484   4.841  14.707 -0.3651 -2.3948 -1.3579
14479TIP3    H264929   3.336   4.852  14.739 -0.2937 -2.0618 -1.1369
14480TIP3   OH264930   3.534   2.451   1.425 -0.6261 -0.8336 -0.3588
14480TIP3    H164931   3.456   2.443   1.369 -0.9593 -2.9055  0.3896
14480TIP3    H264932   3.509   2.410   1.507  0.8795 -0.4431  0.3089
14481TIP3   OH264933   1.554   4.976   1.194 -0.0443 -0.5107 -0.5340
14481TIP3    H164934   1.576   4.916   1.122  3.2522 -0.5511  0.4676
14481TIP3    H264935   1.481   5.027   1.159 -0.1065 -2.1566 -3.0172
14482TIP3   OH264936   4.252   1.160  11.683  0.1838  0.0108  0.1150
14482TIP3    H164937   4.179   1.118  11.638 -0.3186  1.6444 -0.6709
14482TIP3    H264938   4.279   1.098  11.750 -0.1979 -1.7370 -1.3263
14483TIP3   OH264939   4.928   1.709  13.662  0.4562 -0.5118 -1.0573
14483TIP3    H164940   4.859   1.648  13.637  0.1537 -0.1072 -1.2133
14483TIP3    H264941   5.004   1.681  13.612  0.2657 -0.6425 -1.2739
14484TIP3   OH264942   1.059   3.016   1.987 -1.1548 -0.1377 -0.1368
14484TIP3    H164943   1.032   2.936   2.033  0.8291 -0.3861  0.6407
14484TIP3    H264944   1.120   2.985   1.920  1.6663  0.9177  1.8433
14485TIP3   OH264945   4.898   6.547  13.563  0.0688  0.2198 -0.1483
14485TIP3    H164946   4.982   6.526  13.521 -0.1193  1.7005 -1.2769
14485TIP3    H264947   4.836   6.486  13.524  0.3340  0.0760 -0.3514
14486TIP3   OH264948   2.766   0.267  14.654 -0.2985 -0.0354  0.4072
14486TIP3    H164949   2.694   0.319  14.619 -0.4735  0.5356  1.6015
14486TIP3    H264950   2.736   0.240  14.741  0.5755 -0.5193  0.5626
14487TIP3   OH264951   0.794   2.832   3.216  0.3198  0.1518  0.7431
14487TIP3    H164952   0.773   2.759   3.157  2.2211  0.6501 -0.5747
14487TIP3    H264953   0.709   2.873   3.233 -0.5432 -1.3179  0.1147
14488TIP3   OH264954   0.869   1.605  14.732 -0.8089 -0.4478  0.0087
14488TIP3    H164955   0.821   1.554  14.797  0.7708 -1.3560  0.4873
14488TIP3    H264956   0.912   1.539  14.677 -0.0209  0.3427 -0.3439
14489TIP3   OH264957   2.535   6.228   5.118 -0.3214  0.1581 -0.0936
14489TIP3    H164958   2.602   6.160   5.127 -0.5913 -0.3750 -1.8607
14489TIP3    H264959   2.462   6.184   5.074 -0.7572  1.4124 -0.6399
14490TIP3   OH264960   4.764   0.039  12.854  0.2165 -0.2665  0.2434
14490TIP3    H164961   4.693   0.094  12.888  0.4400 -0.4133  0.9369
14490TIP3    H264962   4.719  -0.033  12.809 -0.0722 -1.1144  1.8837
14491TIP3   OH264963   4.717   3.327  13.738  0.1333  0.0534  0.1349
14491TIP3    H164964   4.643   3.270  13.758  1.0509 -1.3245 -0.3274
14491TIP3    H264965   4.716   3.335  13.643  0.3419  0.3331  0.1584
14492TIP3   OH264966   6.183   1.586  12.727  0.0865 -0.1806 -0.2974
14492TIP3    H164967   6.254   1.645  12.755 -0.5185  1.1250 -1.4640
14492TIP3    H264968   6.228   1.514  12.682  0.7863 -0.3033  0.5661
14493TIP3   OH264969   1.254   1.519   3.269  0.5045 -0.0701 -0.1104
14493TIP3    H164970   1.260   1.429   3.299  1.5559  0.2527  0.6831
14493TIP3    H264971   1.328   1.564   3.311 -0.5370  1.3654  0.2507
14494TIP3   OH264972   1.455   2.763   5.995 -1.0654 -0.7693 -0.4974
14494TIP3    H164973   1.397   2.785   6.069  0.3773  1.0877  0.1251
14494TIP3    H264974   1.542   2.756   6.035  0.0634  2.1870 -2.2816
14495TIP3   OH264975   1.709   3.719  11.499  0.4361 -0.1192 -0.3315
14495TIP3    H164976   1.723   3.710  11.593 -0.8908 -3.3462 -0.3626
14495TIP3    H264977   1.784   3.676  11.459 -0.1852 -0.8994 -0.6852
14496TIP3   OH264978   5.849   5.509   5.591 -0.0432 -0.3489  0.4632
14496TIP3    H164979   5.916   5.494   5.659  2.0023  0.9853 -1.2106
14496TIP3    H264980   5.847   5.604   5.580  0.5029 -0.6101 -2.1527
14497TIP3   OH264981   6.693   5.728   1.746 -0.5458 -0.0728 -0.0647
14497TIP3    H164982   6.641   5.786   1.802 -0.3122  1.2870 -1.2532
14497TIP3    H264983   6.650   5.642   1.755 -0.5722  0.1391  2.1147
14498TIP3   OH264984   0.475   3.262  12.969 -0.0523 -0.0609  0.0753
14498TIP3    H164985   0.454   3.249  13.061  0.2686 -2.2879 -0.1407
14498TIP3    H264986   0.539   3.194  12.949 -0.8543 -0.2394 -2.0272
14499TIP3   OH264987   6.663   5.296  14.978  0.5183  0.1522  0.0016
14499TIP3    H164988   6.589   5.343  15.016  0.6153  1.9287 -1.9418
14499TIP3    H264989   6.734   5.309  15.041  0.0173  1.0276  0.3934
14500TIP3   OH264990   5.602   0.533  11.442 -0.1226  0.4097  0.5119
14500TIP3    H164991   5.586   0.532  11.347 -1.0080  0.2252  0.6540
14500TIP3    H264992   5.693   0.561  11.451  0.2461 -0.4600 -0.4305
14501TIP3   OH264993   2.074   0.349   4.970  0.0236  0.0876 -0.0906
14501TIP3    H164994   2.005   0.294   5.007  1.1450  0.2359  2.2969
14501TIP3    H264995   2.153   0.295   4.975  0.0747 -0.2233 -3.1443
14502TIP3   OH264996   6.073   1.281   5.363 -0.3263 -0.0009 -0.0781
14502TIP3    H164997   6.149   1.304   5.416 -0.5850  0.9019 -0.0958
14502TIP3    H264998   6.011   1.352   5.376  0.1131  0.9017 -2.6054
14503TIP3   OH264999   1.066   1.324  13.432 -0.0794  0.5480  0.4574
14503TIP3    H165000   0.991   1.357  13.483  0.0851  0.4408  0.7695
14503TIP3    H265001   1.139   1.325  13.494 -0.1500 -0.7385  0.5613
14504TIP3   OH265002   2.682   4.196   5.301 -0.6904  0.8210 -0.1035
14504TIP3    H165003   2.718   4.260   5.362  0.1305 -0.1509  0.4369
14504TIP3    H265004   2.626   4.248   5.243  0.0500  2.0439  0.2499
14505TIP3   OH265005   1.436   5.543   2.164 -0.3518 -0.3148 -0.1966
14505TIP3    H165006   1.407   5.452   2.159  0.5167 -0.6977  1.5143
14505TIP3    H265007   1.374   5.591   2.109  0.3598 -2.1969 -2.7567
14506TIP3   OH265008   6.763   3.641   6.066  0.1520 -0.2913 -0.0973
14506TIP3    H165009   6.693   3.580   6.089 -0.6749 -0.1288 -2.0803
14506TIP3    H265010   6.737   3.677   5.981  1.9903  0.7737 -0.2430
14507TIP3   OH265011   2.374   4.139  17.087  0.4392  0.0586  0.0877
14507TIP3    H165012   2.346   4.230  17.077 -0.7826 -0.2495  0.5879
14507TIP3    H265013   2.428   4.122  17.009 -1.2642  0.4974 -1.2155
14508TIP3   OH265014   1.247   6.509  16.810  0.1243  0.8916  0.4671
14508TIP3    H165015   1.241   6.420  16.844 -0.4694  0.6536 -0.2460
14508TIP3    H265016   1.321   6.548  16.857 -0.2551  0.3556  1.5225
14509TIP3   OH265017   0.863   6.561   2.525 -0.2265  0.0239 -0.1742
14509TIP3    H165018   0.809   6.605   2.591  0.0165 -1.4840  1.0738
14509TIP3    H265019   0.801   6.531   2.459 -0.7441 -0.3422  0.4667
14510TIP3   OH265020   4.136   3.449  13.306 -0.0865  0.0673 -0.2735
14510TIP3    H165021   4.189   3.464  13.228 -1.4233 -0.1443 -1.2476
14510TIP3    H265022   4.196   3.409  13.368  0.7978 -0.5306 -1.4845
14511TIP3   OH265023   4.788   0.641  15.267 -0.4258 -0.2806  0.4341
14511TIP3    H165024   4.812   0.550  15.249  0.4505  0.0665 -0.1908
14511TIP3    H265025   4.830   0.660  15.351  2.5283  0.6688 -1.1765
14512TIP3   OH265026   6.597   1.244   5.224 -0.5165  0.1520  0.4035
14512TIP3    H165027   6.581   1.225   5.132 -0.3026 -0.0880  0.4130
14512TIP3    H265028   6.565   1.333   5.236  0.3948  0.5615 -0.1476
14513TIP3   OH265029   4.843   2.340  16.598 -0.0290  0.2083 -0.4109
14513TIP3    H165030   4.917   2.302  16.551  0.5469  0.7918  0.0195
14513TIP3    H265031   4.873   2.349  16.689 -0.1736  1.6155 -0.4852
14514TIP3   OH265032   5.464   5.353   3.460 -0.2097  0.3007  0.0062
14514TIP3    H165033   5.469   5.426   3.522 -0.9940  1.1023 -0.8578
14514TIP3    H265034   5.388   5.302   3.490 -1.1953  1.2378 -0.8673
14515TIP3   OH265035   1.236   5.639   1.205 -0.4028 -0.3159 -0.4570
14515TIP3    H165036   1.149   5.630   1.166 -1.2769  0.7475  1.1782
14515TIP3    H265037   1.278   5.708   1.153 -1.2932  0.5882 -0.0100
14516TIP3   OH265038   1.146   2.115   2.778 -0.1133 -0.1338  0.1082
14516TIP3    H165039   1.200   2.193   2.766  0.4874 -0.2772  1.8154
14516TIP3    H265040   1.205   2.042   2.761 -0.0291 -0.2713  1.0047
14517TIP3   OH265041   5.185   1.601   4.873  0.2574  0.7119 -0.6702
14517TIP3    H165042   5.177   1.505   4.870  1.0790  0.5907  0.6713
14517TIP3    H265043   5.097   1.631   4.894  0.5821  0.0776  1.6932
14518TIP3   OH265044   5.882   2.398  13.174 -0.1848 -0.2181  0.4710
14518TIP3    H165045   5.867   2.479  13.126  1.6412 -0.7990 -1.1618
14518TIP3    H265046   5.976   2.396  13.189 -0.2150 -2.0193  0.5214
14519TIP3   OH265047   2.241   2.908  16.995 -0.3154 -0.7531  0.1430
14519TIP3    H165048   2.242   2.926  16.900  0.8823 -1.1099  0.0683
14519TIP3    H265049   2.178   2.837  17.005  0.7263 -1.8152 -0.6206
14520TIP3   OH265050   4.265   3.901  15.073  0.1299  0.4143 -0.1045
14520TIP3    H165051   4.216   3.967  15.122  0.5781 -0.1982  1.1964
14520TIP3    H265052   4.231   3.817  15.105  0.0096  0.0093 -1.2824
14521TIP3   OH265053   6.579   5.949   3.948 -0.7436 -0.3578  0.8327
14521TIP3    H165054   6.663   5.980   3.983 -1.4465  1.4617  0.9802
14521TIP3    H265055   6.592   5.949   3.853 -0.0185 -1.7741  0.9241
14522TIP3   OH265056   3.577   3.774   3.921 -0.2450  0.0664 -0.2840
14522TIP3    H165057   3.564   3.859   3.878 -1.4006  0.1962  0.2909
14522TIP3    H265058   3.662   3.744   3.889  0.4565  1.7106 -0.0559
14523TIP3   OH265059   3.142   6.309   2.620  0.3341  0.2436  0.0888
14523TIP3    H165060   3.142   6.390   2.571  0.2049  1.6042  2.2734
14523TIP3    H265061   3.124   6.335   2.710 -0.5205 -2.2864  0.7009
14524TIP3   OH265062   5.051   2.035  15.435  0.8635 -0.0756 -0.2442
14524TIP3    H165063   5.073   2.128  15.422 -0.2631  0.2330  0.0352
14524TIP3    H265064   5.064   2.020  15.528  2.0752 -0.4811 -0.4679
14525TIP3   OH265065   2.021   4.122   6.128  0.1551 -0.5376 -0.0845
14525TIP3    H165066   2.035   4.211   6.158  0.5121 -1.2309  1.8742
14525TIP3    H265067   1.925   4.111   6.130  0.2481 -1.3288  3.2165
14526TIP3   OH265068   4.192   6.655   4.418  0.2917 -0.2576  0.4800
14526TIP3    H165069   4.170   6.715   4.490 -2.7989 -0.6018 -0.0784
14526TIP3    H265070   4.149   6.694   4.342  3.2099 -0.1069 -1.1377
14527TIP3   OH265071   4.237   5.476   0.246  0.1572  0.1608  0.2908
14527TIP3    H165072   4.254   5.520   0.163 -1.6526  2.7679  1.2206
14527TIP3    H265073   4.176   5.535   0.292 -0.5536 -2.2499  2.5598
14528TIP3   OH265074   4.957   6.348  15.591 -0.5048  0.2270  0.1541
14528TIP3    H165075   4.941   6.350  15.497 -0.5010 -0.6466  0.1342
14528TIP3    H265076   4.873   6.324  15.629  0.0834 -1.8332  0.2102
14529TIP3   OH265077   6.231   5.870  15.276  0.3406 -0.5783 -0.5328
14529TIP3    H165078   6.308   5.872  15.218  0.4506 -0.4922 -0.3837
14529TIP3    H265079   6.159   5.899  15.220  0.4826 -0.3008 -0.5745
14530TIP3   OH265080   0.803   5.388  11.009  0.3060  0.2366 -0.4958
14530TIP3    H165081   0.869   5.319  11.021  0.4802  0.8904  2.5240
14530TIP3    H265082   0.852   5.461  10.969  0.9862  0.0384 -0.0376
14531TIP3   OH265083   1.682   4.010  10.850 -0.1645  0.1320  0.2826
14531TIP3    H165084   1.724   3.924  10.841  0.5815  0.4056  1.0723
14531TIP3    H265085   1.742   4.071  10.808 -1.1304  0.1645 -1.0946
14532TIP3   OH265086   5.995   6.632  15.852 -0.4082 -0.0171 -0.2889
14532TIP3    H165087   6.064   6.569  15.870  0.0988  0.7406  0.4417
14532TIP3    H265088   6.035   6.696  15.793 -0.4836  0.4249  0.1400
14533TIP3   OH265089   6.037   1.796   5.165 -0.2745  0.4654 -0.0635
14533TIP3    H165090   6.120   1.789   5.212  0.7705 -0.0294 -1.9109
14533TIP3    H265091   5.978   1.737   5.211  1.0717 -0.9302 -0.0843
14534TIP3   OH265092   3.426   5.239   3.758 -0.8975 -1.0507  0.0068
14534TIP3    H165093   3.508   5.194   3.735 -0.5729 -0.8619  0.7582
14534TIP3    H265094   3.366   5.168   3.781 -0.4293 -1.1148  1.0548
14535TIP3   OH265095   5.651   2.654   2.615  0.3482  0.7226 -0.3537
14535TIP3    H165096   5.721   2.647   2.551  0.5606  2.1566 -0.2865
14535TIP3    H265097   5.584   2.707   2.572  0.2451  1.2076  0.3926
14536TIP3   OH265098   6.156   4.363   0.196  0.4468 -0.1175 -0.4407
14536TIP3    H165099   6.119   4.446   0.167 -1.7533 -1.4502 -1.5902
14536TIP3    H265100   6.093   4.329   0.259  0.1138 -1.9989 -1.7440
14537TIP3   OH265101   2.972   5.108  11.367  0.1182 -0.4083 -0.3864
14537TIP3    H165102   3.020   5.152  11.297 -1.0221 -1.0689 -1.6014
14537TIP3    H265103   2.966   5.016  11.338 -0.6271 -0.6178  0.4127
14538TIP3   OH265104   5.819   1.400   4.051 -0.1299  0.3944  0.6507
14538TIP3    H165105   5.748   1.399   4.116 -1.5506  0.6969 -0.8621
14538TIP3    H265106   5.838   1.308   4.034  0.4477  0.3096  1.6797
14539TIP3   OH265107   3.324   2.587   4.762 -0.0678  0.2459 -0.0401
14539TIP3    H165108   3.293   2.614   4.849 -0.9775 -0.7189 -0.0517
14539TIP3    H265109   3.357   2.667   4.722  0.3646  0.7059  1.1985
14540TIP3   OH265110   4.310   4.880  17.144  0.0091 -0.3045  0.5252
14540TIP3    H165111   4.388   4.841  17.104 -1.1978 -0.9977 -1.1999
14540TIP3    H265112   4.265   4.923  17.071 -1.3512 -0.1049  1.4721
14541TIP3   OH265113   4.723   3.480   2.758  0.1887 -0.2344 -0.0247
14541TIP3    H165114   4.773   3.513   2.833  0.6588  0.1593 -0.5094
14541TIP3    H265115   4.673   3.555   2.727 -0.0681 -0.4175 -0.0540
14542TIP3   OH265116   6.147   0.709   5.236  0.6322  0.6046  0.2147
14542TIP3    H165117   6.168   0.798   5.266 -1.4681  0.3790  2.5594
14542TIP3    H265118   6.223   0.656   5.263 -0.2731  0.8137  3.4297
14543TIP3   OH265119   0.914   1.267  11.965  0.7021 -0.3156  0.2680
14543TIP3    H165120   0.944   1.177  11.951  0.8350  0.1468 -2.9622
14543TIP3    H265121   0.819   1.262  11.959  0.6772 -0.3247  0.6643
14544TIP3   OH265122   3.509   4.148  16.804 -0.6015 -0.2936  0.5850
14544TIP3    H165123   3.480   4.184  16.720  0.1325 -0.0174  0.4449
14544TIP3    H265124   3.570   4.078  16.780  1.3292  1.2432  0.9042
14545TIP3   OH265125   6.640   6.253  15.702 -0.4930 -0.2626  0.0551
14545TIP3    H165126   6.574   6.184  15.710  1.7391 -2.3224  1.2426
14545TIP3    H265127   6.649   6.288  15.791  0.0134 -0.0086 -0.0938
14546TIP3   OH265128   0.462   5.711  13.328  0.8090 -0.5206 -0.1523
14546TIP3    H165129   0.442   5.733  13.419 -1.5768 -1.5267 -0.4124
14546TIP3    H265130   0.489   5.794  13.289  1.6836 -0.0448  1.4119
14547TIP3   OH265131   2.751   0.373  12.531  0.1256 -0.1321  0.6056
14547TIP3    H165132   2.797   0.449  12.494 -0.2629 -0.2560 -0.1570
14547TIP3    H265133   2.684   0.411  12.588 -0.6938  0.1354 -0.5159
14548TIP3   OH265134   6.196   1.875  15.448  0.8539  0.3402  0.0433
14548TIP3    H165135   6.111   1.898  15.411  0.3167 -1.2624  0.2799
14548TIP3    H265136   6.181   1.871  15.542  1.2328  0.2084  0.0997
14549TIP3   OH265137   3.463   6.299  11.875  0.3353  0.1108 -0.1218
14549TIP3    H165138   3.484   6.207  11.860  1.2161 -0.1368  2.3823
14549TIP3    H265139   3.368   6.303  11.869  0.3162 -0.8981 -0.5633
14550TIP3   OH265140   4.347   6.252   1.178  0.1953 -0.0792  0.3357
14550TIP3    H165141   4.314   6.169   1.212  0.7399  0.2245  1.6228
14550TIP3    H265142   4.268   6.304   1.161 -0.1246 -0.6790 -0.0112
14551TIP3   OH265143   6.789   0.471  12.089 -0.1773 -0.0832  0.0710
14551TIP3    H165144   6.743   0.554  12.078  0.7530  0.2484 -1.3509
14551TIP3    H265145   6.728   0.405  12.055  0.5863  0.4188 -2.4095
14552TIP3   OH265146   6.373   1.141  13.792 -0.1365  0.1331 -0.4280
14552TIP3    H165147   6.318   1.218  13.808  1.6377  1.1358  1.0275
14552TIP3    H265148   6.376   1.097  13.876  1.0208 -0.0798 -0.5775
14553TIP3   OH265149   6.767   0.005   1.285 -0.6349 -0.1336 -0.1064
14553TIP3    H165150   6.753   0.073   1.351 -0.7113  1.3460 -1.6157
14553TIP3    H265151   6.701   0.022   1.218  1.0471 -0.0279 -1.7965
14554TIP3   OH265152   5.376   4.280   1.550  0.1390 -0.0036 -0.3229
14554TIP3    H165153   5.445   4.223   1.515 -0.3618 -1.5962  1.2254
14554TIP3    H265154   5.414   4.320   1.627 -1.4730 -2.9523  2.1083
14555TIP3   OH265155   3.954   4.175  12.880 -0.7123 -0.2887  0.5979
14555TIP3    H165156   3.920   4.150  12.794 -0.9890 -0.5939  0.7968
14555TIP3    H265157   3.911   4.258  12.899 -0.1173  0.1355  0.1311
14556TIP3   OH265158   3.024   0.154  16.740  0.3321 -0.4534 -0.3587
14556TIP3    H165159   2.975   0.214  16.683 -1.3115 -1.2892  0.1434
14556TIP3    H265160   3.056   0.085  16.681 -0.1623 -0.5655 -0.4943
14557TIP3   OH265161   0.735   1.332   0.006 -0.4062  0.1667  0.3108
14557TIP3    H165162   0.719   1.306  -0.084  1.5325 -1.2444  0.3369
14557TIP3    H265163   0.650   1.325   0.049 -0.9762 -0.9772 -0.9757
14558TIP3   OH265164   3.897   2.944  15.087 -0.0296  0.3055 -0.6798
14558TIP3    H165165   3.839   2.869  15.084  0.8757 -0.4756  0.9732
14558TIP3    H265166   3.844   3.015  15.123 -0.1446 -0.2500  0.2631
14559TIP3   OH265167   3.925   3.897   5.217  0.2031 -0.4955 -0.5221
14559TIP3    H165168   3.836   3.901   5.253  0.5067 -2.7507  0.5904
14559TIP3    H265169   3.975   3.849   5.283  1.9764 -0.2509 -1.6655
14560TIP3   OH265170   0.006   1.118  13.552 -0.6557  0.7455  0.1882
14560TIP3    H165171   0.093   1.107  13.513 -0.5140 -0.1406  0.7352
14560TIP3    H265172  -0.050   1.059  13.501 -0.6678  0.3377  0.6604
14561TIP3   OH265173   5.292   4.078   3.717  0.2251  0.4616  0.0872
14561TIP3    H165174   5.283   4.060   3.811 -0.5487 -0.3317 -0.1283
14561TIP3    H265175   5.203   4.068   3.682  0.5337  0.6181 -0.7555
14562TIP3   OH265176   3.194   0.936   6.398  0.1925  0.2370 -0.1760
14562TIP3    H165177   3.121   0.971   6.448 -0.8011  0.4463 -1.7497
14562TIP3    H265178   3.270   0.950   6.454 -1.0332 -0.4841  1.7199
14563TIP3   OH265179   2.487   2.655  14.090 -0.4276 -0.1303  0.7492
14563TIP3    H165180   2.516   2.646  14.181  1.0095 -1.7823  0.1761
14563TIP3    H265181   2.465   2.566  14.063 -1.8635  0.5016 -0.1976
14564TIP3   OH265182   0.762   2.578   0.815 -0.0096 -0.8615  0.0097
14564TIP3    H165183   0.723   2.520   0.750  0.4720 -1.7018  0.4514
14564TIP3    H265184   0.834   2.527   0.851 -0.6251 -0.6386  1.6025
14565TIP3   OH265185   3.486   3.473   4.060 -0.3232 -0.4281 -0.3572
14565TIP3    H165186   3.579   3.485   4.077 -0.5130  2.3453 -1.1004
14565TIP3    H265187   3.445   3.556   4.083 -2.9473 -2.2261  1.8676
14566TIP3   OH265188   6.785   4.979   1.265 -0.3072  0.0559 -0.2308
14566TIP3    H165189   6.764   5.072   1.259 -0.0963  0.1509  0.4637
14566TIP3    H265190   6.741   4.949   1.344  0.6105 -0.1658  0.2014
14567TIP3   OH265191   6.173   0.275  12.383  0.4095 -0.2394 -0.0171
14567TIP3    H165192   6.081   0.254  12.365  0.6538 -1.4560  0.0850
14567TIP3    H265193   6.185   0.363  12.348 -0.2564 -0.8867 -1.9433
14568TIP3   OH265194   0.667   3.741   0.651  0.2308  0.1801  0.1976
14568TIP3    H165195   0.750   3.789   0.653  1.2201 -1.4834  0.4812
14568TIP3    H265196   0.631   3.759   0.564  1.9410 -0.7958 -0.7441
14569TIP3   OH265197   6.436   0.235  13.100 -0.2403  0.6181  0.3641
14569TIP3    H165198   6.397   0.177  13.165 -0.1558 -0.7121 -0.7429
14569TIP3    H265199   6.514   0.270  13.142 -0.8002  0.6570  1.3791
14570TIP3   OH265200   4.571   3.721   2.671  0.0608 -0.1229  0.0898
14570TIP3    H165201   4.478   3.744   2.675  0.0291 -0.1896 -0.2709
14570TIP3    H265202   4.615   3.791   2.719 -0.1300  0.1735 -0.1659
14571TIP3   OH265203   4.081   1.383   0.258 -0.3027 -0.1263 -0.0027
14571TIP3    H165204   4.001   1.340   0.230 -0.1823 -1.0622  1.1002
14571TIP3    H265205   4.151   1.336   0.213 -0.4613  1.9635 -2.5811
14572TIP3   OH265206   0.971   2.425  11.477  0.0002 -0.8298 -0.0081
14572TIP3    H165207   1.010   2.405  11.563  0.8055 -0.8764 -0.3824
14572TIP3    H265208   1.020   2.371  11.415  1.6619  1.6274 -0.9207
14573TIP3   OH265209   3.064   1.881  10.027 -0.2060  0.0606  0.3029
14573TIP3    H165210   2.990   1.822  10.016 -0.1785  0.1830 -0.6051
14573TIP3    H265211   3.046   1.928  10.108  1.2071 -3.2662  2.6597
14574TIP3   OH265212   5.662   1.456  17.099  0.0250 -0.1974 -0.3347
14574TIP3    H165213   5.592   1.421  17.043  1.5031 -1.5852 -1.3593
14574TIP3    H265214   5.662   1.550  17.081 -1.6173 -0.1720 -0.2695
14575TIP3   OH265215   1.131   6.479   3.392 -0.5239 -0.0454  0.3800
14575TIP3    H165216   1.077   6.538   3.340  0.4664 -0.0296 -0.6516
14575TIP3    H265217   1.074   6.449   3.463 -1.1540  1.8113  0.6730
14576TIP3   OH265218   5.737   2.480   4.893  0.1449 -0.2348  0.4989
14576TIP3    H165219   5.744   2.574   4.913  0.8944 -0.1231 -0.2944
14576TIP3    H265220   5.807   2.440   4.945  0.4122 -0.2510  0.1236
14577TIP3   OH265221   5.484   1.645   6.084 -0.2273 -0.1234 -0.2529
14577TIP3    H165222   5.469   1.628   6.177  0.8758  3.1041  0.5689
14577TIP3    H265223   5.403   1.686   6.053  1.2996  3.8185  0.6736
14578TIP3   OH265224   5.298   4.270   4.627 -1.0876  0.1548 -0.6807
14578TIP3    H165225   5.249   4.223   4.694  0.1876 -1.4872 -0.8596
14578TIP3    H265226   5.250   4.252   4.546  0.1139 -1.9709 -0.9545
14579TIP3   OH265227   2.070   6.201   1.977 -0.4928 -0.3114 -0.7194
14579TIP3    H165228   2.017   6.139   2.028 -1.9216  0.6650 -0.9875
14579TIP3    H265229   2.131   6.239   2.040 -2.1226  0.7589  0.2568
14580TIP3   OH265230   4.544   6.617  15.927 -0.0143 -0.0792  0.5134
14580TIP3    H165231   4.629   6.661  15.929  0.1698 -0.2919 -1.6522
14580TIP3    H265232   4.564   6.527  15.902 -0.7514 -0.4587  1.2763
14581TIP3   OH265233   3.774   0.006   5.905 -0.0824 -0.4969  0.3062
14581TIP3    H165234   3.780  -0.007   5.811 -0.5840  0.1575  0.1810
14581TIP3    H265235   3.858   0.043   5.931 -0.1532 -0.1445  0.0282
14582TIP3   OH265236   2.156   5.959   4.096  0.1005 -0.0385  0.1133
14582TIP3    H165237   2.152   6.013   4.017 -1.1775 -0.0476  0.1636
14582TIP3    H265238   2.241   5.915   4.090 -0.2641 -0.5622 -1.5996
14583TIP3   OH265239   0.562   1.447  15.375 -0.6153  0.2106 -0.5624
14583TIP3    H165240   0.646   1.408  15.349 -0.5116  0.6982 -0.9785
14583TIP3    H265241   0.542   1.408  15.460 -0.1031 -0.1199 -0.5912
14584TIP3   OH265242   3.270   5.072  16.691  0.2581 -0.3621 -0.5089
14584TIP3    H165243   3.188   5.121  16.703  0.4982 -0.0458 -0.1654
14584TIP3    H265244   3.338   5.139  16.690  0.2421 -0.3321 -3.8189
14585TIP3   OH265245   4.930   2.495   2.787  0.3969 -0.2008  0.7784
14585TIP3    H165246   5.021   2.479   2.815  0.5605  0.1297  0.4424
14585TIP3    H265247   4.886   2.411   2.798  1.0049 -0.6386 -0.0742
14586TIP3   OH265248   1.647   4.882   4.270  0.2731  0.1420  0.1681
14586TIP3    H165249   1.627   4.976   4.267 -1.1799 -0.1602  0.0449
14586TIP3    H265250   1.648   4.861   4.364 -1.0273 -0.0419  0.1516
14587TIP3   OH265251   2.786   1.203   2.653 -0.7933 -0.1749 -0.0257
14587TIP3    H165252   2.867   1.223   2.699 -1.3616  1.9732  0.0754
14587TIP3    H265253   2.791   1.109   2.636  1.3995 -0.1925  0.5726
14588TIP3   OH265254   2.111   1.691  16.482 -0.0394  0.0200  0.2762
14588TIP3    H165255   2.140   1.621  16.540 -0.7044 -1.5589 -1.2616
14588TIP3    H265256   2.191   1.721  16.439  0.1338 -0.3640  0.3264
14589TIP3   OH265257   1.824   0.565  15.070  0.2061 -0.5762 -0.3198
14589TIP3    H165258   1.854   0.520  14.991 -1.0477 -0.6319 -0.7607
14589TIP3    H265259   1.901   0.614  15.099  0.5470 -0.1559 -1.8604
14590TIP3   OH265260   6.653   3.821  16.831 -0.4183 -0.0641  0.2074
14590TIP3    H165261   6.574   3.872  16.847 -0.2622  0.0721  0.5725
14590TIP3    H265262   6.622   3.735  16.802 -0.7197 -0.3380  1.3222
14591TIP3   OH265263   4.528   6.284   0.827  0.0308 -0.0723 -0.0096
14591TIP3    H165264   4.465   6.356   0.835  1.2660  1.0194 -0.0491
14591TIP3    H265265   4.573   6.281   0.911  0.3878 -0.4108 -0.2089
14592TIP3   OH265266   5.330   6.464  11.655 -0.3655  0.2319  0.0675
14592TIP3    H165267   5.341   6.431  11.566  1.0652  2.0073 -0.4552
14592TIP3    H265268   5.291   6.551  11.643 -3.1163 -0.7767  1.3503
14593TIP3   OH265269   6.298   5.693   1.876 -0.4137  0.2334 -0.5375
14593TIP3    H165270   6.275   5.758   1.810  0.2061 -2.2823 -3.3217
14593TIP3    H265271   6.227   5.629   1.874 -0.5346  0.2550  1.4604
14594TIP3   OH265272   0.728   6.698  16.971 -0.3308  0.7166  0.0489
14594TIP3    H165273   0.679   6.637  17.025 -0.2888  0.6345 -0.0046
14594TIP3    H265274   0.781   6.748  17.033  1.6942 -1.1673 -0.1516
14595TIP3   OH265275   1.783   5.831   6.275  0.1702  0.1873  0.3097
14595TIP3    H165276   1.767   5.830   6.369 -0.5407  0.7508  0.2025
14595TIP3    H265277   1.710   5.780   6.238 -0.0591  0.7263  0.0008
14596TIP3   OH265278   3.423   4.178   0.413 -0.0308  0.3207  0.3943
14596TIP3    H165279   3.375   4.193   0.331  0.6235 -2.0266 -0.4694
14596TIP3    H265280   3.414   4.260   0.461 -3.9502  0.3504 -0.2160
14597TIP3   OH265281   3.645   6.696  10.882 -0.3618  0.5693 -0.2630
14597TIP3    H165282   3.605   6.642  10.814 -1.0792 -1.2352  1.5230
14597TIP3    H265283   3.739   6.694  10.863 -0.3932 -1.2539 -0.2903
14598TIP3   OH265284   0.827   0.311   1.622  0.1272  0.1678 -0.1945
14598TIP3    H165285   0.805   0.403   1.636  1.4523  0.5681 -0.6815
14598TIP3    H265286   0.747   0.273   1.586 -0.5790  1.0173  0.4338
14599TIP3   OH265287   2.692   5.631  16.984  0.1577  0.3935  0.1960
14599TIP3    H165288   2.709   5.610  17.076 -1.9515 -0.9448  0.3239
14599TIP3    H265289   2.597   5.621  16.974  0.5051 -0.8271 -2.4296
14600TIP3   OH265290   4.115   3.448   2.986 -0.3128  0.4408  0.1212
14600TIP3    H165291   4.182   3.380   2.984  0.6578  1.2906  1.7503
14600TIP3    H265292   4.115   3.486   2.898 -1.3781 -2.1106 -1.0199
14601TIP3   OH265293   2.489   2.078   0.398  0.2342 -0.0559  0.4005
14601TIP3    H165294   2.464   2.074   0.306  1.8671  2.3885 -0.2063
14601TIP3    H265295   2.584   2.063   0.397  0.1752 -0.5774  1.7583
14602TIP3   OH265296   3.290   0.934   4.133  0.0371  0.0320 -0.3922
14602TIP3    H165297   3.318   0.851   4.093  0.4706  0.1796 -0.3982
14602TIP3    H265298   3.283   0.914   4.227  1.9687  0.4686 -0.1384
14603TIP3   OH265299   2.479   0.142  15.226 -0.1526  0.2901  0.1593
14603TIP3    H165300   2.402   0.120  15.173 -0.5724  3.4147 -0.6438
14603TIP3    H265301   2.450   0.132  15.316 -1.8776  2.4999 -0.1212
14604TIP3   OH265302   4.946   4.770  14.437 -0.2806  0.1929 -0.2699
14604TIP3    H165303   4.985   4.741  14.355  0.4971  0.1837  0.1025
14604TIP3    H265304   4.992   4.851  14.458 -2.1990  1.5311 -1.1293
14605TIP3   OH265305   4.241   2.270  10.522  0.3979 -0.1444 -0.6507
14605TIP3    H165306   4.330   2.237  10.512  0.7131  1.1007 -2.2155
14605TIP3    H265307   4.229   2.328  10.447 -1.5553  0.0991 -0.1681
14606TIP3   OH265308   1.688   2.138  14.117 -0.3122  0.0450 -0.1911
14606TIP3    H165309   1.732   2.059  14.085  0.5369  1.6070 -3.0678
14606TIP3    H265310   1.734   2.210  14.075 -1.7526  2.0518  1.5478
14607TIP3   OH265311   0.150   3.230  11.481  0.3171 -0.0825 -0.3928
14607TIP3    H165312   0.191   3.314  11.500  0.2010 -0.2093  0.4348
14607TIP3    H265313   0.198   3.195  11.406  0.5718  0.5718 -0.5336
14608TIP3   OH265314   2.733   2.852  10.980  0.1449  0.0986  0.2300
14608TIP3    H165315   2.680   2.807  11.046 -1.4579 -0.2043 -1.2252
14608TIP3    H265316   2.670   2.902  10.928  1.3681  0.3090 -1.0849
14609TIP3   OH265317   4.288   0.304   2.976 -0.0368  0.4155 -0.2936
14609TIP3    H165318   4.368   0.332   3.021  0.0447  0.2677 -0.3466
14609TIP3    H265319   4.243   0.250   3.040 -0.6856  1.4911  0.1669
14610TIP3   OH265320   3.634   2.726  11.052  0.1803 -0.4144 -0.3607
14610TIP3    H165321   3.634   2.709  11.146 -2.4619  1.5741  0.0477
14610TIP3    H265322   3.655   2.641  11.012  1.2117 -1.3075  1.9919
14611TIP3   OH265323   6.443   3.882  12.797  0.2081 -0.6606 -0.0838
14611TIP3    H165324   6.386   3.836  12.736  1.0687 -0.2349 -1.2192
14611TIP3    H265325   6.516   3.912  12.744  0.4516  0.6336  0.9559
14612TIP3   OH265326   2.663   6.524  15.835  0.3182 -0.0024  0.0681
14612TIP3    H165327   2.691   6.567  15.915 -0.6295 -0.8461  0.8784
14612TIP3    H265328   2.627   6.440  15.864 -1.1131  0.1757 -1.1241
14613TIP3   OH265329   5.665   5.117   3.029  0.1679 -0.1827 -0.3510
14613TIP3    H165330   5.616   5.035   3.022  1.3412 -0.9401  0.0778
14613TIP3    H265331   5.626   5.175   2.963 -0.0300 -1.4189 -1.3276
14614TIP3   OH265332   5.788   1.125   0.899 -0.2446  0.4680 -0.1397
14614TIP3    H165333   5.704   1.141   0.857 -1.4348  0.0352  1.9722
14614TIP3    H265334   5.797   1.030   0.899  0.4508  0.5310 -0.7312
14615TIP3   OH265335   1.238   6.262   4.190  0.2234  0.1819 -0.0116
14615TIP3    H165336   1.161   6.286   4.242 -0.4341 -2.9877  0.5802
14615TIP3    H265337   1.310   6.260   4.254  0.1495 -0.0353  0.0654
14616TIP3   OH265338   5.897   3.627  13.999  0.0805  0.0865  0.0172
14616TIP3    H165339   5.931   3.555  14.052  1.1463  0.5031 -0.0775
14616TIP3    H265340   5.864   3.586  13.919 -1.4709 -0.5389  0.9635
14617TIP3   OH265341   1.429   4.452   3.816 -0.3829  0.5927 -0.2974
14617TIP3    H165342   1.381   4.466   3.897 -0.3445  0.8692 -0.3221
14617TIP3    H265343   1.422   4.535   3.769  0.9107  0.9574  0.1170
14618TIP3   OH265344   2.604   1.197   2.955  0.0841  0.6168 -0.0537
14618TIP3    H165345   2.639   1.111   2.977  0.9920  0.6444 -1.3621
14618TIP3    H265346   2.664   1.259   2.997  0.2083  0.6360 -0.2623
14619TIP3   OH265347   3.873   0.356   1.440  0.0193  0.4562 -0.4975
14619TIP3    H165348   3.856   0.312   1.356 -0.5149  1.7347 -1.0617
14619TIP3    H265349   3.793   0.342   1.491 -0.6108  1.7541 -1.1109
14620TIP3   OH265350   6.748   1.084   5.862  0.0329 -0.1307  0.0589
14620TIP3    H165351   6.667   1.042   5.891 -1.0346  0.8860 -1.4199
14620TIP3    H265352   6.735   1.101   5.769  1.4040  1.2923  0.1121
14621TIP3   OH265353   4.056   1.685  13.518  0.0883 -0.0475  0.7195
14621TIP3    H165354   4.128   1.724  13.469 -0.4636  0.0123 -0.0446
14621TIP3    H265355   3.979   1.703  13.466 -0.5925  0.5370  1.9031
14622TIP3   OH265356   6.809   4.739  13.564  0.0705 -0.0347 -0.4281
14622TIP3    H165357   6.829   4.830  13.585  1.5743 -0.0235 -1.8796
14622TIP3    H265358   6.713   4.734  13.567  0.0111  1.4285  0.2961
14623TIP3   OH265359   2.657   2.270  14.808 -0.2396 -0.1342  0.6700
14623TIP3    H165360   2.586   2.264  14.744  1.3425  0.4531 -1.1509
14623TIP3    H265361   2.667   2.363  14.826  0.8748 -0.1250  0.0199
14624TIP3   OH265362   6.709   0.883  14.505 -0.4010  0.6483  0.0693
14624TIP3    H165363   6.803   0.876  14.486 -0.6942 -1.1142 -0.8683
14624TIP3    H265364   6.667   0.885  14.419 -1.4455 -2.7699  0.4177
14625TIP3   OH265365   2.051   1.589   4.308  0.2818 -0.2477  0.1476
14625TIP3    H165366   2.099   1.521   4.261  1.6414  0.4525  0.5046
14625TIP3    H265367   1.959   1.571   4.288  0.5760 -2.5808  0.7500
14626TIP3   OH265368   1.078   1.494   4.696  0.1996  0.1684  0.0647
14626TIP3    H165369   1.044   1.404   4.700 -2.2426  0.9983 -1.3243
14626TIP3    H265370   1.041   1.530   4.616  0.6508  2.6271  0.9391
14627TIP3   OH265371   2.010   3.227   3.667 -0.2698  0.3461 -0.5261
14627TIP3    H165372   1.993   3.137   3.694 -0.6318  0.3715 -0.6647
14627TIP3    H265373   2.061   3.264   3.738 -1.6261  0.5604  0.3612
14628TIP3   OH265374   4.785   6.121   5.623  0.0381  0.0063  0.1846
14628TIP3    H165375   4.844   6.047   5.608  0.7240  0.7548 -1.0168
14628TIP3    H265376   4.706   6.099   5.575  0.8273  0.7167 -1.5028
14629TIP3   OH265377   0.119   1.396   4.548  0.8396 -0.0856 -0.0632
14629TIP3    H165378   0.195   1.374   4.603  0.3951 -1.6864 -0.0659
14629TIP3    H265379   0.045   1.354   4.591 -0.3293  2.7047  0.7534
14630TIP3   OH265380   0.960   5.627  11.346  0.1146 -0.4835 -0.2336
14630TIP3    H165381   0.916   5.664  11.269  0.2550 -0.1412 -0.1527
14630TIP3    H265382   1.053   5.626  11.321  0.0454 -1.3552 -0.4676
14631TIP3   OH265383   6.014   1.576   5.327  0.2408  0.5285  0.7481
14631TIP3    H165384   6.068   1.619   5.393  0.7577 -0.0003  0.6700
14631TIP3    H265385   5.928   1.568   5.368  0.2638  1.2110  0.9399
14632TIP3   OH265386   4.848   3.900  12.783  0.3696 -0.2233 -0.3245
14632TIP3    H165387   4.781   3.969  12.788 -0.5824 -1.1421 -0.1492
14632TIP3    H265388   4.850   3.862  12.871  1.3385 -0.0003 -0.2497
14633TIP3   OH265389   3.559   2.143   4.979 -0.0994  0.2296  0.0855
14633TIP3    H165390   3.496   2.183   4.919 -0.1361  1.6793  1.0660
14633TIP3    H265391   3.535   2.051   4.980  0.5508 -0.0171 -2.9185
14634TIP3   OH265392   3.254   4.043  12.857 -0.2005 -0.1630  0.0449
14634TIP3    H165393   3.239   4.138  12.859 -0.6667 -0.2402  0.5619
14634TIP3    H265394   3.302   4.025  12.938  0.6936 -0.2415 -0.5034
14635TIP3   OH265395   3.917   0.273  13.023  0.3455 -0.1635 -0.7388
14635TIP3    H165396   3.933   0.368  13.022  0.3038 -0.1476 -0.1080
14635TIP3    H265397   3.993   0.237  13.069  0.1613 -0.3971 -0.6191
14636TIP3   OH265398   3.929   4.365   3.984 -0.1180  0.3688  0.2103
14636TIP3    H165399   3.999   4.425   4.012  0.4899 -1.0814  1.8817
14636TIP3    H265400   3.959   4.279   4.012 -0.7822 -0.8248 -2.5552
14637TIP3   OH265401   2.904   1.224   1.091 -0.6116  0.2740 -0.2291
14637TIP3    H165402   2.832   1.288   1.096 -1.0570  0.1270 -3.3476
14637TIP3    H265403   2.884   1.160   1.158 -3.1828  0.5110 -0.6994
14638TIP3   OH265404   6.700   2.319   1.022 -0.6276  0.8539 -0.1083
14638TIP3    H165405   6.767   2.379   0.990  0.3293  0.2544  0.7242
14638TIP3    H265406   6.746   2.235   1.032 -1.6773  0.2517 -0.2211
14639TIP3   OH265407   4.278   1.270   1.118  0.4211  0.1874  0.3948
14639TIP3    H165408   4.198   1.267   1.171 -0.3431  0.7850 -0.7074
14639TIP3    H265409   4.267   1.346   1.061  1.0460 -0.6548 -0.8903
14640TIP3   OH265410   3.139   2.373   3.041 -0.7734 -0.3678 -0.1100
14640TIP3    H165411   3.214   2.383   2.981 -0.3254 -1.8973  0.1662
14640TIP3    H265412   3.089   2.454   3.030  0.2985  0.1785 -1.1715
14641TIP3   OH265413   6.757   2.888   4.056  0.5510 -0.1804 -0.1125
14641TIP3    H165414   6.754   2.936   4.139  0.5395 -1.9241  0.9097
14641TIP3    H265415   6.803   2.947   3.997 -0.8843  1.7847  0.6548
14642TIP3   OH265416   4.745   0.868  13.230  0.5304 -0.3790 -0.1647
14642TIP3    H165417   4.728   0.848  13.322 -0.6281  1.8411  0.1430
14642TIP3    H265418   4.802   0.945  13.233  0.0966 -0.0081 -1.2997
14643TIP3   OH265419   2.725   3.799   0.230 -0.2420 -0.1703 -0.2496
14643TIP3    H165420   2.763   3.801   0.142  0.3594  0.3939  0.0130
14643TIP3    H265421   2.796   3.829   0.287 -0.7105 -0.2737  0.3969
14644TIP3   OH265422   1.258   6.099  15.688 -0.5680 -0.4963  0.4909
14644TIP3    H165423   1.307   6.042  15.747 -0.3325 -1.1013 -0.2832
14644TIP3    H265424   1.174   6.112  15.733  0.3636  0.7095  1.9076
14645TIP3   OH265425   2.793   6.740  14.511  0.4181 -0.1179  0.0867
14645TIP3    H165426   2.762   6.787  14.433 -0.1558 -1.1634 -0.3189
14645TIP3    H265427   2.743   6.659  14.512  0.6312 -0.2469  1.3920
14646TIP3   OH265428   5.923   6.689  16.998  0.5334 -0.2783 -0.1504
14646TIP3    H165429   5.869   6.610  17.007  0.5452 -0.4225 -1.2299
14646TIP3    H265430   5.890   6.749  17.064 -0.5652 -0.5936 -0.4085
14647TIP3   OH265431   1.087   1.392   2.963  0.2320 -0.2309 -0.4817
14647TIP3    H165432   0.992   1.397   2.950 -0.0827 -0.9566  1.3940
14647TIP3    H265433   1.111   1.480   2.991  0.2278  0.1298 -1.5751
14648TIP3   OH265434   0.777   3.953  14.962  0.3420  0.0415  0.2346
14648TIP3    H165435   0.686   3.979  14.977 -0.0182 -1.2430  0.3413
14648TIP3    H265436   0.773   3.896  14.884  1.2549  1.1453 -0.6483
14649TIP3   OH265437   2.722   1.113   4.179  0.1110 -0.1078 -0.1457
14649TIP3    H165438   2.794   1.095   4.240 -0.5285 -1.6037  0.1974
14649TIP3    H265439   2.646   1.124   4.236 -0.0678  0.8227 -0.5508
14650TIP3   OH265440   6.068   3.294   1.231  0.5145  0.1995 -0.4279
14650TIP3    H165441   5.975   3.281   1.250  0.5058  0.4415 -0.3117
14650TIP3    H265442   6.070   3.347   1.152  0.5514 -0.5734 -0.9512
14651TIP3   OH265443   1.041   3.608   2.264 -0.0256 -0.6250 -0.4250
14651TIP3    H165444   1.037   3.594   2.170 -0.7817 -0.8812 -0.3544
14651TIP3    H265445   0.991   3.535   2.301  1.8088 -1.5921  0.2623
14652TIP3   OH265446   4.896   5.973  12.290 -0.3449 -0.3377 -0.7674
14652TIP3    H165447   4.931   6.012  12.370  0.1656 -0.6304 -0.8507
14652TIP3    H265448   4.970   5.972  12.229 -0.8815  0.4145 -1.4338
14653TIP3   OH265449   0.922   5.424  12.872  0.0896 -0.3769 -0.1412
14653TIP3    H165450   0.869   5.410  12.793 -2.5404 -1.8717  1.7973
14653TIP3    H265451   1.012   5.421  12.841 -0.8921  2.4921 -3.6182
14654TIP3   OH265452   0.600   0.827  16.893 -0.7043  0.1849 -0.0009
14654TIP3    H165453   0.538   0.856  16.960  0.5170  2.0534  0.3324
14654TIP3    H265454   0.680   0.807  16.942 -0.8657 -1.7868 -0.4890
14655TIP3   OH265455   4.266   5.014   0.896 -0.5702 -0.4785  0.7820
14655TIP3    H165456   4.282   4.948   0.828 -0.4987  1.9950 -1.6718
14655TIP3    H265457   4.171   5.008   0.911 -0.5983 -1.0184  0.4407
14656TIP3   OH265458   0.361   4.161  16.983  0.1902  0.5938  0.8180
14656TIP3    H165459   0.379   4.124  16.897 -0.3938  2.9679 -0.3811
14656TIP3    H265460   0.393   4.096  17.045  0.4643 -1.2247 -1.1953
14657TIP3   OH265461   4.199   2.920   2.831 -0.4166 -0.6507 -0.5514
14657TIP3    H165462   4.211   2.827   2.811 -0.6759 -0.5487 -1.2129
14657TIP3    H265463   4.172   2.958   2.748  0.3812  0.1415 -0.4568
14658TIP3   OH265464   2.589   3.864  12.522 -0.4888 -0.1107  0.1864
14658TIP3    H165465   2.650   3.918  12.473 -0.8729 -0.1774 -0.3640
14658TIP3    H265466   2.503   3.885  12.487 -0.8391  0.3271  1.2753
14659TIP3   OH265467   2.079   4.945  14.679  0.1406  1.0577 -0.2698
14659TIP3    H165468   2.120   4.997  14.609  1.6578 -0.1137 -0.2666
14659TIP3    H265469   2.152   4.908  14.727 -0.9241 -0.4588  0.2027
14660TIP3   OH265470   5.092   2.737  12.052  0.2443  0.1150 -0.6308
14660TIP3    H165471   5.047   2.653  12.060  1.4320 -0.3094  2.3510
14660TIP3    H265472   5.023   2.801  12.039 -1.0817 -0.7665  1.7967
14661TIP3   OH265473   5.274   5.519  15.393 -0.3485  0.3190 -0.0754
14661TIP3    H165474   5.363   5.540  15.422  0.4104 -1.6070 -0.9217
14661TIP3    H265475   5.243   5.456  15.458 -0.6948  0.1769 -0.3792
14662TIP3   OH265476   6.798   1.942   3.505 -0.5534 -0.3985  0.2091
14662TIP3    H165477   6.894   1.936   3.505 -0.6477 -2.3908 -1.4164
14662TIP3    H265478   6.774   1.931   3.597  0.8159  1.4622  0.8318
14663TIP3   OH265479   2.919   5.192   4.833  0.0108 -0.1445 -0.8091
14663TIP3    H165480   2.878   5.238   4.906  1.0923 -0.0745 -0.2303
14663TIP3    H265481   3.005   5.232   4.824  0.1583 -0.6270 -1.6762
14664TIP3   OH265482   4.296   6.002  16.211 -0.6057 -0.1095 -0.2073
14664TIP3    H165483   4.378   5.954  16.219 -1.5729 -1.5385  1.2049
14664TIP3    H265484   4.323   6.088  16.176  1.3273 -0.9834 -0.9733
14665TIP3   OH265485   1.506   0.547   5.592  0.7745  0.4319  0.3217
14665TIP3    H165486   1.590   0.504   5.611  0.8442 -1.1683 -3.0943
14665TIP3    H265487   1.524   0.600   5.514 -1.2267  0.5640 -0.0847
14666TIP3   OH265488   6.184   0.856   0.258  0.0267 -0.6518  0.3470
14666TIP3    H165489   6.278   0.838   0.255  0.1408  0.0386 -0.5163
14666TIP3    H265490   6.172   0.932   0.200 -0.8892  0.0257  1.4042
14667TIP3   OH265491   4.039   4.388  14.675  0.1698 -0.1986 -0.2065
14667TIP3    H165492   4.078   4.325  14.614 -0.5777  0.1759 -1.1025
14667TIP3    H265493   4.007   4.335  14.748  0.3511 -0.7562 -0.5321
14668TIP3   OH265494   5.741   1.367  12.753  0.6570 -0.0128  0.5707
14668TIP3    H165495   5.758   1.421  12.829  2.7438  0.0192  0.1201
14668TIP3    H265496   5.695   1.424  12.692  2.0639  1.0339  0.4497
14669TIP3   OH265497   2.737   0.858  10.643  0.0462  0.5766  0.4554
14669TIP3    H165498   2.740   0.944  10.601 -0.4325 -0.0548 -0.9077
14669TIP3    H265499   2.644   0.835  10.642  0.1647  0.0746  0.8980
14670TIP3   OH265500   6.812   1.287  16.700  0.4880  0.5427 -0.1688
14670TIP3    H165501   6.858   1.361  16.660  0.0482  0.5270 -0.7151
14670TIP3    H265502   6.835   1.212  16.646  1.9284  0.0438  1.1300
14671TIP3   OH265503   5.850   0.041  14.913  0.3632 -0.1140  0.0433
14671TIP3    H165504   5.891  -0.005  14.987 -0.8314 -0.1561  0.6965
14671TIP3    H265505   5.766  -0.003  14.901 -0.0934  0.8608 -0.3808
14672TIP3   OH265506   4.014   5.639   0.334  0.2188 -0.4964  0.1499
14672TIP3    H165507   3.941   5.578   0.333 -0.1131 -0.1088 -2.3123
14672TIP3    H265508   3.975   5.724   0.353 -0.0491 -0.2365 -1.4799
14673TIP3   OH265509   2.797   4.897   2.629  0.2139  0.4990  0.1594
14673TIP3    H165510   2.884   4.868   2.601  1.0264  0.1099  2.9640
14673TIP3    H265511   2.809   4.988   2.655  0.1424  0.0169  1.9582
14674TIP3   OH265512   0.339   0.967   6.352 -0.5512  0.6072  0.2533
14674TIP3    H165513   0.284   1.035   6.390 -0.9270 -0.1233  1.0230
14674TIP3    H265514   0.427   0.986   6.383 -0.4222  1.5241 -0.6290
14675TIP3   OH265515   1.458   2.949  16.446 -0.0246  0.0719  0.2421
14675TIP3    H165516   1.416   3.011  16.386 -0.6830  0.1736  0.7962
14675TIP3    H265517   1.529   2.910  16.395 -0.1220  0.6820 -0.3731
14676TIP3   OH265518   5.906   6.486   3.578 -0.1810 -0.3313  0.0996
14676TIP3    H165519   5.849   6.514   3.506 -1.0868 -0.0452  0.9088
14676TIP3    H265520   5.895   6.554   3.645  0.8681 -0.4430  0.4014
14677TIP3   OH265521   5.243   4.549   3.898  0.0480  0.3034 -0.0230
14677TIP3    H165522   5.230   4.536   3.992  0.4741 -0.7609 -0.1049
14677TIP3    H265523   5.291   4.471   3.869  1.6042  1.4985 -0.7660
14678TIP3   OH265524   5.686   6.218   3.232 -0.2152 -0.2146 -0.1820
14678TIP3    H165525   5.775   6.253   3.239 -0.5887  1.1981 -1.9911
14678TIP3    H265526   5.645   6.240   3.315  1.1700 -1.0685  0.7571
14679TIP3   OH265527   5.452   0.606   3.119  0.3962  0.1565 -0.0265
14679TIP3    H165528   5.387   0.662   3.162  0.6985  1.0611 -0.7173
14679TIP3    H265529   5.536   0.646   3.143  0.6960 -0.9165  0.7367
14680TIP3   OH265530   5.261   4.243  11.658  0.2298  0.4143  0.2749
14680TIP3    H165531   5.187   4.302  11.644 -0.7739 -0.8746  0.0675
14680TIP3    H265532   5.315   4.254  11.580 -1.0761 -0.5429 -0.7936
14681TIP3   OH265533   3.572   4.735   5.572  0.5889  0.3263  0.5436
14681TIP3    H165534   3.556   4.644   5.596  2.9042  0.4386  2.8153
14681TIP3    H265535   3.601   4.731   5.480 -0.1722 -1.1177  0.3532
14682TIP3   OH265536   5.725   4.135   0.692  0.2141  0.4745 -0.0335
14682TIP3    H165537   5.661   4.203   0.715 -0.3617  0.3283 -1.1595
14682TIP3    H265538   5.687   4.054   0.726  0.7266  0.6741  0.9957
14683TIP3   OH265539   4.024   2.523  14.509  0.4284 -0.0819  0.6845
14683TIP3    H165540   4.019   2.618  14.520 -1.1381 -0.2040  1.1530
14683TIP3    H265541   4.095   2.496  14.567  1.5832  0.9169 -0.2369
14684TIP3   OH265542   4.495   2.132   5.911 -0.3134  0.3446 -0.2497
14684TIP3    H165543   4.548   2.204   5.878  0.7775  0.0823  0.9185
14684TIP3    H265544   4.510   2.132   6.005  0.6614 -2.1717 -0.3697
14685TIP3   OH265545   3.243   5.109  17.011  0.1861 -1.1865 -0.5130
14685TIP3    H165546   3.301   5.159  17.069  0.0355  1.8585 -2.8368
14685TIP3    H265547   3.301   5.045  16.969  1.2143 -0.3851 -0.3466
14686TIP3   OH265548   1.951   0.101   4.694  0.0193 -0.2448 -0.0477
14686TIP3    H165549   2.008   0.093   4.770 -0.4993  0.7686  0.4587
14686TIP3    H265550   2.009   0.129   4.623 -0.1959  3.2561  1.0338
14687TIP3   OH265551   5.985   5.391   1.113  0.2232 -0.1334  0.5769
14687TIP3    H165552   5.949   5.472   1.150  0.6719  0.8055 -0.9596
14687TIP3    H265553   5.992   5.331   1.187 -0.9217  0.9505  1.5902
14688TIP3   OH265554   4.332   5.842   1.455 -0.5303 -0.0217 -0.2792
14688TIP3    H165555   4.345   5.812   1.545 -0.0424  0.7434 -0.0860
14688TIP3    H265556   4.315   5.936   1.464  1.4189  0.4523 -1.1040
14689TIP3   OH265557   0.848   4.581  14.300  0.2737  0.0798  0.6391
14689TIP3    H165558   0.771   4.597  14.356  0.0409  0.8408  0.1106
14689TIP3    H265559   0.852   4.486  14.292 -1.0255  0.0593  0.0941
14690TIP3   OH265560   0.620   3.558   5.564  0.6369 -0.0259 -0.0204
14690TIP3    H165561   0.642   3.652   5.563  0.7746 -0.0301  1.5990
14690TIP3    H265562   0.526   3.556   5.548  0.7687  0.3252 -0.9331
14691TIP3   OH265563   5.932   0.354   4.556  0.7897 -0.3685  0.4101
14691TIP3    H165564   6.014   0.304   4.558  1.4133  0.6431  2.4297
14691TIP3    H265565   5.901   0.351   4.647 -0.0261  1.4530  0.2028
14692TIP3   OH265566   4.538   6.668  13.759 -0.0344 -0.2072  0.3367
14692TIP3    H165567   4.567   6.736  13.698  0.2202  0.4621  1.1937
14692TIP3    H265568   4.580   6.589  13.728 -0.6527 -0.0579 -0.9121
14693TIP3   OH265569   2.955   0.792   1.960 -0.7209 -0.6730  0.1670
14693TIP3    H165570   3.023   0.772   1.895  1.3950 -0.4529  2.2258
14693TIP3    H265571   2.962   0.722   2.025 -2.1921 -0.4129  0.6243
14694TIP3   OH265572   1.858   1.014   1.246 -0.0424  0.2041 -0.0191
14694TIP3    H165573   1.862   1.090   1.303  1.7215 -0.5989  1.0070
14694TIP3    H265574   1.895   0.943   1.299 -1.2694 -1.2681 -1.0915
14695TIP3   OH265575   5.684   5.478   0.846 -0.1991 -0.5809 -0.1056
14695TIP3    H165576   5.778   5.487   0.860 -0.4479  0.0254  1.2313
14695TIP3    H265577   5.650   5.567   0.852 -0.7518 -0.6668 -1.5460
14696TIP3   OH265578   2.766   1.233   5.306  0.8987  0.6695 -0.4688
14696TIP3    H165579   2.816   1.270   5.380  0.3871 -0.6287  0.5414
14696TIP3    H265580   2.675   1.239   5.334  0.7744 -0.8741 -0.5053
14697TIP3   OH265581   0.629   6.306  17.097  0.2653 -0.2091 -0.0343
14697TIP3    H165582   0.701   6.313  17.035  0.6235  0.4009  0.4443
14697TIP3    H265583   0.583   6.390  17.090  0.0578 -0.3002  0.2179
14698TIP3   OH265584   1.570   5.060   5.821  0.1671  0.4090  0.0410
14698TIP3    H165585   1.522   5.133   5.860 -0.7561 -0.6079  0.8274
14698TIP3    H265586   1.643   5.102   5.776 -1.1007  1.9415 -0.6741
14699TIP3   OH265587   2.075   2.597  16.909  0.2279 -0.0239 -0.4547
14699TIP3    H165588   2.026   2.519  16.884  0.1279 -0.6000  1.4699
14699TIP3    H265589   2.008   2.660  16.937  0.3137  0.7328 -1.8969
14700TIP3   OH265590   2.195   5.067   2.936  0.3216 -0.0683 -0.7323
14700TIP3    H165591   2.270   5.099   2.887 -0.6373  0.3108 -1.9727
14700TIP3    H265592   2.134   5.034   2.869 -0.1457 -1.3994  0.3155
14701TIP3   OH265593   3.000   0.356  12.757  0.4714  0.2533  0.1941
14701TIP3    H165594   2.946   0.431  12.732 -1.1385 -1.0386 -0.2482
14701TIP3    H265595   3.060   0.344  12.684 -1.8919 -1.3311 -1.5271
14702TIP3   OH265596   5.455   3.776  14.754 -0.0455  0.0784 -0.1973
14702TIP3    H165597   5.547   3.768  14.780 -0.5469 -4.2595  0.6494
14702TIP3    H265598   5.453   3.744  14.664 -0.6561  0.7134 -0.4126
14703TIP3   OH265599   1.306   5.616   4.775 -0.2736  0.8412  0.4053
14703TIP3    H165600   1.262   5.672   4.839 -0.5534  0.9819  0.0928
14703TIP3    H265601   1.279   5.527   4.798  1.8929  0.6276  2.2465
14704TIP3   OH265602   4.861   4.041  16.495 -0.9748 -0.0141 -0.4331
14704TIP3    H165603   4.800   4.016  16.425  0.0218 -0.7734 -1.0507
14704TIP3    H265604   4.844   3.977  16.564 -0.7183 -0.3695 -0.6982
14705TIP3   OH265605   6.472   2.026   4.713 -0.0592 -0.2793  0.5598
14705TIP3    H165606   6.542   2.028   4.778  1.7999 -1.3011 -1.3466
14705TIP3    H265607   6.500   2.087   4.645 -0.3159 -1.7031 -0.8663
14706TIP3   OH265608   0.372   0.581  13.428 -0.2271 -0.2230  0.8820
14706TIP3    H165609   0.303   0.599  13.364 -0.7616  2.3057  2.0941
14706TIP3    H265610   0.327   0.578  13.512  1.0158  0.7859  1.6052
14707TIP3   OH265611   6.723   3.457  17.241  0.0559  0.1168 -0.4681
14707TIP3    H165612   6.637   3.487  17.211 -0.0218  1.0491  0.6493
14707TIP3    H265613   6.734   3.499  17.327  0.3765 -2.2592  0.6949
14708TIP3   OH265614   5.021   2.261  10.367  0.0471 -0.0598  0.6007
14708TIP3    H165615   4.972   2.209  10.304 -0.2254  0.2217  0.5809
14708TIP3    H265616   4.959   2.327  10.397  0.4334  0.3343  0.5333
14709TIP3   OH265617   2.901   4.487   3.318 -0.5759 -0.0321 -0.2703
14709TIP3    H165618   2.954   4.462   3.242 -1.8180  0.2524 -1.2459
14709TIP3    H265619   2.881   4.404   3.362 -0.3804 -0.2636 -0.6163
14710TIP3   OH265620   5.898   6.586  16.353  0.3004  0.3436  0.0090
14710TIP3    H165621   5.936   6.541  16.428  1.2493  1.5193  0.2562
14710TIP3    H265622   5.825   6.636  16.390 -0.1064 -0.1670 -0.0942
14711TIP3   OH265623   0.745   3.696   5.242 -0.1023 -0.1030  0.7364
14711TIP3    H165624   0.772   3.741   5.162  0.4433 -0.8881  0.4659
14711TIP3    H265625   0.809   3.722   5.308  1.4751 -2.0811  0.0585
14712TIP3   OH265626   5.786   1.234  14.091 -0.5706  0.5210  0.2320
14712TIP3    H165627   5.831   1.162  14.134  1.4084  1.2062 -0.6144
14712TIP3    H265628   5.736   1.192  14.020 -0.5165 -0.1603  0.5927
14713TIP3   OH265629   5.074   5.516   4.205  0.5680 -0.1155  0.2488
14713TIP3    H165630   5.148   5.460   4.182  1.0252  0.1941  0.9410
14713TIP3    H265631   5.079   5.589   4.144  1.5336  0.4982  1.0497
14714TIP3   OH265632   3.556   0.514   1.228  0.2631  0.2702  0.3120
14714TIP3    H165633   3.512   0.438   1.192 -0.7225  0.7927  0.3941
14714TIP3    H265634   3.535   0.585   1.166  2.1754  0.2150 -0.4241
14715TIP3   OH265635   4.606   0.336   6.201  0.7751  0.0230  0.0159
14715TIP3    H165636   4.555   0.390   6.140  0.6365 -1.7109 -1.4634
14715TIP3    H265637   4.543   0.308   6.267  0.1990 -0.6549 -0.8144
14716TIP3   OH265638   1.174   1.250   0.977 -0.6052  0.5248 -0.2198
14716TIP3    H165639   1.141   1.180   0.920  3.4837 -2.6741  1.0758
14716TIP3    H265640   1.213   1.314   0.917 -0.4440 -0.5145 -1.2302
14717TIP3   OH265641   5.386   0.472  12.940 -0.6683 -0.1538  0.0230
14717TIP3    H165642   5.328   0.408  12.981 -1.0306  0.9720  1.3077
14717TIP3    H265643   5.421   0.427  12.863 -3.3839 -0.7691 -0.8886
14718TIP3   OH265644   4.125   1.516   1.648  0.0397 -0.0350 -0.6081
14718TIP3    H165645   4.066   1.514   1.572 -0.0987 -0.0659 -0.4995
14718TIP3    H265646   4.202   1.468   1.619 -1.3090 -2.9320  0.3425
14719TIP3   OH265647   2.781   5.238  12.284 -0.0112  1.0221  0.3196
14719TIP3    H165648   2.755   5.235  12.376  0.0140  3.4657  0.4562
14719TIP3    H265649   2.700   5.255  12.236  0.4765  3.3229  0.2542
14720TIP3   OH265650   2.716   1.953  15.743 -0.3616 -0.1234 -0.2420
14720TIP3    H165651   2.651   1.893  15.780 -0.2599 -0.4943 -0.6583
14720TIP3    H265652   2.691   2.039  15.777 -1.7868 -0.0827 -1.3066
14721TIP3   OH265653   0.510   2.406   5.183 -0.4505 -0.0456 -0.4927
14721TIP3    H165654   0.590   2.457   5.173 -1.5395  1.7601 -0.1408
14721TIP3    H265655   0.466   2.413   5.098 -0.9505  0.2244 -0.2158
14722TIP3   OH265656   3.054   1.354   1.879  0.7310 -0.2208 -0.2950
14722TIP3    H165657   3.020   1.315   1.799  2.4565  0.6936 -1.4895
14722TIP3    H265658   3.044   1.449   1.866 -0.6428 -0.1011  1.3339
14723TIP3   OH265659   0.412   6.075  16.871  0.2203 -0.0568 -0.0797
14723TIP3    H165660   0.354   6.005  16.840 -0.2239 -0.3433  1.3498
14723TIP3    H265661   0.500   6.045  16.848  0.0015 -0.9095  0.1699
14724TIP3   OH265662   1.532   2.450  14.393  0.1484  0.5618 -0.3192
14724TIP3    H165663   1.463   2.502  14.434  0.9652  1.3288  0.0983
14724TIP3    H265664   1.490   2.411  14.317 -0.8972  0.5744  0.2351
14725TIP3   OH265665   4.765   4.882   5.046  0.1869  1.0834  0.2953
14725TIP3    H165666   4.817   4.864   4.967  0.5102 -0.4356  0.8425
14725TIP3    H265667   4.681   4.840   5.030  0.8528 -0.7389  1.4711
14726TIP3   OH265668   4.678   4.066  13.727  0.7194  0.2582  0.0922
14726TIP3    H165669   4.628   4.146  13.740 -1.0238 -0.5755 -1.3504
14726TIP3    H265670   4.713   4.074  13.638  1.1749 -0.2550  0.2195
14727TIP3   OH265671   0.971   5.233   4.334 -0.0186  0.0709  0.1176
14727TIP3    H165672   1.030   5.222   4.260 -0.3889  0.3758 -0.2285
14727TIP3    H265673   0.938   5.145   4.351  1.1405 -0.2325  0.8283
14728TIP3   OH265674   2.798   6.001   6.236 -0.6474 -0.0401  0.2693
14728TIP3    H165675   2.715   5.955   6.250 -0.9259  0.0608 -0.9854
14728TIP3    H265676   2.865   5.933   6.240 -1.0734 -0.6068 -1.7918
14729TIP3   OH265677   6.390   2.980  16.494 -0.1945  0.5295 -0.2257
14729TIP3    H165678   6.431   2.979  16.407  1.9939 -0.8863  0.7914
14729TIP3    H265679   6.369   2.888  16.512 -0.6577  0.8197  0.7459
14730TIP3   OH265680   4.780   6.106   0.550  0.0861  0.3795 -0.6030
14730TIP3    H165681   4.851   6.169   0.538 -0.9191  1.6897  0.2316
14730TIP3    H265682   4.822   6.029   0.589  1.7178 -0.3540 -3.5993
14731TIP3   OH265683   5.272   6.556   1.067 -0.2671  0.3924 -0.1224
14731TIP3    H165684   5.202   6.515   1.016 -0.4249  2.2905 -1.4717
14731TIP3    H265685   5.353   6.524   1.027 -0.3669  3.1232 -2.7390
14732TIP3   OH265686   0.099   1.223   3.323 -0.0493 -0.0345 -0.3249
14732TIP3    H165687   0.116   1.317   3.327 -1.2845  0.2122 -0.7408
14732TIP3    H265688   0.056   1.210   3.238  1.9641 -1.2854 -1.1874
14733TIP3   OH265689   0.337   5.312   3.183 -0.4585 -0.7661 -0.1275
14733TIP3    H165690   0.397   5.273   3.119  1.7180 -0.6604  1.7744
14733TIP3    H265691   0.253   5.318   3.137  1.3171  0.4684 -3.4293
14734TIP3   OH265692   1.931   1.183  14.558  0.2994  0.4252 -0.9126
14734TIP3    H165693   1.967   1.146  14.478  1.2004  2.4941 -1.4949
14734TIP3    H265694   1.952   1.276  14.553 -1.0503  0.8603  0.9677
14735TIP3   OH265695   0.033   5.812   5.132  0.3761  0.3405  0.5487
14735TIP3    H165696  -0.063   5.813   5.123  0.3471 -1.2369  0.6426
14735TIP3    H265697   0.065   5.776   5.050  0.7867 -0.9520  1.2627
14736TIP3   OH265698   4.769   1.808   5.431  0.0033  0.0716  0.4524
14736TIP3    H165699   4.816   1.724   5.427  1.4036  0.7847  1.6466
14736TIP3    H265700   4.752   1.822   5.524 -0.1665  1.1629  0.2652
14737TIP3   OH265701   2.612   0.668   2.122 -0.6719 -0.3264 -0.2514
14737TIP3    H165702   2.659   0.618   2.055 -1.1090 -0.2234 -0.6429
14737TIP3    H265703   2.571   0.601   2.177 -0.0464 -0.4153  0.1056
14738TIP3   OH265704   6.431   4.789   0.732  0.3265  0.0416  0.2276
14738TIP3    H165705   6.512   4.766   0.777  0.6342  1.6918  0.5405
14738TIP3    H265706   6.380   4.836   0.798 -0.6692 -0.5372 -0.1291
14739TIP3   OH265707   2.166   4.596   6.696  0.2248  0.1020 -0.0376
14739TIP3    H165708   2.146   4.526   6.759 -0.0065  0.7857  0.6546
14739TIP3    H265709   2.210   4.551   6.623 -0.8754 -0.9222 -0.0813
14740TIP3   OH265710   4.745   2.139   3.241 -0.3173  0.1905 -0.3390
14740TIP3    H165711   4.709   2.223   3.212  3.1796  1.9979  0.3464
14740TIP3    H265712   4.782   2.157   3.327 -0.5577 -2.3937  0.3579
14741TIP3   OH265713   3.984   1.700   0.005 -0.3332 -0.4448  0.0930
14741TIP3    H165714   3.950   1.790   0.014  0.4176 -0.1027 -0.4631
14741TIP3    H265715   4.071   1.711  -0.034 -0.2827 -1.4257 -0.0783
14742TIP3   OH265716   5.480   2.060  12.267  0.9084 -0.4261 -0.5449
14742TIP3    H165717   5.574   2.044  12.260  1.2278  1.6683 -1.3815
14742TIP3    H265718   5.468   2.092  12.357  0.7844 -1.8305 -0.0380
14743TIP3   OH265719   2.950   3.902   5.552  0.4921  0.2785  0.2697
14743TIP3    H165720   3.022   3.839   5.543  0.6019  0.3206  0.8640
14743TIP3    H265721   2.876   3.849   5.580  0.2585  0.2170 -0.4601
14744TIP3   OH265722   1.547   1.907  16.279 -0.4487  0.3329  0.4996
14744TIP3    H165723   1.486   1.856  16.227 -1.6720 -0.0047  2.2251
14744TIP3    H265724   1.600   1.954  16.215 -1.3619 -0.7104 -1.0475
14745TIP3   OH265725   0.002   3.650  13.353  0.1484  0.1554  0.5162
14745TIP3    H165726   0.034   3.735  13.324  2.4473 -0.8178  0.0327
14745TIP3    H265727  -0.046   3.615  13.277 -0.9083  1.0628  0.7641
14746TIP3   OH265728   2.386   0.325  11.759  0.1553 -0.0109 -0.3062
14746TIP3    H165729   2.446   0.343  11.687 -1.5845  0.5770 -1.6359
14746TIP3    H265730   2.397   0.400  11.818  0.9505 -0.0622 -0.3862
14747TIP3   OH265731   1.962   6.610  16.968  0.4334  0.2570  0.1155
14747TIP3    H165732   2.020   6.540  16.999  0.3808 -0.7024 -1.9093
14747TIP3    H265733   1.880   6.566  16.948  0.1130  1.0542 -0.3259
14748TIP3   OH265734   0.529   4.123   2.026 -0.4669 -0.1662  0.4816
14748TIP3    H165735   0.536   4.062   1.953  0.9798  0.1146  0.3805
14748TIP3    H265736   0.539   4.069   2.104  0.3136 -0.1329  0.4058
14749TIP3   OH265737   4.307   6.443   0.129  0.3531 -0.0359 -0.1187
14749TIP3    H165738   4.375   6.388   0.167  1.3842 -0.2945 -2.2496
14749TIP3    H265739   4.236   6.383   0.109  0.3000 -0.1021  0.2705
14750TIP3   OH265740   4.639   1.391   5.219 -0.7658  0.2242 -0.3214
14750TIP3    H165741   4.643   1.485   5.198 -1.4057  0.5785  1.0675
14750TIP3    H265742   4.546   1.375   5.237 -0.3948 -0.2566  1.2752
14751TIP3   OH265743   2.614   6.552   2.309 -0.2497 -0.2651  0.5526
14751TIP3    H165744   2.537   6.529   2.256 -0.0394  1.1575 -0.3869
14751TIP3    H265745   2.688   6.538   2.250  0.0838  0.0313  0.9005
14752TIP3   OH265746   3.662   6.388   3.029  0.5491 -0.1542  0.2613
14752TIP3    H165747   3.571   6.384   3.059  0.6047  1.6174  0.7236
14752TIP3    H265748   3.659   6.351   2.941 -0.6219 -0.1081  0.2700
14753TIP3   OH265749   2.900   3.668  15.454 -0.4135 -0.0148  0.1417
14753TIP3    H165750   2.946   3.737  15.406  1.1986 -1.6420 -0.6913
14753TIP3    H265751   2.887   3.704  15.541  0.9673  1.1123 -0.0995
14754TIP3   OH265752   0.476   2.277   3.132 -0.6146  0.9210  0.4471
14754TIP3    H165753   0.382   2.261   3.139 -0.3869 -1.3680 -1.2262
14754TIP3    H265754   0.517   2.193   3.154  0.9970  1.5574  0.0176
14755TIP3   OH265755   4.925   2.940   1.001  0.4443 -0.6340  0.2586
14755TIP3    H165756   4.938   3.033   1.020  0.9380 -0.4675 -0.8397
14755TIP3    H265757   4.978   2.895   1.067 -0.8822 -0.1819  1.6533
14756TIP3   OH265758   1.165   5.347   2.349 -0.5918  0.5127  0.4758
14756TIP3    H165759   1.093   5.285   2.360 -0.8893  1.0259  1.5383
14756TIP3    H265760   1.123   5.433   2.351 -0.1718  0.7611 -0.8616
14757TIP3   OH265761   0.150   5.109  11.632 -0.2020  0.2714  0.0151
14757TIP3    H165762   0.092   5.037  11.610 -0.8615  0.4443  1.1151
14757TIP3    H265763   0.175   5.093  11.724  1.0270  0.5105 -0.2626
14758TIP3   OH265764   1.324   5.044   6.329  0.0915  0.3052  0.2822
14758TIP3    H165765   1.278   5.122   6.297  1.8191  1.6108  0.8595
14758TIP3    H265766   1.269   5.012   6.401 -1.5663 -0.0834 -1.1314
14759TIP3   OH265767   4.738   4.787   4.312 -0.4465 -0.5328 -0.1141
14759TIP3    H165768   4.690   4.867   4.289  2.8963  1.1392 -1.5513
14759TIP3    H265769   4.689   4.750   4.386 -3.6677  1.2737 -1.2182
14760TIP3   OH265770   5.771   3.688  16.952 -0.1334  0.3363 -0.3180
14760TIP3    H165771   5.692   3.722  16.910  0.5309  1.8537 -0.3842
14760TIP3    H265772   5.838   3.753  16.931  1.1767 -1.0216 -0.4167
14761TIP3   OH265773   0.371   3.663   5.857 -0.2538 -0.1523  0.4778
14761TIP3    H165774   0.305   3.700   5.798  0.6880 -1.2042 -1.3028
14761TIP3    H265775   0.454   3.691   5.820  0.3702 -1.3143  0.9724
14762TIP3   OH265776   0.032   2.854  13.382  0.4414  0.7857 -0.5366
14762TIP3    H165777   0.003   2.941  13.354  1.1067  1.1895 -0.0071
14762TIP3    H265778   0.078   2.870  13.465 -1.9107 -0.4224  1.0530
14763TIP3   OH265779   2.018   3.429   6.076  0.1605 -0.6078 -0.3489
14763TIP3    H165780   2.001   3.360   6.140  1.0893 -0.3331  0.2084
14763TIP3    H265781   1.947   3.492   6.089  0.9792  0.0135  1.2123
14764TIP3   OH265782   0.541   1.408   2.766  0.1995 -0.2488  0.1133
14764TIP3    H165783   0.507   1.335   2.819  1.8411  0.5104  2.3036
14764TIP3    H265784   0.463   1.452   2.733 -0.8327 -2.1785 -0.0808
14765TIP3   OH265785   0.048   0.030  11.270  0.5892  0.2672  0.0576
14765TIP3    H165786   0.074   0.083  11.195  0.5519  0.9383  0.5123
14765TIP3    H265787   0.128   0.023  11.323  0.9232 -1.1816 -0.6083
14766TIP3   OH265788   0.052   3.185  10.874 -0.5298  0.5541 -0.4125
14766TIP3    H165789  -0.031   3.197  10.827 -1.5434 -0.6920  1.0092
14766TIP3    H265790   0.118   3.224  10.816 -1.7859 -0.5534 -2.6684
14767TIP3   OH265791   5.403   1.065   1.933  0.2718  0.4311  0.0439
14767TIP3    H165792   5.333   1.091   1.993  0.5514  2.5640 -0.5342
14767TIP3    H265793   5.359   1.056   1.848  1.0023  3.5913 -0.7067
14768TIP3   OH265794   5.967   1.342   3.633  0.2431 -0.2929  0.0732
14768TIP3    H165795   5.965   1.421   3.685 -0.2565  0.2630 -0.7769
14768TIP3    H265796   5.880   1.303   3.645  0.4878 -0.7122  0.4913
14769TIP3   OH265797   1.441   6.155   5.160  0.3654  0.2629 -0.7026
14769TIP3    H165798   1.520   6.106   5.183  0.1431 -0.4031 -1.3581
14769TIP3    H265799   1.467   6.206   5.082  0.1799  0.1244 -0.8546
14770TIP3   OH265800   2.028   2.316  13.238  0.5091 -0.5173 -0.0343
14770TIP3    H165801   1.947   2.277  13.204  1.0576 -0.7386 -1.1246
14770TIP3    H265802   2.090   2.244  13.240  0.7249 -0.3114  0.6494
14771TIP3   OH265803   1.719   4.395   6.306  0.4339 -0.2310 -0.0780
14771TIP3    H165804   1.644   4.454   6.298  1.7120  1.2894 -0.9966
14771TIP3    H265805   1.777   4.419   6.233  1.5816 -1.7257  0.3201
14772TIP3   OH265806   5.911   6.087  12.471 -0.6599  0.5345 -0.7546
14772TIP3    H165807   5.954   6.144  12.534  0.3954 -0.1904 -0.8018
14772TIP3    H265808   5.823   6.073  12.506  0.0810 -0.2913  0.8402
14773TIP3   OH265809   3.970   1.386   1.173  0.8356 -0.4186 -0.0106
14773TIP3    H165810   3.882   1.423   1.159  0.5815 -0.0466  2.3439
14773TIP3    H265811   3.964   1.297   1.139  0.0578  0.1771 -1.4615
14774TIP3   OH265812   2.255   5.788   0.105 -0.1098  0.1931  0.3344
14774TIP3    H165813   2.308   5.742   0.171 -0.5159  1.3591  1.5042
14774TIP3    H265814   2.165   5.762   0.125 -0.1978  0.2474 -0.0002
14775TIP3   OH265815   1.992   0.555   6.195 -0.7387 -0.1843 -0.1684
14775TIP3    H165816   1.951   0.602   6.268 -1.3050  1.3539 -1.4275
14775TIP3    H265817   1.932   0.483   6.176 -1.6124  0.5761 -0.3674
14776TIP3   OH265818   2.955   2.732  13.917 -0.6825 -0.4994  0.9188
14776TIP3    H165819   3.015   2.799  13.949  0.8907 -2.1604  1.5154
14776TIP3    H265820   2.880   2.736  13.977  0.1120 -0.3648  1.9042
14777TIP3   OH265821   3.348   1.619   5.218  0.2026  0.3759  0.0550
14777TIP3    H165822   3.392   1.671   5.285  0.4177 -0.7977  0.8562
14777TIP3    H265823   3.301   1.552   5.268 -0.6442  0.2477 -0.9128
14778TIP3   OH265824   4.292   0.995   4.557  1.2315 -0.0721 -0.2302
14778TIP3    H165825   4.280   1.090   4.555  1.3458 -0.0401  0.3993
14778TIP3    H265826   4.343   0.980   4.636  1.3875 -0.6404 -0.4416
14779TIP3   OH265827   0.833   5.897   5.044 -0.9431  0.0980 -0.1653
14779TIP3    H165828   0.859   5.985   5.073  3.8719 -0.8499 -1.1951
14779TIP3    H265829   0.845   5.842   5.120  0.1153 -0.3658 -0.6631
14780TIP3   OH265830   6.575   5.213  13.168  0.4966 -0.1558  0.0419
14780TIP3    H165831   6.520   5.151  13.120 -0.2091  0.7394 -0.3326
14780TIP3    H265832   6.591   5.172  13.253 -0.2849 -0.6694 -0.0620
14781TIP3   OH265833   5.083   2.487   4.327 -0.3460 -0.2647  0.6856
14781TIP3    H165834   5.043   2.401   4.344 -0.4202 -0.2018  0.8368
14781TIP3    H265835   5.167   2.483   4.372  0.0954 -0.6233 -0.1565
14782TIP3   OH265836   5.724   4.000   0.266  0.7278  0.0899  0.2080
14782TIP3    H165837   5.730   4.090   0.298  1.3013  0.0021  0.3599
14782TIP3    H265838   5.647   3.963   0.310 -1.4034  1.4608 -2.2470
14783TIP3   OH265839   3.548   5.441  13.057 -0.0259 -0.2296  0.8234
14783TIP3    H165840   3.637   5.440  13.092  0.0800  0.7371  0.6010
14783TIP3    H265841   3.548   5.514  12.995 -0.5299 -1.2036 -0.3558
14784TIP3   OH265842   5.009   6.766   3.616  0.1760  0.3429  0.3326
14784TIP3    H165843   5.046   6.783   3.530 -1.2414  2.4676  0.1128
14784TIP3    H265844   4.983   6.852   3.649  0.4338 -0.4793  2.7630
14785TIP3   OH265845   3.212   3.946   1.634  0.3249 -1.0885 -0.2628
14785TIP3    H165846   3.200   4.041   1.624  2.5427 -0.9144 -1.6281
14785TIP3    H265847   3.165   3.908   1.560 -0.4968 -1.0705  0.2392
14786TIP3   OH265848   2.441   4.670   0.361  0.3881 -0.4196  0.6294
14786TIP3    H165849   2.394   4.626   0.432  1.3018 -0.4995  1.1860
14786TIP3    H265850   2.372   4.711   0.309 -0.3221 -0.7653  1.2910
14787TIP3   OH265851   3.000   1.994  16.793 -0.3128  0.3083 -0.0163
14787TIP3    H165852   3.083   1.948  16.785 -0.4425 -0.1161  0.9882
14787TIP3    H265853   3.001   2.031  16.881 -1.2458  0.1742  0.0603
14788TIP3   OH265854   6.515   4.470  11.649 -0.3443 -0.3630 -0.2654
14788TIP3    H165855   6.462   4.498  11.723  0.0653  0.7647 -0.3779
14788TIP3    H265856   6.455   4.421  11.593 -0.9990 -0.0349  0.1487
14789TIP3   OH265857   5.298   4.732  12.144 -0.6177  0.4696  0.1508
14789TIP3    H165858   5.305   4.642  12.113  0.8041  0.7086 -0.2638
14789TIP3    H265859   5.241   4.775  12.080 -0.4943  0.1049 -0.2030
14790TIP3   OH265860   6.277   2.713  16.562 -0.5212  0.0969  0.2520
14790TIP3    H165861   6.235   2.634  16.528  0.4576 -0.6851  0.8559
14790TIP3    H265862   6.257   2.713  16.655 -0.7283  0.6952  0.2093
14791TIP3   OH265863   5.369   0.539  10.955 -0.5647  0.4429 -0.2366
14791TIP3    H165864   5.350   0.453  10.917 -0.6457  0.2181  0.3049
14791TIP3    H265865   5.303   0.597  10.917 -0.5124  0.2656 -0.6026
14792TIP3   OH265866   3.937   6.187   4.239  0.2194 -0.3788  0.2143
14792TIP3    H165867   3.950   6.180   4.144  2.2271  0.3032  0.4207
14792TIP3    H265868   3.842   6.187   4.250 -0.0361 -2.4442 -1.6400
14793TIP3   OH265869   3.275   1.707   0.541  0.0805 -0.3046 -0.0424
14793TIP3    H165870   3.233   1.759   0.473  0.6168 -0.2679 -0.3515
14793TIP3    H265871   3.209   1.698   0.609 -0.8428 -1.2589 -1.0405
14794TIP3   OH265872   4.938   3.162  17.099 -0.1652 -0.0493  0.0244
14794TIP3    H165873   5.032   3.164  17.112 -0.6365  0.7939  3.9260
14794TIP3    H265874   4.902   3.135  17.184 -3.5457  2.3144 -0.5101
14795TIP3   OH265875   6.563   4.085  11.695  0.5067 -0.7126  0.0047
14795TIP3    H165876   6.616   4.008  11.677 -1.1126 -1.8642  0.0728
14795TIP3    H265877   6.500   4.056  11.761 -0.4378  0.5314 -0.3228
14796TIP3   OH265878   2.992   3.405   3.491  0.2156  0.1720  0.6216
14796TIP3    H165879   3.077   3.433   3.457  0.7412 -0.4696  1.3979
14796TIP3    H265880   2.943   3.377   3.413 -0.5260  3.7177 -0.2638
14797TIP3   OH265881   0.634   4.897  14.301  0.1016 -0.1806 -0.0432
14797TIP3    H165882   0.642   4.825  14.239 -0.1002  0.0965 -0.3905
14797TIP3    H265883   0.613   4.974  14.247 -1.1771 -0.1557  0.4661
14798TIP3   OH265884   5.824   1.934  16.441 -0.4916 -0.1068  0.3030
14798TIP3    H165885   5.882   1.867  16.407 -2.4289 -1.8935  0.4562
14798TIP3    H265886   5.851   1.945  16.532  0.7089  0.3188 -0.0942
14799TIP3   OH265887   1.313   6.023   4.486  0.1404  0.0886  0.2466
14799TIP3    H165888   1.280   5.933   4.490 -2.0401  0.7584 -1.4565
14799TIP3    H265889   1.385   6.019   4.423  0.7579 -0.6569  0.9905
14800TIP3   OH265890   5.580   0.585   1.188  0.2742 -0.4177  0.2379
14800TIP3    H165891   5.595   0.626   1.103  1.0882 -0.5613  0.3156
14800TIP3    H265892   5.649   0.519   1.196  1.1333  0.6252  1.6817
14801TIP3   OH265893   0.417   3.196   0.154  0.4610 -0.1939  0.0876
14801TIP3    H165894   0.400   3.260   0.224 -0.0548  0.0900 -0.2911
14801TIP3    H265895   0.456   3.247   0.084 -0.1897 -0.2434 -0.3143
14802TIP3   OH265896   4.448   0.024  13.084 -0.0792 -0.0887  0.4161
14802TIP3    H165897   4.375   0.047  13.142 -1.2064 -0.4295 -0.8326
14802TIP3    H265898   4.408  -0.032  13.017  1.4298 -0.6602 -0.0267
14803TIP3   OH265899   0.752   5.453  15.302 -0.2308 -0.6713  0.5260
14803TIP3    H165900   0.688   5.490  15.241 -0.0267  1.1524  1.3950
14803TIP3    H265901   0.835   5.493  15.277 -0.1410  0.0438  1.9856
14804TIP3   OH265902   5.557   4.563   4.184 -0.5265  0.2036 -0.2992
14804TIP3    H165903   5.573   4.508   4.107  2.7977 -0.1850  0.5967
14804TIP3    H265904   5.592   4.648   4.160 -2.0302  0.8736 -0.1959
14805TIP3   OH265905   5.735   3.706  10.773  0.8028 -0.2117 -0.0106
14805TIP3    H165906   5.749   3.704  10.868 -0.0215  1.6820  0.1874
14805TIP3    H265907   5.680   3.630  10.755 -1.0763  0.7633  1.4138
14806TIP3   OH265908   5.483   3.605  13.928 -0.7725  0.3336 -0.6214
14806TIP3    H165909   5.516   3.694  13.934  0.4948 -0.2108  0.9050
14806TIP3    H265910   5.548   3.558  13.876  0.0240 -0.3442  0.9526
14807TIP3   OH265911   6.700   5.984  11.944 -0.2760  0.0260  1.1149
14807TIP3    H165912   6.661   6.030  12.018 -2.1863  1.0410 -0.4712
14807TIP3    H265913   6.629   5.929  11.910 -0.4090  1.8898 -1.8114
14808TIP3   OH265914   1.024   0.456  16.964 -0.5454  0.0912 -0.1884
14808TIP3    H165915   1.043   0.379  17.019 -1.7836  0.8840  1.3946
14808TIP3    H265916   1.084   0.448  16.890  2.0353 -0.4084  1.8688
14809TIP3   OH265917   1.356   6.254   1.916 -0.8933  0.1687 -0.0938
14809TIP3    H165918   1.270   6.231   1.952 -0.5008 -0.0307  0.7235
14809TIP3    H265919   1.336   6.298   1.833 -1.7361 -1.2662 -0.6768
14810TIP3   OH265920   4.889   0.105   0.149 -0.3924  0.2136  0.2947
14810TIP3    H165921   4.808   0.111   0.201 -0.8515 -2.4597 -0.0113
14810TIP3    H265922   4.872   0.157   0.071 -1.6513  0.1004  0.4813
14811TIP3   OH265923   5.861   5.514   2.660  0.1813  0.0143 -0.1939
14811TIP3    H165924   5.862   5.444   2.594  0.4176  0.1150 -0.2989
14811TIP3    H265925   5.895   5.473   2.739  0.2014 -0.0222 -0.2216
14812TIP3   OH265926   1.358   4.047   5.188  0.3766  0.4656 -0.4193
14812TIP3    H165927   1.370   4.140   5.168  0.2451  0.2796 -1.3983
14812TIP3    H265928   1.388   4.001   5.110 -0.7474 -0.2568 -0.4492
14813TIP3   OH265929   6.501   0.190  12.580 -0.2776  0.1004  0.3463
14813TIP3    H165930   6.459   0.104  12.581  1.2879 -0.7022 -0.7207
14813TIP3    H265931   6.542   0.199  12.666  1.2049 -1.0758 -0.2190
14814TIP3   OH265932   5.038   2.729   4.734  0.7581  0.3080  0.4629
14814TIP3    H165933   5.133   2.719   4.736  1.3190  4.9792  1.9059
14814TIP3    H265934   5.016   2.769   4.818 -2.2723  1.1207 -0.6589
14815TIP3   OH265935   3.410   3.850   0.153 -0.5474 -0.0725  0.4571
14815TIP3    H165936   3.379   3.768   0.114 -0.4105  0.9953 -2.0158
14815TIP3    H265937   3.499   3.831   0.182  0.0369 -0.4272 -1.4729
14816TIP3   OH265938   4.498   5.115   1.420 -0.3426 -0.8222  0.3174
14816TIP3    H165939   4.404   5.130   1.423 -0.2449 -0.1058  0.0754
14816TIP3    H265940   4.536   5.203   1.410  0.3384 -1.1191  0.2209
14817TIP3   OH265941   0.160   4.177   5.403  0.2140  0.8394  0.4337
14817TIP3    H165942   0.163   4.183   5.498  0.2039  3.0310  0.3316
14817TIP3    H265943   0.252   4.179   5.376  0.2548 -0.6074  0.4133
14818TIP3   OH265944   5.360   5.285   0.665 -0.1496 -0.0628 -0.0131
14818TIP3    H165945   5.378   5.199   0.627  0.0864 -0.6368  1.3704
14818TIP3    H265946   5.420   5.344   0.618  0.3024 -0.7904 -0.3765
14819TIP3   OH265947   4.110   2.082  13.578 -0.1826 -0.0282  0.4582
14819TIP3    H165948   4.078   2.169  13.552  0.8885  0.1978 -0.1424
14819TIP3    H265949   4.040   2.022  13.553 -0.0747  0.4397 -1.0280
14820TIP3   OH265950   0.487   3.262  14.688 -0.2289  0.1261 -0.4088
14820TIP3    H165951   0.404   3.305  14.671 -0.1681  0.8984  1.1726
14820TIP3    H265952   0.475   3.172  14.658  0.0154  1.4780 -4.8773
14821TIP3   OH265953   5.724   0.022   6.138  0.1164 -0.2864 -0.1278
14821TIP3    H165954   5.806   0.054   6.174  1.0769 -1.8487 -0.8953
14821TIP3    H265955   5.689  -0.037   6.205 -0.4058  0.4059  0.2144
14822TIP3   OH265956   5.564   0.254  11.532  0.2889  0.6766 -0.6700
14822TIP3    H165957   5.624   0.328  11.530 -0.3598  1.2589  1.0784
14822TIP3    H265958   5.503   0.271  11.461  1.8550  0.3402 -2.1347
14823TIP3   OH265959   3.755   1.862   0.716 -0.4821  0.1169  0.5497
14823TIP3    H165960   3.818   1.850   0.645 -0.2034 -0.9219  0.9641
14823TIP3    H265961   3.670   1.844   0.676 -0.3382 -0.3314  0.4488
14824TIP3   OH265962   1.404   5.299   4.528 -0.2392 -0.4576  0.5670
14824TIP3    H165963   1.312   5.326   4.523 -0.5854 -1.1381  2.7408
14824TIP3    H265964   1.453   5.381   4.531 -0.8451 -0.0878  0.5281
14825TIP3   OH265965   0.356   5.354  15.725  0.0566  0.4270  0.5589
14825TIP3    H165966   0.275   5.403  15.711 -0.1046  0.2170  0.7526
14825TIP3    H265967   0.411   5.411  15.777  0.2690  0.8152 -0.0813
14826TIP3   OH265968   1.936   2.234  16.352 -0.5173  0.1698  0.1393
14826TIP3    H165969   1.949   2.145  16.386  0.3579  0.6161  1.0209
14826TIP3    H265970   2.024   2.262  16.328 -1.0323  0.1420 -1.8418
14827TIP3   OH265971   3.291   5.736   2.709 -0.0394  0.1697  0.1137
14827TIP3    H165972   3.264   5.748   2.618  0.0045 -2.7242 -0.3084
14827TIP3    H265973   3.376   5.693   2.704 -1.3081 -2.6161  1.5021
14828TIP3   OH265974   1.302   1.048  12.417  0.2684 -0.3923 -0.6079
14828TIP3    H165975   1.241   1.001  12.474 -1.6240 -0.5111 -2.6585
14828TIP3    H265976   1.298   1.001  12.334  2.9035 -0.1668 -0.8963
14829TIP3   OH265977   1.322   6.396   5.448  0.3349  0.2447 -0.4119
14829TIP3    H165978   1.327   6.301   5.461  2.8749  0.0885 -2.1508
14829TIP3    H265979   1.285   6.406   5.360 -2.9705  0.9855  0.9779
14830TIP3   OH265980   6.244   6.753   6.596  0.3305 -0.0907  0.2376
14830TIP3    H165981   6.210   6.669   6.626 -0.8415  0.5814  0.8486
14830TIP3    H265982   6.166   6.801   6.567  0.7392  1.4871  1.6959
14831TIP3   OH265983   2.367   3.323   4.569 -0.0841 -0.2669  0.1481
14831TIP3    H165984   2.454   3.360   4.556 -0.6732  0.8966 -0.5529
14831TIP3    H265985   2.307   3.394   4.548 -1.2028 -0.8842  1.1857
14832TIP3   OH265986   2.970   4.807  15.411 -0.4458 -0.8970  0.5955
14832TIP3    H165987   2.924   4.723  15.412  0.8237 -1.6176 -0.5420
14832TIP3    H265988   3.059   4.786  15.384 -0.2700  0.9103 -0.3371
14833TIP3   OH265989   2.673   3.061   4.672  0.5216  0.1614  0.0113
14833TIP3    H165990   2.631   3.135   4.630 -0.3983  0.7990  1.9703
14833TIP3    H265991   2.600   3.003   4.697  1.0752 -0.4595  0.2204
14834TIP3   OH265992   6.813   1.076   0.591  0.2542 -0.4201 -0.1361
14834TIP3    H165993   6.837   1.039   0.677  0.9508  0.6539  0.1340
14834TIP3    H265994   6.794   1.168   0.609  0.2533 -0.2287 -1.1099
14835TIP3   OH265995   3.471   6.528   3.534  0.0399  0.2683  0.5431
14835TIP3    H165996   3.437   6.603   3.485 -0.6252 -0.1304  0.3932
14835TIP3    H265997   3.552   6.561   3.574  0.4109  0.6890 -0.5516
14836TIP3   OH265998   2.102   2.526  15.045  0.5163  0.1706 -0.4393
14836TIP3    H165999   2.011   2.496  15.045  1.0376 -1.4447 -0.5238
14836TIP3    H266000   2.127   2.529  15.137 -0.4376  3.2355 -0.2229
14837TIP3   OH266001   3.375   2.116   5.463  0.0972  0.5576  0.1665
14837TIP3    H166002   3.439   2.159   5.406  1.1079 -2.6498 -1.2438
14837TIP3    H266003   3.422   2.106   5.546  0.6882  0.0870 -0.2186
14838TIP3   OH266004   0.283   1.217  11.937 -0.2450 -0.0000  0.0041
14838TIP3    H166005   0.273   1.311  11.954 -0.4038  0.3638 -1.9336
14838TIP3    H266006   0.361   1.211  11.881  2.0978 -1.4287  3.2338
14839TIP3   OH266007   6.510   3.493  14.977  0.4071  0.3576  0.4815
14839TIP3    H166008   6.522   3.431  14.905 -0.6057  1.5171 -0.7039
14839TIP3    H266009   6.521   3.439  15.056  1.5034 -0.9260 -0.5230
14840TIP3   OH266010   0.049   5.048  13.367  0.0148 -0.1492  0.2493
14840TIP3    H166011   0.104   4.991  13.314  1.0850  0.9847  0.1101
14840TIP3    H266012   0.110   5.114  13.402 -1.3195  1.3726 -0.2500
14841TIP3   OH266013   1.501   6.528  12.297 -0.3124  0.2045 -0.0703
14841TIP3    H166014   1.574   6.489  12.250  2.1625  3.4989  0.7839
14841TIP3    H266015   1.454   6.579  12.231 -0.3224  0.1358 -0.1159
14842TIP3   OH266016   6.629   4.969   0.597 -0.5821 -0.1054  0.0625
14842TIP3    H166017   6.564   4.903   0.621  0.3299 -0.6490  1.1388
14842TIP3    H266018   6.583   5.052   0.601 -1.0364 -0.4178  1.5330
14843TIP3   OH266019   4.843   1.185   5.635  0.1551  0.3574  0.3230
14843TIP3    H166020   4.860   1.161   5.726 -1.2240 -0.3035  0.4243
14843TIP3    H266021   4.846   1.281   5.634  0.6273  0.3501  0.9669
14844TIP3   OH266022   3.964   0.893   6.147 -0.3417 -0.0080  0.0107
14844TIP3    H166023   3.871   0.918   6.143 -0.4403 -0.1514  1.3060
14844TIP3    H266024   3.987   0.872   6.056 -1.3699  0.7713 -0.4414
14845TIP3   OH266025   2.565   3.495   5.276  0.7290 -0.3335 -0.4000
14845TIP3    H166026   2.553   3.586   5.250  0.3747 -0.2333  0.1200
14845TIP3    H266027   2.644   3.467   5.229  1.1435  0.3938 -0.1395
14846TIP3   OH266028   5.589   6.321   4.778 -0.2444  0.1332  0.0609
14846TIP3    H166029   5.602   6.358   4.865  0.5484  0.7073 -0.3010
14846TIP3    H266030   5.654   6.251   4.772  1.6115  1.9000 -1.1057
14847TIP3   OH266031   3.051   3.403   1.591 -0.6501 -0.7381  0.3434
14847TIP3    H166032   3.061   3.477   1.530 -2.3898 -2.4281 -2.0647
14847TIP3    H266033   3.105   3.428   1.666  0.1983  2.2033 -1.1262
14848TIP3   OH266034   4.824   1.340  12.830  0.0356 -0.0800  0.0520
14848TIP3    H166035   4.730   1.354  12.840  0.0100  0.0188 -0.3303
14848TIP3    H266036   4.851   1.403  12.764  0.4217  0.0773  0.3544
14849TIP3   OH266037   2.934   0.272  14.410 -0.0192  0.4119 -0.1989
14849TIP3    H166038   2.887   0.280  14.493  0.8488 -1.3888  0.4944
14849TIP3    H266039   3.013   0.325  14.422 -0.8382  1.7483 -0.6090
14850TIP3   OH266040   6.060   1.129  15.178 -0.4550 -0.3147 -0.2286
14850TIP3    H166041   6.080   1.086  15.095  0.2331 -0.3044 -0.0719
14850TIP3    H266042   6.075   1.222  15.161  0.5612 -0.3998  0.1505
14851TIP3   OH266043   5.839   5.389  12.373 -0.4124  0.5447 -0.1195
14851TIP3    H166044   5.749   5.371  12.400 -0.3975  0.6448  0.0027
14851TIP3    H266045   5.865   5.312  12.322 -0.2367  0.0733  0.6698
14852TIP3   OH266046   2.445   5.320  12.780 -0.2689  0.2293 -0.2051
14852TIP3    H166047   2.380   5.264  12.738  0.7821 -0.0483 -1.5030
14852TIP3    H266048   2.395   5.392  12.818 -1.3938 -0.3629 -0.5644
14853TIP3   OH266049   1.028   4.909   2.046  0.2823 -0.2380 -0.2062
14853TIP3    H166050   0.948   4.944   2.008  0.0068 -0.4540  0.1628
14853TIP3    H266051   1.093   4.978   2.034 -0.4745  0.7758  1.3038
14854TIP3   OH266052   3.081   2.781   0.811  0.2248 -0.6825 -0.3218
14854TIP3    H166053   3.008   2.842   0.803  0.4926 -0.3009  0.1187
14854TIP3    H266054   3.100   2.754   0.721  0.7642  0.6557 -0.6242
14855TIP3   OH266055   0.419   2.001  15.933  0.1898 -0.6707 -0.4247
14855TIP3    H166056   0.473   2.020  16.010 -0.2271  0.4230 -0.4005
14855TIP3    H266057   0.346   1.948  15.968 -0.0889 -0.0344 -0.0320
14856TIP3   OH266058   0.155   0.696   0.717 -0.2355 -0.6203 -0.2927
14856TIP3    H166059   0.234   0.680   0.666  0.2479  2.4508 -0.5807
14856TIP3    H266060   0.083   0.681   0.655  0.3234  2.2846 -1.6924
14857TIP3   OH266061   3.217   5.499  10.618 -0.7379 -0.5007 -0.2799
14857TIP3    H166062   3.197   5.584  10.658 -1.3866 -0.7427 -0.0831
14857TIP3    H266063   3.247   5.444  10.691 -1.5368 -0.8187 -0.1814
14858TIP3   OH266064   5.592   4.784   1.438 -0.6994 -0.2551 -0.6647
14858TIP3    H166065   5.642   4.730   1.377  2.8621 -0.0019  1.8653
14858TIP3    H266066   5.528   4.830   1.383  0.8329 -1.7519 -3.8324
14859TIP3   OH266067   0.541   2.529  13.746  0.1967 -0.5923  0.0017
14859TIP3    H166068   0.573   2.596  13.685  1.0187  1.0834  2.1885
14859TIP3    H266069   0.449   2.551  13.759  0.0182 -0.9559 -0.6400
14860TIP3   OH266070   4.219   3.813  14.539 -0.6927  0.0058  0.3344
14860TIP3    H166071   4.247   3.863  14.615 -0.4747 -0.1902  0.3869
14860TIP3    H266072   4.276   3.735  14.539  0.3214  0.7118 -0.8504
14861TIP3   OH266073   4.853   5.544   5.348  0.0040  0.0637 -0.0260
14861TIP3    H166074   4.925   5.598   5.380  0.1977 -0.3527  0.2372
14861TIP3    H266075   4.893   5.460   5.326 -0.5463 -0.4746  0.9829
14862TIP3   OH266076   5.407   1.420  13.586 -0.8573  0.2827 -0.2913
14862TIP3    H166077   5.497   1.436  13.560 -1.0662  0.9067 -0.6509
14862TIP3    H266078   5.411   1.341  13.640  0.1448  1.3301  1.1861
14863TIP3   OH266079   5.836   5.106   0.981  0.0664  0.4219 -0.2284
14863TIP3    H166080   5.818   5.195   1.010 -0.8882  0.3891 -0.6807
14863TIP3    H266081   5.869   5.115   0.892  1.4634  0.4188  0.2827
14864TIP3   OH266082   5.990   2.063  15.482  0.4376 -0.2778  0.0817
14864TIP3    H166083   5.932   2.139  15.473  0.4669 -0.3292 -0.5442
14864TIP3    H266084   5.951   1.996  15.427 -0.7899 -1.4645  2.2943
14865TIP3   OH266085   5.677   0.880   3.061 -0.1805  0.0893  0.7422
14865TIP3    H166086   5.750   0.821   3.043 -1.7856 -1.9937  0.9031
14865TIP3    H266087   5.705   0.964   3.024  1.5589 -1.0963 -0.7493
14866TIP3   OH266088   4.365   4.724   0.877 -0.6260 -0.7421 -0.3962
14866TIP3    H166089   4.380   4.697   0.787  0.3870  0.8945 -0.7356
14866TIP3    H266090   4.270   4.735   0.883 -0.6752 -0.6014 -1.3418
14867TIP3   OH266091   5.625   5.909  12.315  0.1561 -0.3673  0.4741
14867TIP3    H166092   5.590   5.822  12.334 -2.5992  0.5460 -0.1850
14867TIP3    H266093   5.640   5.908  12.220 -1.0119  0.2496  0.2753
14868TIP3   OH266094   1.131   6.661   4.890  0.4934 -0.1704 -0.7974
14868TIP3    H166095   1.161   6.573   4.864  0.9276 -0.2656  0.0100
14868TIP3    H266096   1.121   6.708   4.807 -2.3205 -1.7893 -1.4263
14869TIP3   OH266097   0.566   2.011  11.110  0.2644  0.2239  0.1732
14869TIP3    H166098   0.636   2.074  11.122  0.3434  0.1935 -0.1273
14869TIP3    H266099   0.605   1.940  11.059  0.4556 -0.5459  1.3620
14870TIP3   OH266100   2.150   1.798   5.416 -0.3591 -0.1407  0.4220
14870TIP3    H166101   2.181   1.883   5.384  1.8907 -1.4508 -0.9889
14870TIP3    H266102   2.059   1.814   5.441  0.0195  2.6750  0.1754
14871TIP3   OH266103   4.096   1.394   3.905 -0.3403 -0.6560  0.6180
14871TIP3    H166104   4.047   1.423   3.828  0.6964 -2.0127 -0.5818
14871TIP3    H266105   4.043   1.324   3.942 -0.2616 -0.7950  0.4662
14872TIP3   OH266106   6.163   2.008  16.691  0.1021  0.3854 -0.0746
14872TIP3    H166107   6.241   1.952  16.695 -0.2106 -0.1021 -0.6546
14872TIP3    H266108   6.101   1.958  16.638 -0.1610  1.3060 -0.6444
14873TIP3   OH266109   5.176   1.520   1.828  0.4838  0.0421 -0.3429
14873TIP3    H166110   5.086   1.493   1.845  0.7849 -0.5033  0.3947
14873TIP3    H266111   5.225   1.438   1.823  1.0471  0.3662 -0.1530
14874TIP3   OH266112   0.121   1.090  16.109  0.5289  0.2564 -0.2359
14874TIP3    H166113   0.144   1.171  16.062 -0.1865  1.3007  1.1818
14874TIP3    H266114   0.058   1.046  16.051 -0.5941  1.6844 -0.1215
14875TIP3   OH266115   6.196   4.551   0.420  0.6709 -0.1507  0.0188
14875TIP3    H166116   6.160   4.469   0.388  0.4542 -0.1524  0.2686
14875TIP3    H266117   6.170   4.616   0.355  0.4122 -0.1923  0.0817
14876TIP3   OH266118   3.177   1.909   2.452  0.0728 -0.3665  0.0277
14876TIP3    H166119   3.095   1.881   2.413 -1.0573  0.6609  1.6260
14876TIP3    H266120   3.232   1.934   2.377  0.4008 -4.7283 -1.3440
14877TIP3   OH266121   6.007   1.103  16.202  0.5547 -0.4554 -0.8564
14877TIP3    H166122   5.957   1.076  16.125 -1.7250  0.7964  0.1395
14877TIP3    H266123   6.018   1.197  16.193  1.1762 -0.4522 -0.1677
14878TIP3   OH266124   0.395   4.456   0.194  0.0299 -0.6562 -0.2540
14878TIP3    H166125   0.371   4.405   0.117  0.6392 -0.3674 -0.6377
14878TIP3    H266126   0.312   4.473   0.238 -0.7789  1.9884 -2.6051
14879TIP3   OH266127   1.324   2.565   0.058 -0.3403  0.1071 -0.8321
14879TIP3    H166128   1.276   2.618  -0.005 -0.6830 -0.5626 -1.1348
14879TIP3    H266129   1.267   2.561   0.135 -1.5725 -2.1565 -1.8280
14880TIP3   OH266130   3.396   4.326  15.724  0.5696 -0.4046 -0.9025
14880TIP3    H166131   3.483   4.360  15.744 -0.1199 -0.2015  1.9410
14880TIP3    H266132   3.357   4.391  15.666  1.6769  0.3299 -0.8313
14881TIP3   OH266133   5.989   0.193  15.482 -0.4493 -0.1234  0.5555
14881TIP3    H166134   5.995   0.289  15.479 -1.1277 -0.1249 -1.9719
14881TIP3    H266135   5.901   0.174  15.448  0.4554 -1.7281 -0.9421
14882TIP3   OH266136   5.369   6.639   4.969 -0.0397  0.2277  0.6996
14882TIP3    H166137   5.375   6.704   4.899 -2.2471 -0.6807 -0.3874
14882TIP3    H266138   5.457   6.601   4.974  0.2597  0.5844 -1.3106
14883TIP3   OH266139   6.622   1.007  14.712 -0.2657 -0.1287  0.0060
14883TIP3    H166140   6.653   0.956  14.788  0.8204  0.3891 -0.0799
14883TIP3    H266141   6.657   0.960  14.637 -0.9770 -0.3923 -0.1658
14884TIP3   OH266142   3.641   5.844   3.029 -1.2558  0.1148 -0.3169
14884TIP3    H166143   3.553   5.825   3.062 -0.9674 -3.0316 -1.1199
14884TIP3    H266144   3.683   5.895   3.098 -2.1571 -2.4736  2.2401
14885TIP3   OH266145   0.017   6.518   4.430 -0.1297 -0.3380  0.2776
14885TIP3    H166146  -0.019   6.600   4.465  0.6122  0.2885 -0.4082
14885TIP3    H266147  -0.021   6.450   4.485 -0.2959  0.5124  1.2336
14886TIP3   OH266148   3.720   5.739  16.565  0.2872 -0.0345  0.0595
14886TIP3    H166149   3.656   5.722  16.496  1.0280 -0.9383 -0.4163
14886TIP3    H266150   3.753   5.653  16.589 -0.1290  0.2481  1.7190
14887TIP3   OH266151   4.764   6.043   1.088  0.1913 -0.2190 -0.0723
14887TIP3    H166152   4.738   5.991   1.012 -0.9069 -0.4781  0.4748
14887TIP3    H266153   4.728   6.130   1.073  0.0402 -0.2487  0.1134
14888TIP3   OH266154   1.411   6.523   4.599  0.5552 -0.4111 -0.3015
14888TIP3    H166155   1.506   6.528   4.588  0.7701  2.1047  2.3859
14888TIP3    H266156   1.379   6.608   4.567 -0.4344  0.0795  1.9407
14889TIP3   OH266157   0.061   3.875  17.013  0.5366 -0.4474 -0.2781
14889TIP3    H166158   0.017   3.822  16.947 -0.4784 -0.4286  0.3692
14889TIP3    H266159  -0.009   3.928  17.052  1.2797  0.2308  0.1566
14890TIP3   OH266160   3.638   0.343  10.564 -0.0841 -0.0989  0.6104
14890TIP3    H166161   3.585   0.293  10.502 -1.0400  0.7024  0.7668
14890TIP3    H266162   3.721   0.295  10.570 -1.2259 -2.0218  1.2687
14891TIP3   OH266163   3.336   1.826  16.006 -0.1605  0.5422  0.2731
14891TIP3    H166164   3.429   1.802  16.004  0.1050  1.3580  1.6606
14891TIP3    H266165   3.296   1.764  16.067  0.0591  2.0295  1.9636
14892TIP3   OH266166   5.050   2.345   3.348  0.0512 -0.1050 -0.2917
14892TIP3    H166167   5.030   2.269   3.294 -0.9244 -0.1553  0.1339
14892TIP3    H266168   4.998   2.416   3.311 -1.1271 -0.2888  0.9502
14893TIP3   OH266169   6.186   1.169   3.581 -0.2285 -0.2282 -0.0901
14893TIP3    H166170   6.156   1.088   3.540 -1.8845 -0.0019  0.6375
14893TIP3    H266171   6.106   1.215   3.605  0.7017  1.3283  0.0995
14894TIP3   OH266172   1.422   0.140   4.082  0.2850  0.2247 -0.1654
14894TIP3    H166173   1.451   0.096   4.003  1.7256  2.8442 -1.1612
14894TIP3    H266174   1.503   0.154   4.132 -0.3318  0.4779  0.7745
14895TIP3   OH266175   3.007   0.276  10.549  0.5991  0.3366 -0.0532
14895TIP3    H166176   3.064   0.211  10.507 -0.2680 -0.7074  0.3362
14895TIP3    H266177   2.918   0.245  10.531  0.1843  1.0752  0.6798
14896TIP3   OH266178   3.803   0.147   1.876  0.1814 -0.0721  0.1768
14896TIP3    H166179   3.897   0.130   1.878  0.1260 -0.6263 -0.9927
14896TIP3    H266180   3.775   0.140   1.967  1.3929  0.8398  0.6286
14897TIP3   OH266181   0.284   5.287   4.138  0.6622 -0.1766 -0.5040
14897TIP3    H166182   0.189   5.273   4.127  0.6398  1.1580 -2.3323
14897TIP3    H266183   0.322   5.250   4.058  1.6862 -0.7197  0.2361
14898TIP3   OH266184   1.196   3.045  14.440  0.7787  0.6364  0.5395
14898TIP3    H166185   1.280   3.061  14.483  1.2862  2.2603 -1.0334
14898TIP3    H266186   1.142   3.121  14.464 -0.6254 -0.8781  2.3846
14899TIP3   OH266187   2.981   5.202   1.793  0.1382  0.6434  0.4713
14899TIP3    H166188   2.907   5.254   1.761 -0.3901 -1.2237 -1.4109
14899TIP3    H266189   2.943   5.142   1.857  0.0362 -0.2011 -0.3724
14900TIP3   OH266190   3.871   2.843  12.304  0.2893  0.2653 -0.2066
14900TIP3    H166191   3.848   2.830  12.212  0.1457  1.5918 -0.3669
14900TIP3    H266192   3.792   2.818  12.352  0.4628 -0.7073 -0.4257
14901TIP3   OH266193   0.099   5.981   2.277 -0.1693  0.3191 -0.2735
14901TIP3    H166194   0.034   5.952   2.213  0.2523 -0.8725 -0.1782
14901TIP3    H266195   0.101   5.911   2.343  0.2428  0.9820  0.4306
14902TIP3   OH266196   0.467   3.952   2.685  0.1336 -0.2435 -0.7787
14902TIP3    H166197   0.495   4.019   2.623 -0.1208 -1.8704 -2.7027
14902TIP3    H266198   0.387   3.988   2.723  1.2656  1.5654 -0.0332
14903TIP3   OH266199   4.778   4.165   3.670  0.1549 -0.0955  0.2325
14903TIP3    H166200   4.779   4.127   3.758  2.5964  1.3374  0.8660
14903TIP3    H266201   4.864   4.206   3.660 -0.1992  0.0458 -2.7187
14904TIP3   OH266202   0.202   1.199  12.930 -0.2193  0.4246  0.8350
14904TIP3    H166203   0.132   1.201  12.864  0.2021 -0.4009  0.3430
14904TIP3    H266204   0.267   1.260  12.897 -0.3988  0.6629  0.9249
14905TIP3   OH266205   1.585   5.242  12.132 -0.3581 -0.0495  0.3804
14905TIP3    H166206   1.680   5.241  12.125 -0.2318  0.0204  2.0007
14905TIP3    H266207   1.566   5.308  12.199 -1.5002 -0.8655  0.8788
14906TIP3   OH266208   3.723   6.337  12.692 -0.0249 -0.3121  0.5111
14906TIP3    H166209   3.664   6.398  12.737  0.6389 -0.0189  0.9926
14906TIP3    H266210   3.797   6.391  12.665  0.6646 -0.9396  1.1123
14907TIP3   OH266211   2.376   4.337  13.334  0.2338 -0.3598 -0.0458
14907TIP3    H166212   2.287   4.341  13.369  0.0157 -1.1818 -0.5063
14907TIP3    H266213   2.399   4.428  13.318  0.3769  0.0778  2.3463
14908TIP3   OH266214   5.915   5.967   0.255 -0.0548 -0.3338 -0.4322
14908TIP3    H166215   5.865   6.014   0.188  0.1980  1.8216  0.8234
14908TIP3    H266216   5.990   5.930   0.208 -1.2738 -1.1146 -1.7987
14909TIP3   OH266217   0.106   1.737   1.928  0.0228  0.1442  0.6210
14909TIP3    H166218   0.054   1.802   1.881 -0.8483  1.1160  2.8460
14909TIP3    H266219   0.103   1.659   1.873 -2.5282  0.6622 -0.0221
14910TIP3   OH266220   2.159   4.712  14.011 -0.4756  0.0454  0.3179
14910TIP3    H166221   2.146   4.719  14.106 -0.3605  1.3262  0.2416
14910TIP3    H266222   2.191   4.622  13.999  1.1992  0.4166  1.6968
14911TIP3   OH266223   6.105   0.205  16.564  0.2215 -0.2400 -0.2260
14911TIP3    H166224   6.166   0.163  16.504  0.7713 -0.4200  0.4571
14911TIP3    H266225   6.159   0.236  16.636 -0.3337  0.6079 -0.1535
14912TIP3   OH266226   4.034   0.543  14.230  0.2011 -0.0167 -0.4982
14912TIP3    H166227   3.951   0.541  14.278 -1.1937 -2.1969 -2.8606
14912TIP3    H266228   4.031   0.625  14.181  0.1102  0.5917  0.5019
14913TIP3   OH266229   1.884   5.130  11.881  0.3513 -0.4427 -0.3015
14913TIP3    H166230   1.965   5.122  11.829  1.3718 -0.9258  1.3490
14913TIP3    H266231   1.914   5.140  11.971 -1.4313  0.1171  0.2470
14914TIP3   OH266232   4.417   6.344  11.428 -0.1684 -0.0251  0.2226
14914TIP3    H166233   4.513   6.337  11.425 -0.2129 -0.6365  0.1455
14914TIP3    H266234   4.398   6.430  11.391  0.6121  2.1291  4.4946
14915TIP3   OH266235   4.445   6.659  10.647  0.2870 -0.0943 -0.2002
14915TIP3    H166236   4.539   6.664  10.631  0.2032  1.3096 -0.3557
14915TIP3    H266237   4.424   6.742  10.690 -0.7161 -0.8133  0.7273
14916TIP3   OH266238   3.853   1.148   0.810  0.0654  0.0790  0.0932
14916TIP3    H166239   3.825   1.223   0.862 -0.0640 -0.2069  0.4454
14916TIP3    H266240   3.942   1.169   0.782  0.0344  0.3562  0.2044
14917TIP3   OH266241   1.465   0.518  11.033 -0.1600 -0.1095  0.4599
14917TIP3    H166242   1.442   0.534  10.941 -0.5229 -1.2201  0.3584
14917TIP3    H266243   1.381   0.519  11.079 -0.1820 -1.5219  0.4783
14918TIP3   OH266244   0.766   1.084   1.686  0.1095 -0.7177  0.3441
14918TIP3    H166245   0.806   1.097   1.772  0.2653 -0.8326  0.2895
14918TIP3    H266246   0.707   1.158   1.675  1.3662  0.2359 -0.1787
14919TIP3   OH266247   3.339   5.261   0.746  0.5412  0.7418 -0.1249
14919TIP3    H166248   3.367   5.249   0.837 -2.1139 -0.9598  0.5348
14919TIP3    H266249   3.374   5.185   0.699  0.3831  0.6864 -0.1520
14920TIP3   OH266250   5.770   2.525  10.914  0.3433 -0.7684  0.0443
14920TIP3    H166251   5.748   2.467  10.842  0.6529 -1.4385  0.4792
14920TIP3    H266252   5.691   2.575  10.930  0.4684 -0.1640 -1.1729
14921TIP3   OH266253   0.140   0.641   6.398 -0.1441 -0.1042 -0.3279
14921TIP3    H166254   0.127   0.556   6.440 -1.2582  0.0277 -0.3980
14921TIP3    H266255   0.055   0.684   6.403  0.6949  1.5073  0.7938
14922TIP3   OH266256   0.577   5.663   1.530 -0.3850  0.8597  0.1235
14922TIP3    H166257   0.516   5.623   1.468  0.9407 -0.5082 -0.3245
14922TIP3    H266258   0.579   5.755   1.504  0.1285  0.3203 -1.8757
14923TIP3   OH266259   2.929   1.107  16.433  0.0722 -0.0049  0.2974
14923TIP3    H166260   2.904   1.194  16.463  0.9113  0.0611  0.8377
14923TIP3    H266261   3.020   1.117  16.404 -0.4546 -0.2510 -1.5495
14924TIP3   OH266262   4.383   4.210   3.201 -0.0088 -0.2040 -0.1456
14924TIP3    H166263   4.311   4.196   3.262  0.3137 -1.0452  0.0505
14924TIP3    H266264   4.396   4.125   3.159 -1.4554  0.8452 -2.7802
14925TIP3   OH266265   3.310   6.740  14.290 -0.0401 -0.2557 -0.3279
14925TIP3    H166266   3.231   6.793  14.277  0.4682  0.6285  0.1065
14925TIP3    H266267   3.342   6.722  14.202  0.3335  1.0205 -0.4666
14926TIP3   OH266268   2.092   5.037   0.694 -0.1838 -0.7562 -0.1942
14926TIP3    H166269   2.047   5.037   0.778  0.7963  1.1758  0.3580
14926TIP3    H266270   2.026   5.006   0.632 -1.3540 -0.8451  1.0635
14927TIP3   OH266271   2.047   6.420   0.474 -0.3191  0.7899  0.2327
14927TIP3    H166272   2.027   6.354   0.407 -0.5059  0.9536  0.1248
14927TIP3    H266273   1.962   6.459   0.494  0.1905  3.0197 -1.8152
14928TIP3   OH266274   0.705   2.546   4.225  0.0623 -0.4803  0.7419
14928TIP3    H166275   0.660   2.494   4.158 -0.2623 -0.9388  1.3105
14928TIP3    H266276   0.644   2.615   4.248 -0.2195 -0.8891  1.2506
14929TIP3   OH266277   1.774   3.604  11.191  0.1840  0.5193 -0.4166
14929TIP3    H166278   1.705   3.666  11.166  0.1293 -0.2692 -2.3443
14929TIP3    H266279   1.728   3.533  11.235 -0.3535 -0.2538 -2.1533
14930TIP3   OH266280   5.022   5.826  16.087  0.1518  0.0701  0.0940
14930TIP3    H166281   4.949   5.817  16.025 -0.3046  0.6535  0.5393
14930TIP3    H266282   5.059   5.738  16.093 -0.5365 -0.2421 -0.1210
14931TIP3   OH266283   3.924   0.245   5.676  0.4890  0.0551 -0.2543
14931TIP3    H166284   3.960   0.157   5.686  1.1165  0.1433 -1.5433
14931TIP3    H266285   3.829   0.232   5.680  0.6122 -0.2387  2.7027
14932TIP3   OH266286   1.951   0.209  15.144  0.7387  0.5475  0.6012
14932TIP3    H166287   1.864   0.169  15.149 -0.1408  2.3210 -0.1758
14932TIP3    H266288   1.975   0.199  15.052 -0.1459  3.1110  0.0549
14933TIP3   OH266289   6.197   2.668  16.065  0.1648 -0.1881 -0.0091
14933TIP3    H166290   6.138   2.699  16.134 -0.5906 -1.4389 -0.0657
14933TIP3    H266291   6.279   2.649  16.109 -0.1814 -0.5584  0.4874
14934TIP3   OH266292   6.712   4.218   5.977 -0.1838  0.4856  0.1994
14934TIP3    H166293   6.774   4.145   5.973 -0.8389 -0.0616  0.0281
14934TIP3    H266294   6.693   4.229   6.070 -0.2929  0.2649  0.2029
14935TIP3   OH266295   6.223   0.869   4.080 -0.1178  0.6923  0.3383
14935TIP3    H166296   6.194   0.786   4.119 -1.5988  0.9540 -0.1756
14935TIP3    H266297   6.168   0.935   4.122 -0.0794  1.2359 -0.4590
14936TIP3   OH266298   1.222   2.299   1.600  0.0380  0.1930  0.1883
14936TIP3    H166299   1.253   2.345   1.678 -1.6576  0.2220  0.8476
14936TIP3    H266300   1.258   2.210   1.609 -0.7655 -0.0241  1.3960
14937TIP3   OH266301   0.960   3.221  10.925 -0.3794  0.3131  0.2878
14937TIP3    H166302   0.899   3.283  10.965  0.8919  1.8036 -0.0281
14937TIP3    H266303   0.963   3.247  10.833  1.9119  1.2938  0.5957
14938TIP3   OH266304   2.449   3.147  11.850 -0.2356  0.2624 -0.3546
14938TIP3    H166305   2.384   3.084  11.883  1.8858 -2.2567 -0.8273
14938TIP3    H266306   2.452   3.132  11.756  0.1372  1.2523 -0.5104
14939TIP3   OH266307   6.614   0.005   0.696  0.1987 -0.5642  0.1144
14939TIP3    H166308   6.641  -0.083   0.724 -0.6521 -0.5942  0.8587
14939TIP3    H266309   6.522  -0.006   0.671  0.1510  0.0781  0.0036
14940TIP3   OH266310   6.556   2.145   5.448 -0.7800  0.3171  0.1304
14940TIP3    H166311   6.613   2.189   5.511  1.1071 -0.7240 -0.7920
14940TIP3    H266312   6.492   2.211   5.422 -0.1816  1.4136  1.4460
14941TIP3   OH266313   2.721   4.224  11.186 -0.1641  0.4861 -0.2178
14941TIP3    H166314   2.698   4.151  11.243 -0.1729 -0.0039 -0.8429
14941TIP3    H266315   2.756   4.183  11.107 -0.5901  1.1443 -0.7579
14942TIP3   OH266316   4.035   0.810  13.524  0.1206 -0.3600  0.1522
14942TIP3    H166317   3.979   0.866  13.577 -1.2095  0.5693 -2.1968
14942TIP3    H266318   4.102   0.869  13.489 -0.7018 -0.4022 -1.5232
14943TIP3   OH266319   6.356   6.014   1.533  0.5012  0.0148  0.7138
14943TIP3    H166320   6.447   6.041   1.550  0.7362 -0.1721 -0.1935
14943TIP3    H266321   6.328   6.071   1.461  0.2142 -0.5632  0.3618
14944TIP3   OH266322   2.931   5.964   5.346  0.4806  0.2006  0.1102
14944TIP3    H166323   3.026   5.981   5.347  0.7127 -1.0384 -0.0968
14944TIP3    H266324   2.916   5.907   5.421 -0.2745  1.2144  0.7348
14945TIP3   OH266325   3.092   1.565   2.351 -0.1849  0.4877 -0.3023
14945TIP3    H166326   3.039   1.644   2.362  0.0885  0.5877  0.3076
14945TIP3    H266327   3.054   1.503   2.413  1.1314  0.9305  0.9664
14946TIP3   OH266328   4.995   2.072  10.593  0.0673 -0.3605  0.1004
14946TIP3    H166329   5.014   2.132  10.520  1.6135  0.1126  0.8502
14946TIP3    H266330   5.076   2.072  10.645 -0.1887 -2.5182  0.5379
14947TIP3   OH266331   0.792   5.482   0.749  0.2844 -0.1715 -0.4053
14947TIP3    H166332   0.769   5.428   0.673  1.1907 -0.4351 -0.4946
14947TIP3    H266333   0.768   5.571   0.723 -2.0206 -0.6266  0.0613
14948TIP3   OH266334   6.592   1.017   2.452 -0.2538  0.1106 -0.4146
14948TIP3    H166335   6.612   1.108   2.472 -2.0739  0.2578  0.8754
14948TIP3    H266336   6.509   1.020   2.403 -1.7654 -0.9742  1.9731
14949TIP3   OH266337   0.000   2.006   5.413 -0.1280 -0.2058  0.0934
14949TIP3    H166338   0.070   2.066   5.439  1.2316 -1.0637 -1.4888
14949TIP3    H266339  -0.076   2.062   5.401  0.6517  0.9466  0.4069
14950TIP3   OH266340   3.036   4.570  13.180  0.0844  0.2517  0.2738
14950TIP3    H166341   2.948   4.561  13.142  0.5397  0.0917 -0.7489
14950TIP3    H266342   3.079   4.487  13.164  1.0272  0.9354 -0.7851
14951TIP3   OH266343   0.965   2.851  12.201 -0.0137  0.2051  0.1239
14951TIP3    H166344   0.899   2.904  12.243 -0.6084 -0.1242 -0.3805
14951TIP3    H266345   1.048   2.894  12.221 -0.1120 -0.8415  2.9801
14952TIP3   OH266346   4.234   5.140   1.653  0.4423  0.3234  0.1078
14952TIP3    H166347   4.303   5.085   1.691 -0.0147  0.0765  0.5744
14952TIP3    H266348   4.237   5.121   1.559 -0.5829 -1.4745  0.4268
14953TIP3   OH266349   4.825   3.509  12.116 -0.1460 -0.1480  0.0947
14953TIP3    H166350   4.844   3.598  12.147 -2.4039  0.2666  0.3389
14953TIP3    H266351   4.861   3.452  12.184 -0.6493  0.6378  1.0433
14954TIP3   OH266352   2.547   5.601  11.956  0.3692  0.4474  0.1203
14954TIP3    H166353   2.540   5.688  11.915  0.1585 -0.0824 -0.9852
14954TIP3    H266354   2.638   5.575  11.940  0.1591  0.0405 -0.4376
14955TIP3   OH266355   3.608   6.468  17.105 -0.0683  0.2994  0.5570
14955TIP3    H166356   3.554   6.392  17.127 -1.3704  1.2882  0.8224
14955TIP3    H266357   3.568   6.541  17.153 -0.7715  1.7874 -2.1553
14956TIP3   OH266358   4.552   1.001   1.201  0.4210 -0.2486  0.1154
14956TIP3    H166359   4.569   1.006   1.295 -2.9255  2.3103  0.7031
14956TIP3    H266360   4.550   1.093   1.172 -1.2436 -0.8628 -1.8695
14957TIP3   OH266361   3.537   4.868   4.797  0.1037 -0.0704  0.5745
14957TIP3    H166362   3.449   4.906   4.794 -0.8206 -2.1110  0.6931
14957TIP3    H266363   3.522   4.777   4.826  2.3001 -0.2825  1.0951
14958TIP3   OH266364   4.308   5.819  15.261  0.3732 -0.3801 -0.0231
14958TIP3    H166365   4.345   5.836  15.348 -2.7508  2.9075  0.7981
14958TIP3    H266366   4.360   5.874  15.202 -1.2919  2.1202  0.7338
14959TIP3   OH266367   2.490   3.249   1.292 -0.1598  0.6194 -0.1861
14959TIP3    H166368   2.572   3.199   1.294 -0.0519  0.8190  0.7341
14959TIP3    H266369   2.449   3.225   1.210  0.4086 -0.1606 -0.2459
14960TIP3   OH266370   3.732   1.309  12.944 -0.2202  0.2791  0.1515
14960TIP3    H166371   3.797   1.379  12.954 -1.0378  1.8881 -4.5503
14960TIP3    H266372   3.647   1.352  12.953 -0.7185 -0.7370  0.4849
14961TIP3   OH266373   2.410   5.322  11.585 -0.1359  0.4316  0.4843
14961TIP3    H166374   2.324   5.311  11.624 -0.2536  1.1437  0.4202
14961TIP3    H266375   2.398   5.386  11.515 -0.0114 -1.1174 -0.9929
14962TIP3   OH266376   2.460   0.817   5.978 -0.2133 -0.2848 -0.5500
14962TIP3    H166377   2.396   0.882   6.010 -0.7677 -1.3180  0.4796
14962TIP3    H266378   2.453   0.745   6.040  3.6491  0.5451  0.9678
14963TIP3   OH266379   0.516   4.242   3.189  0.7187 -0.4756  0.6578
14963TIP3    H166380   0.441   4.297   3.212  1.2937  0.8957 -0.6646
14963TIP3    H266381   0.592   4.291   3.219  1.3174  0.1862 -1.8384
14964TIP3   OH266382   4.148   4.165   3.383  0.2317 -0.2411  0.1650
14964TIP3    H166383   4.156   4.115   3.465 -1.3631  0.2169  0.6042
14964TIP3    H266384   4.082   4.119   3.333  0.1715  0.3129 -0.2680
14965TIP3   OH266385   1.037   2.919  16.303 -0.1432 -0.6746  0.3996
14965TIP3    H166386   1.012   3.010  16.288  0.6427 -0.3927  0.7260
14965TIP3    H266387   1.053   2.884  16.215 -1.7868 -0.9017  0.1818
14966TIP3   OH266388   0.268   4.331   3.913  0.7031 -0.2731  0.0907
14966TIP3    H166389   0.299   4.402   3.857  1.2997 -1.0244 -0.5476
14966TIP3    H266390   0.250   4.259   3.853 -0.9584 -0.3144  0.6173
14967TIP3   OH266391   3.780   2.428  10.974 -0.6200  0.2984 -0.3820
14967TIP3    H166392   3.850   2.460  11.032 -1.9188 -1.0858  2.0501
14967TIP3    H266393   3.790   2.479  10.894  3.2494  0.0612 -0.1613
14968TIP3   OH266394   3.182   5.319   4.783 -0.9901 -0.0073 -0.2198
14968TIP3    H166395   3.183   5.357   4.870 -1.5520  0.0038 -0.2151
14968TIP3    H266396   3.274   5.317   4.756 -0.7012 -0.9685  0.7818
14969TIP3   OH266397   2.107   1.214   1.698  0.2236  0.7250 -0.6399
14969TIP3    H166398   2.196   1.220   1.732  0.7057  1.2774 -2.0026
14969TIP3    H266399   2.060   1.161   1.763  1.4736  0.6390  0.1977
14970TIP3   OH266400   4.499   1.854  15.390 -0.0779  0.7173  0.9890
14970TIP3    H166401   4.474   1.811  15.472 -1.0937  0.6245  0.6452
14970TIP3    H266402   4.419   1.850  15.336  0.4205  1.2493  0.2020
14971TIP3   OH266403   5.308   2.285   3.383 -0.2761 -0.2626  0.2489
14971TIP3    H166404   5.340   2.368   3.348 -0.4588  0.0990  0.9343
14971TIP3    H266405   5.213   2.296   3.390 -0.3294 -0.6199  0.1049
14972TIP3   OH266406   0.570   2.874  11.626  0.4046  0.3612  0.2068
14972TIP3    H166407   0.541   2.875  11.534  0.5352 -2.8858  0.0967
14972TIP3    H266408   0.550   2.786  11.657 -0.4592  1.6881  3.6110
14973TIP3   OH266409   0.634   6.763   3.271 -0.5264 -0.5767 -0.2620
14973TIP3    H166410   0.546   6.798   3.259 -0.5965  0.0362  1.8263
14973TIP3    H266411   0.648   6.707   3.195 -2.3382  0.0812 -1.1106
14974TIP3   OH266412   6.227   3.437   1.823 -0.3066  0.2859  1.3032
14974TIP3    H166413   6.249   3.436   1.730 -0.9442 -1.6685  1.1590
14974TIP3    H266414   6.138   3.403   1.827  0.1817 -0.8868  2.7280
14975TIP3   OH266415   5.090   6.352   3.929  0.0073  0.0791  0.4278
14975TIP3    H166416   5.046   6.403   3.860 -0.2622  0.0687  0.5879
14975TIP3    H266417   5.032   6.278   3.944  0.2700 -0.1362  0.3806
14976TIP3   OH266418   5.035   4.776  14.160  0.3701 -0.0177 -0.1030
14976TIP3    H166419   5.038   4.735  14.074 -0.0100  0.8249 -0.5222
14976TIP3    H266420   5.127   4.797  14.180  0.5325 -0.7763 -0.0145
14977TIP3   OH266421   1.134   5.092  12.493 -0.4263 -0.3741 -0.1846
14977TIP3    H166422   1.040   5.090  12.476 -0.4306 -0.6662 -0.1170
14977TIP3    H266423   1.170   5.026  12.435 -0.4711 -1.5825  1.1393
14978TIP3   OH266424   1.587   1.456  12.110  0.7027  0.1998  0.6643
14978TIP3    H166425   1.569   1.485  12.199  1.8824  1.1710  0.6096
14978TIP3    H266426   1.509   1.409  12.083  0.1780  0.2506  2.0668
14979TIP3   OH266427   5.661   5.267  16.692 -0.5050 -0.1137 -0.4819
14979TIP3    H166428   5.601   5.315  16.750 -0.3110 -0.7720  0.2758
14979TIP3    H266429   5.614   5.261  16.609 -0.6283  1.1774 -0.5291
14980TIP3   OH266430   5.196   4.462  13.491 -0.2460  0.5381  0.1096
14980TIP3    H166431   5.162   4.483  13.578  1.2723  0.4972  0.7304
14980TIP3    H266432   5.291   4.456  13.503  0.1098  1.7960 -1.8042
14981TIP3   OH266433   1.424   0.122   2.405 -0.4654  0.0713 -0.1543
14981TIP3    H166434   1.497   0.084   2.358 -1.1041 -1.7064  0.2404
14981TIP3    H266435   1.441   0.216   2.406  1.6819 -0.3110 -0.2529
14982TIP3   OH266436   4.087   5.624  13.473 -0.1943 -0.2770 -0.1831
14982TIP3    H166437   4.074   5.703  13.422 -0.8094 -0.0537  0.2954
14982TIP3    H266438   4.139   5.566  13.418  2.2280  1.3385  0.3603
14983TIP3   OH266439   1.227   0.328   3.975 -1.0035  0.0714 -0.0579
14983TIP3    H166440   1.288   0.270   4.021  0.0819  1.1507 -0.0926
14983TIP3    H266441   1.206   0.281   3.894 -0.8297 -0.6538  0.3093
14984TIP3   OH266442   3.230   0.935   0.957  0.0625  0.0516 -0.1155
14984TIP3    H166443   3.183   0.864   0.913 -0.4815  0.1889  0.2357
14984TIP3    H266444   3.255   0.898   1.042 -0.2436  0.2869  0.0775
14985TIP3   OH266445   4.327   0.707   4.713  0.1826 -0.1231  0.4072
14985TIP3    H166446   4.271   0.743   4.782 -0.7431 -0.8296  0.0365
14985TIP3    H266447   4.390   0.776   4.695  0.0314  0.3172  1.5129
14986TIP3   OH266448   6.339   2.882  11.419  0.2774 -0.2731  0.1251
14986TIP3    H166449   6.396   2.958  11.408 -0.5059 -0.0179 -2.6258
14986TIP3    H266450   6.262   2.916  11.464  0.3173  0.3544 -0.2782
14987TIP3   OH266451   2.867   3.026   2.866  0.4473 -0.0125  0.5920
14987TIP3    H166452   2.780   3.018   2.905  0.2764  0.8314  0.3845
14987TIP3    H266453   2.863   2.972   2.787  0.3536 -0.5817  0.9798
14988TIP3   OH266454   0.959   4.939  15.086  0.1099  0.1482 -0.1424
14988TIP3    H166455   1.022   4.868  15.099  0.6106  0.2732 -1.7931
14988TIP3    H266456   0.932   4.930  14.995 -1.4057  0.8033  0.2341
14989TIP3   OH266457   3.668   2.947   1.949 -0.0578 -0.4784  0.8473
14989TIP3    H166458   3.634   3.017   1.893  1.6753 -0.8978 -0.7645
14989TIP3    H266459   3.620   2.869   1.920 -1.0414 -0.2390  1.7611
14990TIP3   OH266460   3.991   6.286  13.895 -0.3163  0.2714  0.0127
14990TIP3    H166461   3.964   6.348  13.828  3.5938  0.3972 -1.5648
14990TIP3    H266462   4.027   6.341  13.965  0.5564 -0.0765 -0.1559
14991TIP3   OH266463   3.520   4.423  15.192  0.4036  0.1707  0.3662
14991TIP3    H166464   3.511   4.360  15.264 -1.1771  0.7866  0.7178
14991TIP3    H266465   3.505   4.508  15.234  1.1664  0.6778 -0.3776
14992TIP3   OH266466   1.193   1.539  14.342 -0.0089 -0.1880  0.0222
14992TIP3    H166467   1.121   1.602  14.340  1.0284  1.0411  0.6937
14992TIP3    H266468   1.231   1.549  14.429  0.5448 -1.3233 -0.0756
14993TIP3   OH266469   6.674   4.714   4.306  0.7717  0.2644 -0.4319
14993TIP3    H166470   6.623   4.717   4.225 -0.9471 -0.7277  0.5706
14993TIP3    H266471   6.624   4.768   4.367  1.3178 -0.1170  0.3520
14994TIP3   OH266472   3.924   6.638  12.089  0.0817 -0.1217 -0.0756
14994TIP3    H166473   3.938   6.726  12.056 -0.0676  0.2969  0.9638
14994TIP3    H266474   4.002   6.619  12.141 -0.0958 -0.4190  0.0861
14995TIP3   OH266475   3.241   0.838   5.130  0.0172  0.4685 -0.0896
14995TIP3    H166476   3.169   0.888   5.168 -0.3600  1.2972 -1.8537
14995TIP3    H266477   3.250   0.761   5.186 -1.3200  1.0578  0.9418
14996TIP3   OH266478   4.840   6.306   2.818 -0.4950 -0.1922  0.2673
14996TIP3    H166479   4.773   6.314   2.886  1.6722  2.5320  2.1990
14996TIP3    H266480   4.809   6.363   2.748 -0.5989  0.4275  0.8106
14997TIP3   OH266481   5.435   5.804   3.819  0.4744  0.1171 -0.7000
14997TIP3    H166482   5.470   5.831   3.734 -0.4932  1.1771 -0.7692
14997TIP3    H266483   5.512   5.800   3.876  0.8549  1.3942 -1.1113
14998TIP3   OH266484   5.552   1.260   5.266  0.5344  0.3158 -0.5023
14998TIP3    H166485   5.627   1.243   5.323 -0.7353  1.0332  1.4512
14998TIP3    H266486   5.550   1.186   5.205  2.6776  0.1936 -0.4361
14999TIP3   OH266487   2.829   1.521  11.549  0.0616 -0.7268 -0.5266
14999TIP3    H166488   2.767   1.564  11.608  0.0921  0.8250 -1.5956
14999TIP3    H266489   2.778   1.502  11.471  0.0400 -2.7271 -0.0553
15000TIP3   OH266490   5.070   6.512   0.168 -0.2879 -0.2325  0.3136
15000TIP3    H166491   5.013   6.459   0.225 -0.4768 -1.6702 -1.1717
15000TIP3    H266492   5.158   6.489   0.195 -0.3579 -1.6829 -0.6020
15001TIP3   OH266493   2.097   2.488   5.710  0.2702  0.1021 -0.0951
15001TIP3    H166494   2.016   2.461   5.755  0.9311 -0.5008  0.7430
15001TIP3    H266495   2.158   2.509   5.781  1.0764 -0.1442 -0.7132
15002TIP3   OH266496   2.146   0.970   0.223 -0.1972  0.2547 -0.1569
15002TIP3    H166497   2.142   0.957   0.318  1.2706 -0.1063 -0.1221
15002TIP3    H266498   2.141   0.881   0.187 -0.8012  0.3948 -0.4242
15003TIP3   OH266499   5.149   0.199  14.951  0.1780  0.1990  0.5844
15003TIP3    H166500   5.115   0.198  14.862 -1.1556 -0.8250  1.0803
15003TIP3    H266501   5.096   0.264  14.996  0.2687  0.0963  0.8387
15004TIP3   OH266502   3.503   6.223   5.147 -0.3387  0.4283 -0.2118
15004TIP3    H166503   3.497   6.135   5.182 -2.4556  0.3338 -0.7214
15004TIP3    H266504   3.576   6.264   5.195 -0.4770 -1.0200  1.2658
15005TIP3   OH266505   3.533   2.619  14.267 -0.0980 -0.2617  0.1195
15005TIP3    H166506   3.565   2.645  14.181  1.6449  0.3031  0.9033
15005TIP3    H266507   3.451   2.667  14.278  0.0894  0.2997 -0.8761
15006TIP3   OH266508   4.350   5.483  12.936 -0.1556 -0.4647  0.9491
15006TIP3    H166509   4.318   5.573  12.933 -0.6398 -0.5697  2.5435
15006TIP3    H266510   4.278   5.433  12.975 -0.5806 -1.8575 -1.5637
15007TIP3   OH266511   1.260   4.601   3.184 -0.8381  0.4070 -0.1853
15007TIP3    H166512   1.286   4.521   3.229  1.0438  0.2596 -1.4999
15007TIP3    H266513   1.334   4.661   3.196 -1.5360  1.3706 -0.6271
15008TIP3   OH266514   6.473   6.143  13.774 -0.0115  0.4754  0.3761
15008TIP3    H166515   6.475   6.148  13.679 -0.6683 -1.6591  0.2205
15008TIP3    H266516   6.563   6.161  13.801  0.0207  1.8185 -0.5938
15009TIP3   OH266517   3.418   1.605  14.349 -0.7949 -0.6213 -0.2266
15009TIP3    H166518   3.325   1.617  14.365 -0.3998  3.0137 -0.0796
15009TIP3    H266519   3.429   1.622  14.255  0.0078  1.7240  0.2393
15010TIP3   OH266520   2.855   5.545   5.472 -0.2086  0.4903 -0.2902
15010TIP3    H166521   2.890   5.462   5.505  1.6346  0.5757 -1.9381
15010TIP3    H266522   2.776   5.520   5.423 -0.3531 -0.1499  0.2691
15011TIP3   OH266523   5.494   5.227  12.935 -0.4828  0.0454 -0.6166
15011TIP3    H166524   5.576   5.269  12.909 -1.2116  0.1221 -2.8904
15011TIP3    H266525   5.444   5.296  12.977  0.5736  0.0067  0.7592
15012TIP3   OH266526   4.240   3.027   3.367 -0.1030 -0.1804  0.0039
15012TIP3    H166527   4.177   3.049   3.435  1.1136  0.3069  1.0106
15012TIP3    H266528   4.215   2.939   3.338 -1.2444  0.0227  0.3545
15013TIP3   OH266529   2.474   6.112   1.164 -0.2837  0.0042  0.3681
15013TIP3    H166530   2.486   6.143   1.254 -2.8690  0.3203  0.6287
15013TIP3    H266531   2.413   6.174   1.125 -0.7381 -1.2919 -0.9989
15014TIP3   OH266532   2.771   1.206  13.795 -0.2720  0.1038  0.1378
15014TIP3    H166533   2.677   1.220  13.803 -0.4263  0.4529 -1.9469
15014TIP3    H266534   2.807   1.292  13.776  0.2885 -0.2684 -0.5191
15015TIP3   OH266535   1.199   0.979  15.933  0.1398 -0.4123  0.0288
15015TIP3    H166536   1.188   1.066  15.971  1.5891 -0.3747  0.3811
15015TIP3    H266537   1.111   0.954  15.904 -0.3673  0.9632  0.3605
15016TIP3   OH266538   3.100   4.272   0.302 -0.2418 -0.5367  0.1225
15016TIP3    H166539   3.032   4.337   0.285 -0.5228 -0.4202  1.6079
15016TIP3    H266540   3.182   4.317   0.284 -0.4585  0.0900  0.6672
15017TIP3   OH266541   4.861   2.296   5.440  0.1028 -0.0940  0.0856
15017TIP3    H166542   4.896   2.207   5.448 -1.7637 -0.6633  2.3086
15017TIP3    H266543   4.926   2.342   5.388  2.1407 -2.2014  0.6721
15018TIP3   OH266544   5.876   5.977   4.596 -0.0719 -0.4616  0.3162
15018TIP3    H166545   5.784   5.966   4.571 -0.0480  1.0505 -0.4534
15018TIP3    H266546   5.925   5.961   4.515  0.1041  2.6460 -0.2452
15019TIP3   OH266547   1.053   0.636   6.427  0.6997 -0.2530  0.5365
15019TIP3    H166548   1.016   0.564   6.479  0.8093  0.8869  2.1937
15019TIP3    H266549   1.138   0.654   6.467  0.6661  0.8122  0.1395
15020TIP3   OH266550   6.557   0.623   3.452 -0.3508  0.0284  0.0286
15020TIP3    H166551   6.643   0.581   3.448 -0.7162 -1.0183  2.2825
15020TIP3    H266552   6.525   0.621   3.362  1.6594 -0.2509 -0.7062
15021TIP3   OH266553   1.000   6.154   4.959 -0.6538  0.4733  0.4939
15021TIP3    H166554   1.086   6.187   4.984  0.4634 -0.8726 -1.4975
15021TIP3    H266555   0.939   6.224   4.985  1.3093  2.6487 -0.5616
15022TIP3   OH266556   2.596   4.995  11.594 -0.4233  0.0961  0.7415
15022TIP3    H166557   2.561   4.971  11.508  2.1060  2.2263 -0.9979
15022TIP3    H266558   2.520   5.023  11.644 -1.8904 -0.6890 -0.9874
15023TIP3   OH266559   5.495   0.631   5.438  0.2395 -0.9263 -0.0700
15023TIP3    H166560   5.563   0.567   5.417 -0.0012 -0.4885 -2.3495
15023TIP3    H266561   5.540   0.715   5.434 -0.2050 -0.7088 -0.5679
15024TIP3   OH266562   5.098   6.486  11.294 -0.6239  0.1232  0.1071
15024TIP3    H166563   5.090   6.449  11.206  0.8078 -2.0856  0.8830
15024TIP3    H266564   5.177   6.539  11.290 -1.2336  1.0316 -0.2506
15025TIP3   OH266565   2.355   0.414  15.188  0.4541 -0.4494 -0.0596
15025TIP3    H166566   2.275   0.362  15.190  0.3567 -0.4171 -2.1602
15025TIP3    H266567   2.426   0.350  15.184  0.3923 -0.4511 -1.2599
15026TIP3   OH266568   5.819   0.455   1.442 -0.1182 -0.5908  0.1671
15026TIP3    H166569   5.775   0.521   1.495 -0.8640 -2.3468  1.7711
15026TIP3    H266570   5.777   0.373   1.465  0.3290 -1.5730 -2.3133
15027TIP3   OH266571   4.689   5.876  11.217  0.2378 -0.3280 -0.1942
15027TIP3    H166572   4.597   5.849  11.210 -0.4536  1.6152  0.8272
15027TIP3    H266573   4.732   5.806  11.265 -1.4988  0.3083  2.3846
15028TIP3   OH266574   3.405   5.059  12.653 -0.1009  0.1043 -0.5078
15028TIP3    H166575   3.363   5.144  12.666  0.0501  0.1513 -0.3291
15028TIP3    H266576   3.487   5.064  12.702  0.8921  0.5992 -2.1751
15029TIP3   OH266577   3.266   5.689   4.392  0.2789 -0.8281 -0.1988
15029TIP3    H166578   3.190   5.681   4.449  0.2113  0.4104 -0.0861
15029TIP3    H266579   3.300   5.600   4.382 -1.0157 -1.3433 -0.0194
15030TIP3   OH266580   2.699   6.451   2.530 -0.3863  0.2543  0.1318
15030TIP3    H166581   2.758   6.519   2.560 -1.2931  1.5037 -0.8425
15030TIP3    H266582   2.672   6.479   2.442  0.0942 -1.9261 -0.7630
15031TIP3   OH266583   2.505   6.321   0.886 -0.2003  0.3829  0.5661
15031TIP3    H166584   2.416   6.309   0.919 -0.2272  0.1762  0.4244
15031TIP3    H266585   2.555   6.353   0.961 -0.3181  0.1605  0.7406
15032TIP3   OH266586   5.742   6.678   1.507  0.3065 -0.0168  0.6765
15032TIP3    H166587   5.784   6.592   1.498  2.2905  0.8551  1.2209
15032TIP3    H266588   5.704   6.676   1.595 -1.0877 -0.9127  0.0792
15033TIP3   OH266589   6.625   5.420  12.738 -0.0871  0.3218 -0.2663
15033TIP3    H166590   6.573   5.346  12.706  0.1316 -0.0608  0.2573
15033TIP3    H266591   6.563   5.493  12.742 -0.5061 -0.0428  0.0163
15034TIP3   OH266592   5.106   3.185   1.606  0.4185 -0.9925  0.4514
15034TIP3    H166593   5.112   3.222   1.694 -2.3810 -3.3122  1.7172
15034TIP3    H266594   5.089   3.260   1.549 -2.5340  0.0570  2.5892
15035TIP3   OH266595   6.271   2.854  14.188 -0.0340 -0.0144  0.8497
15035TIP3    H166596   6.357   2.868  14.226  0.4094 -0.2870 -0.0376
15035TIP3    H266597   6.221   2.933  14.212  0.5641  0.2948  1.0755
15036TIP3   OH266598   2.402   3.764  16.657 -0.7735  0.3186 -0.3776
15036TIP3    H166599   2.355   3.771  16.740 -1.4607  0.9984 -0.8134
15036TIP3    H266600   2.333   3.749  16.592 -0.1345 -1.5380 -0.6728
15037TIP3   OH266601   1.010   0.618   4.823 -0.5234 -0.0830 -0.0470
15037TIP3    H166602   0.934   0.673   4.844 -1.3683 -0.6561 -1.5386
15037TIP3    H266603   0.991   0.584   4.736  1.4796 -0.2034 -0.4478
15038TIP3   OH266604   5.970   2.373   6.135 -0.2101  0.2536  0.3037
15038TIP3    H166605   6.006   2.368   6.223 -1.3359  0.5059  0.7761
15038TIP3    H266606   5.876   2.367   6.146 -0.2866 -1.3863 -1.0269
15039TIP3   OH266607   4.022   4.162  13.217 -0.5191 -0.1242  0.1581
15039TIP3    H166608   3.987   4.093  13.274 -0.2050  1.0472  1.8236
15039TIP3    H266609   3.947   4.218  13.199 -0.1633  0.7379  1.2831
15040TIP3   OH266610   2.386   4.031   3.270 -0.6860 -0.6825 -0.3666
15040TIP3    H166611   2.387   4.124   3.291  0.3686 -0.7811  0.0321
15040TIP3    H266612   2.329   3.992   3.337  0.2251 -0.5633  0.4893
15041TIP3   OH266613   2.479   0.410  14.829 -0.1528  0.3577 -0.4334
15041TIP3    H166614   2.427   0.340  14.790 -0.5819  2.0465 -3.0040
15041TIP3    H266615   2.414   0.468  14.869  0.3231 -1.7775  3.6897
15042TIP3   OH266616   0.933   3.527   6.647  0.3025  0.0183 -0.0672
15042TIP3    H166617   0.906   3.619   6.650 -0.7973 -0.2925 -0.0657
15042TIP3    H266618   1.027   3.530   6.632  0.5246  1.1658  1.3866
15043TIP3   OH266619   6.607   6.279  16.678 -0.2690  0.4083 -0.3775
15043TIP3    H166620   6.622   6.224  16.601 -2.0179  0.8523 -1.0610
15043TIP3    H266621   6.532   6.333  16.655 -0.4489  0.9745  1.4296
15044TIP3   OH266622   0.025   2.592  13.399  0.0873  0.2945  0.2137
15044TIP3    H166623   0.049   2.682  13.378 -0.0269  0.1079 -0.7383
15044TIP3    H266624  -0.057   2.577  13.351 -0.2465 -0.0996  0.8955
15045TIP3   OH266625   4.939   0.783   2.121  0.5588 -0.5905  0.6978
15045TIP3    H166626   4.861   0.813   2.168 -0.1967  0.8141 -1.3706
15045TIP3    H266627   4.950   0.846   2.050  1.7922 -2.4985 -0.8788
15046TIP3   OH266628   3.324   2.857  15.496 -0.3461 -0.6466 -0.7035
15046TIP3    H166629   3.294   2.772  15.464  0.7716 -0.1307 -3.2239
15046TIP3    H266630   3.276   2.921  15.443  0.7118  0.2571 -0.5797
15047TIP3   OH266631   1.265   2.791   4.913 -0.1396  0.0948 -0.4886
15047TIP3    H166632   1.222   2.791   4.828 -0.2442  0.0317 -0.4357
15047TIP3    H266633   1.211   2.848   4.968 -0.1444  0.0303 -0.4266
15048TIP3   OH266634   5.068   5.351   3.553  0.1032 -0.3681  0.2796
15048TIP3    H166635   5.103   5.424   3.604 -2.2169  0.3911  0.8281
15048TIP3    H266636   5.050   5.388   3.466 -1.3143 -0.2324  0.6344
15049TIP3   OH266637   5.401   5.993   5.614 -0.1143 -0.0279  0.0726
15049TIP3    H166638   5.449   5.970   5.535  0.4640  0.4349  0.2856
15049TIP3    H266639   5.376   5.909   5.652 -0.6251 -0.2541 -0.7346
15050TIP3   OH266640   4.124   2.893   5.649  0.3954 -0.4649  0.1526
15050TIP3    H166641   4.152   2.847   5.570 -0.7260  1.8217 -1.6247
15050TIP3    H266642   4.201   2.892   5.706  2.2201  0.5437 -2.2274
15051TIP3   OH266643   6.122   5.596  16.720  1.2934 -0.5466 -0.5557
15051TIP3    H166644   6.173   5.675  16.703  0.5739  0.2430  0.9393
15051TIP3    H266645   6.160   5.531  16.661  1.2515  1.1559 -2.5399
15052TIP3   OH266646   1.359   4.822   0.817  0.2094  0.0699  0.0539
15052TIP3    H166647   1.285   4.873   0.852 -0.8157 -0.8994 -0.6507
15052TIP3    H266648   1.418   4.888   0.782 -1.0407  0.8090 -0.7182
15053TIP3   OH266649   2.699   6.048  11.595  0.2875 -0.0762 -0.0395
15053TIP3    H166650   2.784   6.030  11.637  0.4887  1.9514  0.4637
15053TIP3    H266651   2.720   6.104  11.521 -0.5044 -0.5714 -0.6475
15054TIP3   OH266652   5.300   4.499  13.857  0.1977 -0.0677 -0.6576
15054TIP3    H166653   5.301   4.503  13.952  2.7792 -1.1400 -0.5963
15054TIP3    H266654   5.391   4.510  13.831 -0.3672 -0.5009 -2.9812
15055TIP3   OH266655   3.320   5.842   1.546 -0.1915 -0.1398 -0.3172
15055TIP3    H166656   3.296   5.844   1.638 -0.3339 -0.0306 -0.3579
15055TIP3    H266657   3.315   5.749   1.522 -0.8146 -0.0911 -0.3920
15056TIP3   OH266658   3.168   4.711  16.577  0.1842 -0.0416  0.1114
15056TIP3    H166659   3.190   4.673  16.662 -0.0465  0.9800  0.6289
15056TIP3    H266660   3.077   4.683  16.561  0.6381 -1.2840 -0.3924
15057TIP3   OH266661   1.044   6.227   3.261 -0.0836  0.4484 -0.1052
15057TIP3    H166662   1.121   6.284   3.268  0.9498 -0.9409  0.2330
15057TIP3    H266663   0.979   6.280   3.215 -0.2312  2.9779  2.8568
15058TIP3   OH266664   2.161   3.249   1.269  0.3919  0.0866  0.3168
15058TIP3    H166665   2.233   3.272   1.210  0.3543  1.4762  0.7901
15058TIP3    H266666   2.155   3.154   1.264  2.7396 -0.1188  0.8152
15059TIP3   OH266667   0.487   4.062   3.854  0.4700  0.7221  0.4625
15059TIP3    H166668   0.394   4.041   3.860  0.5989 -0.3780 -1.1090
15059TIP3    H266669   0.532   3.982   3.881  0.9525  0.6305 -0.5775
15060TIP3   OH266670   5.851   3.572   5.925 -0.1807 -0.0105  1.0106
15060TIP3    H166671   5.917   3.633   5.957 -1.9881  1.2930  2.3440
15060TIP3    H266672   5.837   3.598   5.834  0.8437 -0.0304  0.8445
15061TIP3   OH266673   3.926   6.628  13.274  0.0627  0.4068 -0.0246
15061TIP3    H166674   3.985   6.678  13.218  2.0763 -1.5319  0.2782
15061TIP3    H266675   3.861   6.591  13.214  2.5562 -2.1506 -1.2574
15062TIP3   OH266676   1.394   5.906  17.280 -0.5427 -0.7310  0.3565
15062TIP3    H166677   1.377   5.812  17.272  1.1356 -1.1030  0.8704
15062TIP3    H266678   1.385   5.924  17.373 -1.0680 -0.3347  0.2292
15063TIP3   OH266679   2.796   1.753  14.607  0.3301  0.2675 -0.0651
15063TIP3    H166680   2.705   1.747  14.638  0.1095  1.3444 -0.4816
15063TIP3    H266681   2.837   1.817  14.665  0.7819 -0.0973  0.0183
15064TIP3   OH266682   5.486   1.604  14.642  0.0835 -0.3340 -0.2819
15064TIP3    H166683   5.522   1.687  14.611 -0.5608  0.2974  0.6255
15064TIP3    H266684   5.420   1.581  14.577  0.0483  0.0150 -0.3719
15065TIP3   OH266685   1.604   5.710   3.179 -0.4738  0.2493 -0.3265
15065TIP3    H166686   1.592   5.649   3.251 -0.4656  1.5735  0.8347
15065TIP3    H266687   1.679   5.677   3.130 -0.4726 -0.6622  0.2873
15066TIP3   OH266688   1.747   0.560   4.127 -0.0473  0.5629  0.1346
15066TIP3    H166689   1.809   0.488   4.125 -0.0010  0.5911  0.5747
15066TIP3    H266690   1.661   0.518   4.131 -0.3468  0.4090 -5.0175
15067TIP3   OH266691   2.716   2.374  11.702 -0.0032  0.6855  0.0576
15067TIP3    H166692   2.670   2.297  11.734 -1.3921  1.5442  0.1743
15067TIP3    H266693   2.809   2.350  11.706 -0.3379 -0.4559  1.4395
15068TIP3   OH266694   4.122   2.670   5.210 -0.6714  0.1088  0.6586
15068TIP3    H166695   4.091   2.747   5.165 -0.4543 -1.4985 -2.3433
15068TIP3    H266696   4.048   2.610   5.210  0.0406 -0.7919  0.3520
15069TIP3   OH266697   6.246   6.381  17.256 -0.7636 -0.0350  0.1337
15069TIP3    H166698   6.225   6.369  17.163 -0.2055  1.5408 -0.2023
15069TIP3    H266699   6.229   6.473  17.274 -0.2849 -0.1878  1.4520
15070TIP3   OH266700   6.619   6.052   6.307 -0.0623  0.6111 -0.5073
15070TIP3    H166701   6.572   6.027   6.228  0.5440  1.4732 -1.1555
15070TIP3    H266702   6.551   6.083   6.367 -0.9478 -3.3911  0.6795
15071TIP3   OH266703   6.463   5.318  12.356  0.0064 -0.2835 -0.2283
15071TIP3    H166704   6.438   5.390  12.414  0.2108  0.0570 -0.5571
15071TIP3    H266705   6.546   5.347  12.317 -0.7497  0.0259 -1.6218
15072TIP3   OH266706   6.297   0.321   2.420 -0.3418 -0.1745  0.3819
15072TIP3    H166707   6.255   0.406   2.409  0.1724 -0.0069 -0.3846
15072TIP3    H266708   6.328   0.321   2.510 -0.0853  0.5754  0.3009
15073TIP3   OH266709   3.313   3.750  13.150 -0.3827  0.4009 -0.7124
15073TIP3    H166710   3.260   3.697  13.090  0.6587 -0.1741 -1.1354
15073TIP3    H266711   3.397   3.759  13.105  0.3033  0.2246  0.5300
15074TIP3   OH266712   3.593   5.027   4.268  0.5426  0.1646 -0.5393
15074TIP3    H166713   3.623   5.094   4.329  1.0921 -0.7546  0.2215
15074TIP3    H266714   3.511   5.061   4.232  0.6018  1.0416  0.1508
15075TIP3   OH266715   1.890   3.279   1.293  0.1298 -0.7011  0.3686
15075TIP3    H166716   1.980   3.276   1.260  0.1305  0.5737  0.2553
15075TIP3    H266717   1.894   3.235   1.378  0.5985 -1.8120 -0.2083
15076TIP3   OH266718   3.903   5.858  14.562  0.2289 -0.0423  0.2912
15076TIP3    H166719   3.990   5.824  14.585  0.9076  1.3070 -0.2504
15076TIP3    H266720   3.865   5.790  14.506  1.8446  0.3596 -1.3396
15077TIP3   OH266721   2.993   2.369  12.244 -0.1188 -0.1957 -0.6518
15077TIP3    H166722   3.026   2.404  12.161  1.6443 -0.7876 -0.2152
15077TIP3    H266723   2.935   2.297  12.219 -1.0176  0.7708 -1.4187
15078TIP3   OH266724   4.189   5.485   1.809 -0.3985 -0.7404 -0.6920
15078TIP3    H166725   4.279   5.457   1.792 -0.3297 -0.9003 -0.0898
15078TIP3    H266726   4.135   5.426   1.756 -0.0364  1.2172 -3.3293
15079TIP3   OH266727   6.440   3.380  11.360  0.2380 -0.0162  0.0584
15079TIP3    H166728   6.397   3.420  11.285  0.4838  0.0025 -0.0727
15079TIP3    H266729   6.433   3.286  11.345  0.3606 -0.0109 -0.0277
15080TIP3   OH266730   1.771   3.679   5.398 -0.6469 -0.0401 -0.2498
15080TIP3    H166731   1.783   3.757   5.343  1.7401  1.5001  2.2899
15080TIP3    H266732   1.753   3.714   5.485  0.7529 -2.3293  1.0027
15081TIP3   OH266733   5.307   4.227   0.114 -0.2042  0.2073  0.2381
15081TIP3    H166734   5.400   4.239   0.136 -0.2257 -0.3381  0.6482
15081TIP3    H266735   5.287   4.299   0.055  0.0150  1.3720  1.5665
15082TIP3   OH266736   0.357   2.661  12.682  0.1652  0.0799  0.4777
15082TIP3    H166737   0.373   2.599  12.753  2.5233 -0.9258 -0.8701
15082TIP3    H266738   0.323   2.607  12.611  1.7793  0.3976 -0.5464
15083TIP3   OH266739   3.434   1.771   2.446  0.6058  0.0783 -0.4315
15083TIP3    H166740   3.468   1.829   2.378  0.7580  0.0062 -0.4160
15083TIP3    H266741   3.342   1.796   2.456  0.9813  1.1304  0.4270
15084TIP3   OH266742   3.686   0.196   3.895  0.3959  1.0690  0.3904
15084TIP3    H166743   3.659   0.243   3.816  1.8506  0.8164 -0.2835
15084TIP3    H266744   3.737   0.260   3.944  2.0823  0.3478 -0.3611
15085TIP3   OH266745   2.391   4.486  12.378  0.8297 -0.3294 -0.5207
15085TIP3    H166746   2.413   4.485  12.285  1.5035  2.7438 -0.4636
15085TIP3    H266747   2.450   4.552  12.416  0.3729 -1.3267  2.0300
15086TIP3   OH266748   3.460   6.413   2.671 -0.5939 -0.4359  0.1757
15086TIP3    H166749   3.482   6.321   2.684  2.8144  0.2205 -0.5192
15086TIP3    H266750   3.520   6.461   2.729 -0.5586  1.4607 -1.3781
15087TIP3   OH266751   6.542   5.585  14.221 -0.2657 -0.3239 -0.0070
15087TIP3    H166752   6.577   5.591  14.310  0.9005  0.5669 -0.5117
15087TIP3    H266753   6.581   5.660  14.175 -1.6637 -0.1828 -0.9957
15088TIP3   OH266754   2.580   2.434   1.468 -0.2566 -0.2492 -0.8432
15088TIP3    H166755   2.491   2.442   1.502  0.8269  3.7110  1.3968
15088TIP3    H266756   2.607   2.345   1.492 -3.0956 -1.0405 -0.3596
15089TIP3   OH266757   1.129   4.757  16.910  0.3369 -0.6467 -0.0590
15089TIP3    H166758   1.199   4.753  16.976  1.2746  0.3292 -0.9843
15089TIP3    H266759   1.056   4.709  16.950  0.8007  0.1421  1.8067
15090TIP3   OH266760   3.673   2.910   3.227  0.3536  0.3767  0.7956
15090TIP3    H166761   3.660   2.821   3.195  0.2759  0.3898  0.7903
15090TIP3    H266762   3.740   2.947   3.168 -0.5435  0.7429 -0.0159
15091TIP3   OH266763   4.480   3.167  12.182  0.0617 -0.2687  0.0842
15091TIP3    H166764   4.502   3.225  12.255 -2.1786  0.2770  0.3633
15091TIP3    H266765   4.481   3.224  12.105  0.0970 -0.3471  0.0272
15092TIP3   OH266766   2.377   4.909  12.992 -0.4580 -0.5035 -0.4046
15092TIP3    H166767   2.464   4.944  13.013 -0.6205 -0.6239  0.4954
15092TIP3    H266768   2.394   4.835  12.934  0.0385 -0.4430 -0.3368
15093TIP3   OH266769   3.377   4.852  14.309  0.5990 -0.2964 -0.4209
15093TIP3    H166770   3.352   4.906  14.235  2.0393  1.5209  0.3703
15093TIP3    H266771   3.311   4.783  14.313  0.1048  0.0118 -2.9220
15094TIP3   OH266772   3.790   2.551  15.652 -0.8877 -0.8108 -0.6651
15094TIP3    H166773   3.855   2.480  15.646 -0.6416 -0.6097 -0.3904
15094TIP3    H266774   3.807   2.604  15.575  1.6646  1.2562  1.2197
15095TIP3   OH266775   6.644   0.936   3.757 -0.1377  0.2398 -0.2184
15095TIP3    H166776   6.592   0.928   3.836  0.9435  1.0416  0.5986
15095TIP3    H266777   6.613   1.016   3.715 -0.5693 -0.0754 -0.5068
15096TIP3   OH266778   2.248   2.927   2.883  0.2315  0.3836 -0.3443
15096TIP3    H166779   2.239   3.005   2.827  2.0787  1.5229  0.8860
15096TIP3    H266780   2.261   2.855   2.821  1.5444  1.5214 -1.4482
15097TIP3   OH266781   3.769   3.540   4.827 -0.3761  0.4563  0.3027
15097TIP3    H166782   3.689   3.593   4.829 -0.0846  0.8874  0.5834
15097TIP3    H266783   3.829   3.584   4.887 -0.0052  0.0056  0.2685
15098TIP3   OH266784   4.988   0.725  14.566 -0.0628  0.0353 -0.7650
15098TIP3    H166785   4.931   0.668  14.617 -1.2636  0.8888 -1.1384
15098TIP3    H266786   4.999   0.680  14.483  0.4358 -0.4886 -0.4252
15099TIP3   OH266787   5.091   0.390  14.216 -0.1788  0.3875  0.6055
15099TIP3    H166788   5.152   0.316  14.222 -2.1681 -1.3323  0.5222
15099TIP3    H266789   5.093   0.416  14.124  0.6019  0.4903  0.6540
15100TIP3   OH266790   5.139   1.231   2.723 -0.3741 -0.0844  1.0641
15100TIP3    H166791   5.224   1.254   2.762 -0.3521  1.8661 -0.0638
15100TIP3    H266792   5.080   1.221   2.797  0.4242  0.3626  1.7658
15101TIP3   OH266793   6.203   6.412   3.160 -0.1128  0.4568  0.1618
15101TIP3    H166794   6.217   6.502   3.191  1.1205 -0.2734  1.7575
15101TIP3    H266795   6.237   6.412   3.071  1.9004  1.0229  0.9068
15102TIP3   OH266796   5.034   4.766   6.693 -0.0796 -0.0851  0.2505
15102TIP3    H166797   5.040   4.727   6.606 -0.3431  0.2364  0.0930
15102TIP3    H266798   4.951   4.734   6.728 -0.2940  0.3363  0.1233
15103TIP3   OH266799   6.073   2.758   0.054  0.5370 -0.2022  0.1965
15103TIP3    H166800   6.018   2.682   0.075  0.3255  0.0411  0.5407
15103TIP3    H266801   6.161   2.723   0.046  0.5877 -0.3484  1.2800
15104TIP3   OH266802   0.071   6.700  13.604  0.4080  0.0224 -0.2273
15104TIP3    H166803   0.034   6.722  13.689  1.2022 -0.5181  0.2558
15104TIP3    H266804   0.119   6.619  13.618  0.2917 -0.2319 -1.2567
15105TIP3   OH266805   6.497   5.710   2.054 -0.6827  0.0021 -0.7039
15105TIP3    H166806   6.457   5.767   2.120  1.2702 -0.3702  0.8712
15105TIP3    H266807   6.424   5.680   2.000 -2.2247  1.0142  0.7675
15106TIP3   OH266808   1.139   3.138   5.800  0.4542  0.2559  0.2264
15106TIP3    H166809   1.050   3.129   5.835 -0.3730  0.3074 -1.8107
15106TIP3    H266810   1.159   3.231   5.809 -0.1205  0.4329 -0.2896
15107TIP3   OH266811   0.462   4.362   2.871 -0.2703 -0.2563 -0.1661
15107TIP3    H166812   0.456   4.271   2.902  0.4181 -0.3069 -0.1810
15107TIP3    H266813   0.427   4.414   2.943  0.2355 -0.4658  0.2342
15108TIP3   OH266814   5.146   4.810  12.689  0.6721  0.4040 -0.0340
15108TIP3    H166815   5.103   4.780  12.769  1.1386 -0.4014 -0.0796
15108TIP3    H266816   5.136   4.905  12.691 -0.3765  0.2967  0.3745
15109TIP3   OH266817   0.225   6.460   4.262 -0.4571 -0.6519  0.7005
15109TIP3    H166818   0.271   6.400   4.320  0.8792 -0.0735  0.2785
15109TIP3    H266819   0.178   6.519   4.320  1.3197  0.2754  1.2455
15110TIP3   OH266820   0.834   4.772   5.237 -0.1490  0.7495  0.7716
15110TIP3    H166821   0.740   4.772   5.221 -0.2147 -0.6759  1.0520
15110TIP3    H266822   0.862   4.684   5.213  1.0660  1.0845  0.9362
15111TIP3   OH266823   3.348   3.038   3.619  0.8969  0.4564 -0.2460
15111TIP3    H166824   3.300   3.121   3.619  0.4518  0.2003  0.5953
15111TIP3    H266825   3.423   3.054   3.677  0.3001 -0.0224  0.6589
15112TIP3   OH266826   4.693   3.111  13.140 -0.3732  0.5636  0.4254
15112TIP3    H166827   4.741   3.120  13.223 -1.4112  0.0183  1.1068
15112TIP3    H266828   4.749   3.055  13.086  1.0191  2.1574  0.1874
15113TIP3   OH266829   4.641   4.962   3.136  0.4975 -0.0759  0.1800
15113TIP3    H166830   4.581   4.935   3.066  1.2049  0.4905 -0.6608
15113TIP3    H266831   4.588   5.018   3.193  0.5004  1.3806 -1.2031
15114TIP3   OH266832   3.766   4.797   0.980  0.2062 -0.1722 -0.3339
15114TIP3    H166833   3.829   4.795   1.053 -0.5300 -1.0291  0.2856
15114TIP3    H266834   3.811   4.750   0.909  0.0936 -1.1585  0.2477
15115TIP3   OH266835   6.406   3.219  16.139  0.2339  0.6764 -0.2213
15115TIP3    H166836   6.479   3.157  16.134  1.9868  2.6833 -0.0868
15115TIP3    H266837   6.387   3.225  16.232  0.6321  0.9849 -0.1586
15116TIP3   OH266838   2.517   2.143  11.936  0.0201 -0.3495 -0.3923
15116TIP3    H166839   2.446   2.205  11.949 -2.1660 -2.8353  0.0891
15116TIP3    H266840   2.511   2.118  11.844 -0.8532 -1.8243  0.0471
15117TIP3   OH266841   0.437   1.254   4.970 -0.2654 -0.5711  0.7970
15117TIP3    H166842   0.526   1.217   4.973  1.8152  4.0265  0.5475
15117TIP3    H266843   0.426   1.298   5.054 -2.2229 -0.8496  0.7073
15118TIP3   OH266844   1.093   3.290   1.993  0.2070  0.1172  0.2894
15118TIP3    H166845   1.129   3.226   2.054 -0.8714 -0.9282 -0.1345
15118TIP3    H266846   1.090   3.372   2.042 -0.7727 -0.7393  1.6984
15119TIP3   OH266847   0.136   1.460   2.362 -0.3412 -0.5227 -0.1383
15119TIP3    H166848   0.119   1.446   2.269 -1.1872  0.4128 -0.1205
15119TIP3    H266849   0.072   1.525   2.390  1.1414  0.6262  0.6606
15120TIP3   OH266850   4.300   1.327   1.598  0.3254  0.1265  0.0079
15120TIP3    H166851   4.326   1.313   1.689 -0.5272  0.6839  0.3549
15120TIP3    H266852   4.278   1.240   1.565  3.4846 -0.4900 -0.5993
15121TIP3   OH266853   5.587   5.061  14.070  0.0358 -0.0675  0.4020
15121TIP3    H166854   5.609   5.127  14.135 -0.9784 -1.2567  2.0004
15121TIP3    H266855   5.594   4.978  14.117 -1.7062 -0.8726 -0.7234
15122TIP3   OH266856   1.133   4.703  15.112 -0.9477 -0.4316  0.0404
15122TIP3    H166857   1.159   4.702  15.205  0.2449 -0.4315 -0.2873
15122TIP3    H266858   1.079   4.625  15.102  2.0797 -2.6016 -0.1207
15123TIP3   OH266859   6.731   2.018  15.809  0.1180 -0.2938  0.1930
15123TIP3    H166860   6.687   1.940  15.775  2.3715 -0.8827 -1.5276
15123TIP3    H266861   6.707   2.087  15.747  0.4887 -0.3007  0.0414
15124TIP3   OH266862   2.371   2.246  13.172 -0.4909 -0.4315  0.0918
15124TIP3    H166863   2.344   2.234  13.263 -0.4024 -1.5578 -0.0300
15124TIP3    H266864   2.386   2.157  13.139  1.0997  0.0603 -0.5408
15125TIP3   OH266865   5.808   2.129  13.147 -0.0703 -0.1875  0.0749
15125TIP3    H166866   5.833   2.221  13.138  1.2579 -0.6886 -1.6555
15125TIP3    H266867   5.840   2.104  13.234 -1.6903  1.3336  1.1495
15126TIP3   OH266868   2.516   3.136   0.215 -0.6840  0.6133 -0.5783
15126TIP3    H166869   2.486   3.144   0.124 -1.3115 -0.4894 -0.4795
15126TIP3    H266870   2.555   3.049   0.220 -2.6491 -0.2448  0.7546
15127TIP3   OH266871   4.197   2.300   5.230 -0.2391  0.2012  0.1515
15127TIP3    H166872   4.202   2.317   5.136  0.9263 -1.9168 -0.1990
15127TIP3    H266873   4.265   2.356   5.268 -0.5563  0.8911 -0.2751
15128TIP3   OH266874   6.313   4.198   1.996  0.2989  0.0145  0.3017
15128TIP3    H166875   6.314   4.103   1.983  2.3317  0.3646 -2.5630
15128TIP3    H266876   6.389   4.215   2.052  1.1987  0.1162 -0.9152
15129TIP3   OH266877   4.647   0.174   3.044 -0.1400 -0.1188 -0.4987
15129TIP3    H166878   4.716   0.149   3.106  0.3476  0.3604 -0.8465
15129TIP3    H266879   4.619   0.091   3.005  0.4455 -0.2864 -0.5708
15130TIP3   OH266880   4.749   6.311   3.171  0.7187 -0.0748  0.0373
15130TIP3    H166881   4.788   6.344   3.252 -0.4069  0.3587  0.4219
15130TIP3    H266882   4.775   6.219   3.166  2.0691  0.2963  0.0913
15131TIP3   OH266883   2.345   5.427   4.275  0.0304 -0.5944  0.5681
15131TIP3    H166884   2.301   5.484   4.338  2.4583  0.6686  1.1989
15131TIP3    H266885   2.417   5.481   4.240 -0.5777 -1.6370 -2.4910
15132TIP3   OH266886   4.073   3.934   5.809 -0.1225  0.4166 -0.1486
15132TIP3    H166887   4.152   3.893   5.775 -0.0829  1.3549 -1.2071
15132TIP3    H266888   4.034   3.868   5.866  0.7243 -0.5374 -0.6702
15133TIP3   OH266889   0.566   4.949  14.578 -0.0054 -0.3870  0.4763
15133TIP3    H166890   0.572   4.906  14.493 -0.0221 -1.6408  1.0939
15133TIP3    H266891   0.514   5.027  14.562 -1.0990 -1.2800 -0.4151
15134TIP3   OH266892   2.077   4.292   2.668 -0.1403  0.2723  0.1547
15134TIP3    H166893   2.061   4.362   2.604  0.4548 -2.1628 -2.7798
15134TIP3    H266894   2.164   4.312   2.704  1.4550 -0.6292 -3.0198
15135TIP3   OH266895   3.506   0.405   4.047  0.7171  0.2810  0.1191
15135TIP3    H166896   3.467   0.466   3.984  0.2272 -0.8341 -0.6630
15135TIP3    H266897   3.597   0.397   4.019  0.3873 -0.5580 -0.7174
15136TIP3   OH266898   4.161   5.270   5.627 -0.4789  0.6444 -0.3506
15136TIP3    H166899   4.139   5.300   5.715 -0.1898  1.1198 -0.4429
15136TIP3    H266900   4.154   5.174   5.633 -0.4184  0.6699  0.2017
15137TIP3   OH266901   5.060   6.640   1.652  0.1604 -0.0305 -0.4262
15137TIP3    H166902   5.010   6.679   1.580  1.8091  2.0472 -0.4958
15137TIP3    H266903   5.147   6.679   1.645  0.2691  0.4582  2.8948
15138TIP3   OH266904   3.803   0.373   4.088  0.4962 -0.6796  0.0790
15138TIP3    H166905   3.875   0.434   4.102  0.3727 -0.3560 -0.7075
15138TIP3    H266906   3.800   0.321   4.169  1.7765 -0.8772  0.0111
15139TIP3   OH266907   0.852   6.608   5.183 -0.2462  0.0778  0.3526
15139TIP3    H166908   0.783   6.647   5.129 -0.9533 -0.6706  0.7104
15139TIP3    H266909   0.921   6.674   5.184 -1.9101  1.8436  1.9583
15140TIP3   OH266910   5.178   4.140   1.251 -0.0380  0.1502 -0.2808
15140TIP3    H166911   5.257   4.126   1.302 -0.4760  1.5971  0.8454
15140TIP3    H266912   5.179   4.234   1.230 -1.4676  0.2009 -0.2071
15141TIP3   OH266913   4.534   5.415   5.232 -0.0451  0.1886 -0.3683
15141TIP3    H166914   4.457   5.458   5.270 -2.2307 -4.0006  0.1503
15141TIP3    H266915   4.603   5.426   5.298 -1.2196  0.8304  0.7676
15142TIP3   OH266916   3.239   6.222  11.723 -0.1209  0.1793  0.9836
15142TIP3    H166917   3.301   6.270  11.668 -0.6548  0.3070  0.4822
15142TIP3    H266918   3.156   6.227  11.675 -0.5243  0.0379  1.6610
15143TIP3   OH266919   3.079   6.346  12.599  0.0965 -0.7240 -0.3405
15143TIP3    H166920   3.166   6.307  12.610 -0.1319 -1.1788 -0.1264
15143TIP3    H266921   3.094   6.422  12.543  0.7703 -0.2644  0.4590
15144TIP3   OH266922   0.272   2.314   3.827 -0.6257  0.0481  0.2691
15144TIP3    H166923   0.190   2.272   3.801 -0.9803  1.2607 -0.5969
15144TIP3    H266924   0.262   2.405   3.800  0.9966  0.2151  0.2007
15145TIP3   OH266925   1.877   4.869  15.368 -0.4213  0.3839  0.0353
15145TIP3    H166926   1.920   4.951  15.391  1.2288 -1.7002  5.0583
15145TIP3    H266927   1.948   4.811  15.342 -1.3134 -0.2581 -1.0289
15146TIP3   OH266928   1.913   2.809  15.861  0.6315  0.3405 -0.5219
15146TIP3    H166929   1.928   2.847  15.948  1.4816 -0.3852 -0.3472
15146TIP3    H266930   1.936   2.879  15.800  0.4608  0.7009 -0.1754
15147TIP3   OH266931   1.897   2.163  17.225  0.1139  0.0140 -0.2271
15147TIP3    H166932   1.965   2.229  17.235  0.1163  0.0360 -0.3818
15147TIP3    H266933   1.824   2.195  17.277 -1.7101  2.6170 -4.1558
15148TIP3   OH266934   2.914   2.512   5.094 -0.5193 -0.0377  0.2769
15148TIP3    H166935   2.846   2.543   5.153 -0.8554  0.2546 -0.2622
15148TIP3    H266936   2.987   2.572   5.108 -0.3639 -0.3715  0.8778
15149TIP3   OH266937   1.182   0.121   2.566  0.3801  0.3259  0.1307
15149TIP3    H166938   1.264   0.129   2.517  0.8293 -1.0644  0.6385
15149TIP3    H266939   1.200   0.165   2.649  0.0364  1.5425 -0.4220
15150TIP3   OH266940   4.412   0.814   3.119 -0.0299 -0.1266  0.5383
15150TIP3    H166941   4.319   0.812   3.141  0.1001  0.4608  1.1670
15150TIP3    H266942   4.456   0.791   3.201  0.4441  1.5077  0.7485
15151TIP3   OH266943   1.069   3.400  11.852  0.3385  0.4770  0.6962
15151TIP3    H166944   1.035   3.310  11.857  0.5967  0.2329 -1.3779
15151TIP3    H266945   1.149   3.398  11.905  1.0350 -0.8618 -0.3815
15152TIP3   OH266946   4.904   2.326  13.386 -0.0157 -0.3356 -0.2220
15152TIP3    H166947   4.922   2.402  13.442 -1.0940  0.5712 -1.0818
15152TIP3    H266948   4.968   2.334  13.315 -0.0254 -0.3210 -0.2299
15153TIP3   OH266949   2.606   3.906   3.620  0.1777  0.0613  0.2110
15153TIP3    H166950   2.698   3.905   3.647 -0.2342 -1.0097  1.6317
15153TIP3    H266951   2.607   3.870   3.531  1.0875 -0.3362  0.3791
15154TIP3   OH266952   3.561   1.841   0.093  0.2725 -0.2048  0.3876
15154TIP3    H166953   3.469   1.864   0.083  0.1367 -1.1990 -0.7990
15154TIP3    H266954   3.608   1.906   0.041  0.1198 -0.6563 -0.3228
15155TIP3   OH266955   4.795   1.368   3.198 -0.0320  0.0524  0.9404
15155TIP3    H166956   4.831   1.436   3.141 -1.4973 -0.9278 -1.1991
15155TIP3    H266957   4.867   1.307   3.212  0.8626  1.2482  1.6765
15156TIP3   OH266958   0.989   5.709  15.830  0.0220  0.8239 -0.0433
15156TIP3    H166959   1.077   5.688  15.859  0.7380  2.9550 -0.6271
15156TIP3    H266960   0.992   5.698  15.735 -1.3046 -2.4545  0.2170
15157TIP3   OH266961   3.166   2.404   0.395 -0.1856  0.2855 -0.0760
15157TIP3    H166962   3.118   2.421   0.476 -2.1139 -0.9970 -0.9152
15157TIP3    H266963   3.257   2.393   0.423 -0.5628  1.4714  1.6955
15158TIP3   OH266964   1.832   6.523   3.234 -0.1199  0.4336  0.0373
15158TIP3    H166965   1.882   6.481   3.165 -1.2226 -0.7018 -0.1110
15158TIP3    H266966   1.887   6.594   3.265  1.2138 -0.2719 -0.6745
15159TIP3   OH266967   5.987   4.443  12.538  0.2386  0.7641 -0.4165
15159TIP3    H166968   6.060   4.453  12.477  0.1691  0.9689 -0.4669
15159TIP3    H266969   6.007   4.503  12.610  0.0267  0.9616 -0.5212
15160TIP3   OH266970   1.012   4.167  10.632  0.0421 -0.4940  0.2910
15160TIP3    H166971   0.963   4.130  10.559  0.7277  0.0047 -0.4339
15160TIP3    H266972   0.985   4.259  10.636  1.3170 -0.0642 -0.4853
15161TIP3   OH266973   4.804   3.281  16.242  0.2527  0.0422 -0.6954
15161TIP3    H166974   4.798   3.375  16.259  1.1319 -0.0289  0.0436
15161TIP3    H266975   4.827   3.274  16.150 -0.1433  0.5439 -0.8367
15162TIP3   OH266976   5.249   6.686   0.406  0.3546 -0.4186 -0.0540
15162TIP3    H166977   5.218   6.761   0.355  1.0782  0.7500  1.1972
15162TIP3    H266978   5.342   6.681   0.386  0.1928 -1.3651 -0.5915
15163TIP3   OH266979   6.420   2.738   0.345  0.1801 -0.5149  0.0788
15163TIP3    H166980   6.462   2.785   0.418  1.7633 -0.4024 -0.8913
15163TIP3    H266981   6.408   2.649   0.378  0.8185 -0.4469  0.5116
15164TIP3   OH266982   4.934   5.063  11.666 -0.0890 -0.2551 -0.5721
15164TIP3    H166983   4.879   4.985  11.675  0.4578 -0.6485 -0.5912
15164TIP3    H266984   4.987   5.046  11.588 -1.2159  0.9187 -1.6307
15165TIP3   OH266985   0.341   5.391   4.413  0.5735  0.1388 -0.8539
15165TIP3    H166986   0.280   5.348   4.354  1.6234 -1.6246 -0.6797
15165TIP3    H266987   0.426   5.387   4.369  1.1130  0.0039  0.1707
15166TIP3   OH266988   5.261   3.515   6.469 -0.4008  0.6866 -0.0159
15166TIP3    H166989   5.168   3.515   6.449 -0.1017  0.3682 -1.4882
15166TIP3    H266990   5.292   3.430   6.438 -0.0011 -0.0863  2.3802
15167TIP3   OH266991   3.148   6.356  15.546 -0.1312 -0.2329  0.0292
15167TIP3    H166992   3.059   6.381  15.567 -0.1985 -0.5490  0.1206
15167TIP3    H266993   3.161   6.387  15.456 -0.1468  0.2975  0.2086
15168TIP3   OH266994   0.177   5.909   0.039  0.2900 -0.6588  0.3875
15168TIP3    H166995   0.263   5.880   0.009 -0.0317 -1.9357  0.6364
15168TIP3    H266996   0.115   5.863  -0.017 -0.2440 -0.6301  0.9436
15169TIP3   OH266997   2.220   5.433  13.116 -0.0094  0.1370  0.1709
15169TIP3    H166998   2.302   5.389  13.138 -0.2881 -0.4533  0.0212
15169TIP3    H266999   2.233   5.467  13.027  0.1590  0.2537  0.2398
15170TIP3   OH267000   0.225   2.179   1.226  0.3828  0.2220  0.3342
15170TIP3    H167001   0.318   2.169   1.247  0.4370  0.2411  0.0990
15170TIP3    H267002   0.182   2.186   1.312  0.8425  2.2794  0.4278
15171TIP3   OH267003   4.598   2.419   4.341 -0.3345  0.4992  0.6420
15171TIP3    H167004   4.676   2.415   4.396  0.2425 -0.6484 -0.2276
15171TIP3    H267005   4.572   2.511   4.342  0.7176  0.7940  1.3600
15172TIP3   OH267006   6.656   3.751   5.142  0.3579 -0.3676 -0.6582
15172TIP3    H167007   6.565   3.760   5.112  0.4519  1.4812 -0.4534
15172TIP3    H267008   6.702   3.825   5.102  2.1851 -2.2552 -2.1761
15173TIP3   OH267009   2.458   4.004  11.700  0.1280 -0.6042  0.1120
15173TIP3    H167010   2.482   4.057  11.775  1.1676  1.0102 -1.3230
15173TIP3    H267011   2.521   3.931  11.701 -0.5940 -1.2179  1.4433
15174TIP3   OH267012   6.385   1.134   3.382  0.4788 -0.0102 -0.6786
15174TIP3    H167013   6.377   1.190   3.459 -1.6950 -0.8119 -0.2750
15174TIP3    H267014   6.423   1.053   3.415  1.7063  0.4655 -0.8919
15175TIP3   OH267015   0.510   4.414  16.105  0.1755  0.9872  0.8866
15175TIP3    H167016   0.445   4.373  16.162  1.2835 -2.0755  0.0506
15175TIP3    H267017   0.477   4.398  16.016  0.7447  1.7467  0.5362
15176TIP3   OH267018   0.048   5.307  13.699 -0.0169  0.3795  0.2187
15176TIP3    H167019   0.052   5.371  13.628 -0.7354  0.3932  0.1848
15176TIP3    H267020   0.138   5.279  13.711  0.2650  1.2018  0.0507
15177TIP3   OH267021   6.106   1.508  13.639 -0.1072  0.3176  0.0555
15177TIP3    H167022   6.163   1.488  13.713 -0.0169 -0.5546 -0.2364
15177TIP3    H267023   6.018   1.512  13.677 -0.0631 -0.1492  0.2086
15178TIP3   OH267024   2.677   2.362  14.392  0.5225  0.8110  0.2198
15178TIP3    H167025   2.624   2.413  14.453 -0.7381  1.0797 -1.0697
15178TIP3    H267026   2.651   2.394  14.306  0.0951 -1.6538 -0.5876
15179TIP3   OH267027   1.381   2.070   0.805 -0.2352 -0.5177  0.0835
15179TIP3    H167028   1.339   2.002   0.857 -1.4806 -0.1408 -0.4036
15179TIP3    H267029   1.351   2.054   0.715  1.4330 -0.8163 -0.4418
15180TIP3   OH267030   2.510   5.831   1.463  0.2188  0.2403  0.1849
15180TIP3    H167031   2.522   5.745   1.422  0.9936  0.7419 -0.6531
15180TIP3    H267032   2.572   5.831   1.536  1.0293  0.5144 -0.4977
15181TIP3   OH267033   0.277   3.200  13.593 -0.0241  0.0097  0.2452
15181TIP3    H167034   0.297   3.236  13.506 -0.6800  1.1762  0.5625
15181TIP3    H267035   0.183   3.214  13.603  0.6053  3.3145  2.6207
15182TIP3   OH267036   3.867   0.010  15.226 -0.0763  0.3367  0.3452
15182TIP3    H167037   3.864  -0.060  15.291  1.8257 -0.2668 -0.2036
15182TIP3    H267038   3.874  -0.035  15.142  1.6966  1.1751  0.0179
15183TIP3   OH267039   2.499   4.520   1.881  0.0747 -0.2600  0.2524
15183TIP3    H167040   2.462   4.607   1.897 -0.9695 -0.5172 -0.7354
15183TIP3    H267041   2.528   4.522   1.790  0.4453 -0.8160  0.3561
15184TIP3   OH267042   1.127   5.889  11.700 -0.0667  0.7812 -0.2575
15184TIP3    H167043   1.116   5.962  11.761  0.1338  0.3311  0.3251
15184TIP3    H267044   1.221   5.870  11.703 -0.4919 -1.2374  1.6339
15185TIP3   OH267045   3.582   4.055  13.492 -0.4402  0.1293 -0.0830
15185TIP3    H167046   3.592   4.146  13.463  2.6870  0.1589  0.9310
15185TIP3    H267047   3.647   4.044  13.561  0.3080 -3.3462 -1.2412
15186TIP3   OH267048   2.291   6.015  11.954  0.6321 -0.0176 -0.2714
15186TIP3    H167049   2.287   5.963  11.873  1.0068 -0.1413 -0.2099
15186TIP3    H267050   2.326   5.956  12.020  1.9665  0.5776 -0.4229
15187TIP3   OH267051   0.255   5.717  12.961  0.4342 -0.3180 -0.0838
15187TIP3    H167052   0.329   5.658  12.975  0.6538 -0.2372 -0.8798
15187TIP3    H267053   0.193   5.693  13.029  1.0329 -0.6447  0.3602
15188TIP3   OH267054   2.161   4.986  16.036 -0.1095 -0.2721  0.0383
15188TIP3    H167055   2.100   5.004  15.964 -1.4103 -0.4627  1.0649
15188TIP3    H267056   2.114   4.924  16.091  1.3617 -1.0666  0.4267
15189TIP3   OH267057   4.928   2.904   0.718  0.5754 -0.5849 -0.3979
15189TIP3    H167058   5.015   2.916   0.678  0.4259 -0.6449 -0.7448
15189TIP3    H267059   4.945   2.848   0.794  1.1795  1.2892  0.8850
15190TIP3   OH267060   0.784   4.822   1.186 -0.1662  0.0501 -0.3058
15190TIP3    H167061   0.832   4.853   1.263  0.1656 -0.8966 -0.1230
15190TIP3    H267062   0.702   4.788   1.221  0.3206 -1.1108 -0.2688
15191TIP3   OH267063   5.529   6.517  15.463  0.2495 -0.3465 -0.2876
15191TIP3    H167064   5.435   6.532  15.469  0.2710  0.6551 -1.9527
15191TIP3    H267065   5.550   6.462  15.538 -1.5522 -0.0388  0.4611
15192TIP3   OH267066   0.268   3.290   3.894  0.1044 -0.5267  0.1961
15192TIP3    H167067   0.257   3.311   3.801 -0.4544 -0.4587  0.2778
15192TIP3    H267068   0.343   3.231   3.896  0.9496  0.5184 -0.1573
15193TIP3   OH267069   0.399   6.766   0.119  1.0330 -0.2052  0.1639
15193TIP3    H167070   0.319   6.735   0.077  0.6306  1.9136 -0.7169
15193TIP3    H267071   0.449   6.807   0.048  1.8464  0.5086  1.1181
15194TIP3   OH267072   0.351   1.868  12.853  0.1322 -0.9791  0.3801
15194TIP3    H167073   0.346   1.848  12.947 -2.2756 -0.3283  0.4435
15194TIP3    H267074   0.373   1.961  12.849  2.6204 -1.5469  0.2315
15195TIP3   OH267075   6.434   0.043   5.011 -0.1767 -0.1907 -0.0633
15195TIP3    H167076   6.502  -0.022   5.030  0.4638  0.7403  0.8628
15195TIP3    H267077   6.415   0.084   5.095  0.5548  1.9139 -0.8930
15196TIP3   OH267078   0.118   1.096   0.847  0.2899 -0.7993 -0.0773
15196TIP3    H167079   0.147   1.045   0.923 -2.1314 -0.5995  1.0225
15196TIP3    H267080   0.083   1.177   0.885 -0.2977 -0.3970 -1.4559
15197TIP3   OH267081   0.672   6.404   4.824 -0.5141  0.5760 -0.3992
15197TIP3    H167082   0.712   6.461   4.758 -0.3819 -0.0328 -0.8449
15197TIP3    H267083   0.635   6.331   4.774  2.4736 -1.6130  0.4510
15198TIP3   OH267084   4.198   5.799  11.465 -0.1745 -0.0594 -0.0306
15198TIP3    H167085   4.278   5.819  11.417  1.2604 -1.1343  1.8364
15198TIP3    H267086   4.149   5.740  11.408  1.9977 -2.1681  0.2140
15199TIP3   OH267087   3.856   6.114  12.481 -0.2298  0.0496 -0.0415
15199TIP3    H167088   3.820   6.031  12.513 -0.0082 -0.7276 -1.7330
15199TIP3    H267089   3.781   6.158  12.439 -0.0720  0.1550 -0.2134
15200TIP3   OH267090   3.176   4.559   5.414  0.1333  0.5637 -0.1469
15200TIP3    H167091   3.187   4.477   5.366 -2.5526 -0.5857  1.0588
15200TIP3    H267092   3.162   4.531   5.505 -0.3322  2.3603  0.3439
15201TIP3   OH267093   1.076   1.287  14.040 -0.2680 -0.1729  0.1499
15201TIP3    H167094   1.073   1.243  13.955 -0.6758  0.1339  0.0029
15201TIP3    H267095   1.153   1.343  14.035 -0.7453  0.4397 -0.3136
15202TIP3   OH267096   1.518   5.311   0.972 -0.0053  0.5539 -0.0028
15202TIP3    H167097   1.485   5.397   0.945  0.6821  1.0865  0.8219
15202TIP3    H267098   1.455   5.280   1.037  0.7556  1.2888  1.1052
15203TIP3   OH267099   3.274   3.171   3.939  0.2230 -0.4694 -0.1854
15203TIP3    H167100   3.269   3.076   3.950  1.0845 -0.5120 -0.0901
15203TIP3    H267101   3.368   3.189   3.931  0.0567  0.3619 -0.3133
15204TIP3   OH267102   1.416   1.215   0.743  0.0413  0.4901  0.0224
15204TIP3    H167103   1.455   1.301   0.750 -1.2760  0.9677  2.0554
15204TIP3    H267104   1.382   1.196   0.831 -1.7597 -1.0774 -0.9441
15205TIP3   OH267105   6.617   1.708   3.869 -0.5667  0.2073 -0.0276
15205TIP3    H167106   6.597   1.737   3.958  2.2042  0.3725  0.5857
15205TIP3    H267107   6.603   1.613   3.871 -0.5804  0.2187  0.5674
15206TIP3   OH267108   1.619   3.782  13.800  0.6929 -0.2803 -0.0315
15206TIP3    H167109   1.604   3.696  13.761  0.6635 -0.4359  0.3120
15206TIP3    H267110   1.614   3.766  13.895  1.6661 -0.0861  0.0561
15207TIP3   OH267111   6.111   2.887   3.984  0.1020 -0.1733 -0.5222
15207TIP3    H167112   6.068   2.844   3.910  0.2344 -1.9854  0.4213
15207TIP3    H267113   6.141   2.815   4.039  0.7501  1.1397  0.8741
15208TIP3   OH267114   4.219   5.926   6.079  0.2668 -0.5451 -0.2305
15208TIP3    H167115   4.299   5.961   6.038  1.1349 -1.0429  1.0014
15208TIP3    H267116   4.149   5.950   6.018  0.8782  2.9399  0.2993
15209TIP3   OH267117   2.126   2.260  16.004  0.1938  0.0556  0.2156
15209TIP3    H167118   2.152   2.282  16.093  0.9735  0.7772 -0.1849
15209TIP3    H267119   2.094   2.170  16.010  0.6395 -0.0485  1.1455
15210TIP3   OH267120   3.305   1.867   1.921 -0.0466 -0.0590 -0.3659
15210TIP3    H167121   3.344   1.828   1.842  0.2369  2.0118 -1.2750
15210TIP3    H267122   3.232   1.919   1.888  0.8300  1.8102  0.6008
15211TIP3   OH267123   4.627   4.095   6.484 -0.4040  0.0028  0.0078
15211TIP3    H167124   4.662   4.010   6.456  1.7541  0.3647  1.4491
15211TIP3    H267125   4.699   4.135   6.533 -1.3404  2.7530 -0.7923
15212TIP3   OH267126   2.948   3.592  17.022 -0.3197 -0.3668 -0.1539
15212TIP3    H167127   2.973   3.557  16.937  0.2174  1.0928 -0.6063
15212TIP3    H267128   2.972   3.684  17.018  2.0043 -0.7869  2.4636
15213TIP3   OH267129   2.308   1.896   1.974 -0.1714 -0.1270  0.1258
15213TIP3    H167130   2.296   1.872   1.882  0.1023  0.5144 -0.0776
15213TIP3    H267131   2.261   1.828   2.023 -0.9594 -0.0463 -0.5163
15214TIP3   OH267132   4.284   5.406   5.420 -0.0329  0.4524  0.2581
15214TIP3    H167133   4.281   5.335   5.356  0.2545 -0.0629  0.8102
15214TIP3    H267134   4.254   5.366   5.502  0.4625  0.8764  0.6528
15215TIP3   OH267135   5.929   4.076  11.433  0.2239  0.5124 -0.2142
15215TIP3    H167136   5.930   4.057  11.339 -0.4989  0.4020 -0.2027
15215TIP3    H267137   5.849   4.034  11.465 -0.4126  1.9526  0.1529
15216TIP3   OH267138   6.671   1.286   1.238 -0.6222  0.2692  0.3027
15216TIP3    H167139   6.619   1.323   1.309  0.3661  0.1879  1.0752
15216TIP3    H267140   6.608   1.237   1.185 -1.2315 -0.4071  1.6232
15217TIP3   OH267141   2.294   5.507  15.350 -0.1185 -0.2241 -0.2000
15217TIP3    H167142   2.201   5.529  15.364 -0.1790 -1.0159  0.6849
15217TIP3    H267143   2.308   5.429  15.404  1.6175  1.1445  1.4066
15218TIP3   OH267144   2.177   2.621   1.331 -0.7074 -0.0650  0.2221
15218TIP3    H167145   2.091   2.659   1.349 -0.2366  1.0214  0.1822
15218TIP3    H267146   2.239   2.692   1.348  0.3669 -1.4733  2.5034
15219TIP3   OH267147   2.887   6.248  11.186 -0.4627  0.4540  0.0593
15219TIP3    H167148   2.898   6.202  11.103 -1.4155  0.2692  0.0336
15219TIP3    H267149   2.869   6.338  11.161  1.2001  0.8190  0.1071
15220TIP3   OH267150   6.495   3.392   4.351  0.0093 -0.5344 -0.6277
15220TIP3    H167151   6.524   3.407   4.441  1.6708  2.5676 -1.5861
15220TIP3    H267152   6.400   3.401   4.355  0.0063 -1.0581  0.9258
15221TIP3   OH267153   1.918   0.129  13.640 -0.3337 -0.4191 -0.1573
15221TIP3    H167154   1.997   0.175  13.613 -0.5246  0.0330  0.0668
15221TIP3    H267155   1.934   0.105  13.732 -0.2645 -0.7369 -0.2505
15222TIP3   OH267156   0.560   2.446   2.175  0.4602 -0.0005 -0.2583
15222TIP3    H167157   0.651   2.440   2.204 -0.0152  0.1747  1.3053
15222TIP3    H267158   0.564   2.497   2.094  1.4655  2.2561  1.1744
15223TIP3   OH267159   2.356   3.046  13.575  0.3365  0.2681  0.0477
15223TIP3    H167160   2.373   2.986  13.647  0.4855 -1.3465 -1.2974
15223TIP3    H267161   2.388   3.131  13.606  0.5438 -0.4349  1.8026
15224TIP3   OH267162   1.635   2.024  13.731 -1.0460 -0.6919 -0.2004
15224TIP3    H167163   1.569   2.074  13.683  0.1219  1.4454  0.3752
15224TIP3    H267164   1.594   1.939  13.746 -2.7997 -0.1669 -1.8156
15225TIP3   OH267165   2.713   6.011   5.177 -0.3029 -0.2228  0.8097
15225TIP3    H167166   2.679   5.922   5.171 -0.2359 -0.3663  2.3372
15225TIP3    H267167   2.778   6.007   5.247  1.6900  0.4182 -0.9144
15226TIP3   OH267168   0.599   0.540  13.171 -0.1038  0.3863  0.5587
15226TIP3    H167169   0.685   0.579  13.154 -0.8924  1.9954  0.0439
15226TIP3    H267170   0.583   0.555  13.264 -0.5363  1.6187  0.2968
15227TIP3   OH267171   4.672   0.914  16.380  0.2655  0.0445 -0.2990
15227TIP3    H167172   4.701   0.987  16.325  1.6410  0.6452  1.2021
15227TIP3    H267173   4.583   0.938  16.406  0.1234  0.4147 -1.1165
15228TIP3   OH267174   3.333   2.520  16.627 -0.2750 -0.4022  0.1903
15228TIP3    H167175   3.427   2.531  16.643  0.1153 -0.1344 -2.1068
15228TIP3    H267176   3.299   2.609  16.622 -0.1871 -0.4547 -1.4802
15229TIP3   OH267177   6.102   2.590   4.136  0.2558 -0.5001  0.3154
15229TIP3    H167178   6.021   2.640   4.146 -0.9624 -2.3169 -0.1588
15229TIP3    H267179   6.090   2.514   4.193  1.7676 -0.6120  0.4908
15230TIP3   OH267180   1.442   1.178   4.111  0.1644 -0.1543  0.2360
15230TIP3    H167181   1.526   1.216   4.136  0.3658 -0.3902 -0.0730
15230TIP3    H267182   1.457   1.144   4.023 -0.6161  0.9462 -0.3420
15231TIP3   OH267183   5.760   6.383   0.938  0.0976  0.7094 -0.1851
15231TIP3    H167184   5.821   6.368   0.865 -2.2031 -0.0172 -2.0087
15231TIP3    H267185   5.783   6.315   1.002  2.0265  1.2387 -0.2880
15232TIP3   OH267186   2.065   3.064  15.361  0.6082  0.5063 -0.3923
15232TIP3    H167187   1.970   3.067  15.375  0.6099 -0.2662 -0.2391
15232TIP3    H267188   2.074   3.062  15.266  0.4745  0.4832 -0.4048
15233TIP3   OH267189   3.276   6.584   0.236 -0.3812 -0.1228 -0.3386
15233TIP3    H167190   3.216   6.517   0.202  0.1246 -0.7218 -0.0684
15233TIP3    H267191   3.352   6.534   0.267  0.9514  0.7464 -2.1137
15234TIP3   OH267192   4.447   0.331  11.475  0.2014  0.4520  0.0139
15234TIP3    H167193   4.447   0.243  11.512  3.0679  0.0118 -0.8632
15234TIP3    H267194   4.498   0.383  11.537 -1.5798  1.5524  0.5861
15235TIP3   OH267195   6.561   5.794  14.920  0.2210 -0.1005  0.3557
15235TIP3    H167196   6.639   5.740  14.913  0.7082  0.4982  1.0574
15235TIP3    H267197   6.540   5.795  15.013 -0.1990  0.3252  0.2613
15236TIP3   OH267198   2.551   5.493  11.199  0.9050  0.7646 -0.5979
15236TIP3    H167199   2.626   5.440  11.172 -0.3544 -1.2548 -0.2041
15236TIP3    H267200   2.492   5.491  11.123  0.7246  1.3986 -0.4805
15237TIP3   OH267201   3.749   3.059  11.199  0.1903  1.3501 -0.4079
15237TIP3    H167202   3.831   3.107  11.206  1.4097 -0.5588 -1.0916
15237TIP3    H267203   3.771   2.981  11.148 -1.0411 -1.4175  3.0795
15238TIP3   OH267204   4.454   4.947  14.172 -0.1351 -0.4081  0.7594
15238TIP3    H167205   4.488   4.989  14.093  0.5002  0.1005  1.3055
15238TIP3    H267206   4.395   5.012  14.210 -3.0082 -1.8369 -1.0087
15239TIP3   OH267207   2.341   1.078   1.829 -0.0040 -0.4403  0.6688
15239TIP3    H167208   2.273   1.115   1.885 -0.9617  1.9394 -1.9383
15239TIP3    H267209   2.304   0.993   1.802 -1.2100  0.0880  0.6041
15240TIP3   OH267210   5.949   2.169   3.565  0.0449 -0.5802  0.2205
15240TIP3    H167211   5.976   2.087   3.523 -0.6427 -0.3072 -0.7782
15240TIP3    H267212   5.942   2.231   3.493  2.9847  1.0428  1.2440
15241TIP3   OH267213   6.160   0.767   6.248  0.2733 -0.4729  0.3765
15241TIP3    H167214   6.091   0.770   6.314  1.2300 -1.1754  1.4309
15241TIP3    H267215   6.220   0.837   6.273  0.5506 -0.6322  0.1644
15242TIP3   OH267216   5.057   3.699  15.389 -0.1025 -0.2856  0.2838
15242TIP3    H167217   5.057   3.721  15.295 -0.5153 -0.6028  0.2086
15242TIP3    H267218   4.977   3.739  15.422  0.9173  1.3508  0.8662
15243TIP3   OH267219   0.305   2.022   4.261  0.1237  0.5273  0.7656
15243TIP3    H167220   0.232   2.046   4.204  1.0432  0.9910 -0.2554
15243TIP3    H267221   0.335   2.105   4.298  0.3537  0.3829  0.9072
15244TIP3   OH267222   6.027   4.805  16.492  0.0256  0.0760  0.3344
15244TIP3    H167223   6.093   4.857  16.448 -1.2644  0.9925 -0.5443
15244TIP3    H267224   6.050   4.809  16.585  2.2111 -1.0941 -0.1390
15245TIP3   OH267225   6.699   2.554   4.810 -0.1807 -0.1893  0.2986
15245TIP3    H167226   6.682   2.646   4.832  2.2608  0.2509  0.5191
15245TIP3    H267227   6.620   2.508   4.838 -0.9915  1.6780  1.2331
15246TIP3   OH267228   4.621   6.705   4.460  0.2713  0.1804  0.0771
15246TIP3    H167229   4.582   6.777   4.509  0.1650  0.6665 -0.7097
15246TIP3    H267230   4.703   6.687   4.505  0.2860  0.7724  0.2917
15247TIP3   OH267231   1.275   4.128  10.670  0.1345 -0.2447  0.1796
15247TIP3    H167232   1.183   4.113  10.647  0.2146 -0.1509 -0.2183
15247TIP3    H267233   1.272   4.174  10.754 -0.2890  2.2183 -1.1195
15248TIP3   OH267234   0.822   3.182  15.024 -0.1764  0.3930 -0.3127
15248TIP3    H167235   0.761   3.148  15.089  0.5816  0.4986  0.4547
15248TIP3    H267236   0.768   3.238  14.968 -0.5285  1.5951  1.1890
15249TIP3   OH267237   2.909   3.728   3.231 -0.0982  0.2889  0.2265
15249TIP3    H167238   2.939   3.716   3.141 -0.2148  0.7169  0.1335
15249TIP3    H267239   2.990   3.743   3.281  0.2354 -2.4476  0.6106
15250TIP3   OH267240   3.438   2.418   3.937 -0.2309  0.0056 -0.4231
15250TIP3    H167241   3.441   2.465   3.854 -0.0312 -0.3768 -0.6339
15250TIP3    H267242   3.530   2.412   3.964 -0.4053  1.2637  0.4682
15251TIP3   OH267243   5.975   3.487   4.769  0.3472  0.5172  0.1363
15251TIP3    H167244   5.979   3.582   4.761 -0.3642  0.6304  1.1772
15251TIP3    H267245   6.025   3.467   4.848 -0.2553  0.0923  0.4112
15252TIP3   OH267246   4.016   3.257  15.125  0.4027  0.0780 -0.3255
15252TIP3    H167247   3.932   3.215  15.143  0.6776 -0.3920 -0.1619
15252TIP3    H267248   4.024   3.324  15.193  0.9769 -1.0319  0.6961
15253TIP3   OH267249   4.276   2.205   1.678 -0.0632  0.0749 -0.2494
15253TIP3    H167250   4.328   2.244   1.748  0.6420 -0.7378 -0.3215
15253TIP3    H267251   4.327   2.219   1.598  0.5457 -1.6119 -0.1760
15254TIP3   OH267252   5.089   5.339  14.850 -0.2175  0.3569  0.2192
15254TIP3    H167253   5.060   5.344  14.758  0.4161 -0.2332 -0.0158
15254TIP3    H267254   5.080   5.428  14.883 -0.9459  0.4714 -0.2647
15255TIP3   OH267255   1.908   6.468  17.247 -0.1782  0.3525 -0.2498
15255TIP3    H167256   1.964   6.483  17.171 -2.3618  1.2677 -1.7061
15255TIP3    H267257   1.898   6.373  17.251  0.7257  0.2439 -0.5314
15256TIP3   OH267258   6.427   1.332   2.799  0.3814  1.0482  0.6930
15256TIP3    H167259   6.519   1.314   2.780  0.2130  1.1062 -0.1914
15256TIP3    H267260   6.415   1.302   2.889  1.3022  1.1823  0.8607
15257TIP3   OH267261   1.205   1.333   6.088 -0.2428 -0.0130  0.1651
15257TIP3    H167262   1.268   1.290   6.031  0.4725  1.2513 -0.0162
15257TIP3    H267263   1.255   1.401   6.132 -0.9618 -0.4853  1.7473
15258TIP3   OH267264   3.228   3.235  16.698 -0.1962  0.0114 -0.1523
15258TIP3    H167265   3.175   3.225  16.777  2.4346  2.1415  2.0223
15258TIP3    H267266   3.292   3.164  16.703 -1.0834 -0.8616 -1.2590
15259TIP3   OH267267   3.814   3.731  16.664  0.2373  0.5843  0.3129
15259TIP3    H167268   3.834   3.672  16.737  0.9292 -1.1951 -1.2845
15259TIP3    H267269   3.719   3.740  16.666  0.3226  1.3085  2.0063
15260TIP3   OH267270   4.699   2.798  14.340 -0.3615  0.3980 -0.1629
15260TIP3    H167271   4.611   2.783  14.374 -0.0169  0.4612  0.7599
15260TIP3    H267272   4.737   2.862  14.400  0.0007  1.0398 -1.0691
15261TIP3   OH267273   1.103   2.533  17.032 -0.1709 -0.2687 -0.3236
15261TIP3    H167274   1.170   2.465  17.042  0.0651  0.1817  1.3045
15261TIP3    H267275   1.099   2.549  16.937  0.8362 -1.4798 -0.5790
15262TIP3   OH267276   3.673   5.556   0.163 -0.3605 -0.5529 -0.0175
15262TIP3    H167277   3.674   5.584   0.072  0.8307  0.2202  0.2232
15262TIP3    H267278   3.631   5.628   0.210 -1.5075 -1.2027 -0.0203
15263TIP3   OH267279   5.138   6.157  14.734  0.0857 -0.0330 -0.7652
15263TIP3    H167280   5.157   6.230  14.793  0.3018 -0.8375  0.1743
15263TIP3    H267281   5.051   6.127  14.759  0.3216 -0.6004 -0.6065
15264TIP3   OH267282   3.662   5.823   5.025  0.1259 -0.1039  0.0236
15264TIP3    H167283   3.711   5.743   5.045  0.3334 -0.2521 -1.0751
15264TIP3    H267284   3.598   5.796   4.959  1.0551  0.9287 -1.3150
15265TIP3   OH267285   2.723   0.740   0.544  0.2038 -0.1571  0.0820
15265TIP3    H167286   2.657   0.731   0.613  1.1031 -0.6045  0.8850
15265TIP3    H267287   2.782   0.666   0.558  0.6151 -0.0229 -0.9235
15266TIP3   OH267288   6.651   4.548  10.535 -0.5680  0.3760 -0.2796
15266TIP3    H167289   6.636   4.516  10.447  1.3441 -1.5166  0.0349
15266TIP3    H267290   6.711   4.485  10.574  0.0713  2.1581  1.7681
15267TIP3   OH267291   0.373   3.952   1.052 -0.2427 -0.7068  0.4090
15267TIP3    H167292   0.396   4.038   1.086  0.7552 -1.1334  0.8117
15267TIP3    H267293   0.449   3.897   1.070 -0.7605 -1.6067 -0.0979
15268TIP3   OH267294   2.377   6.593   0.136 -0.2269 -0.3560 -0.5484
15268TIP3    H167295   2.296   6.615   0.182  0.0270  1.3410 -0.8889
15268TIP3    H267296   2.415   6.677   0.111  1.6769 -1.1147 -0.3597
15269TIP3   OH267297   2.564   5.250  16.720  0.0946 -0.1486 -0.4742
15269TIP3    H167298   2.521   5.312  16.662 -0.9790 -0.2459  0.2031
15269TIP3    H267299   2.647   5.229  16.676 -0.1823  0.6560 -1.3946
15270TIP3   OH267300   0.870   1.037  17.228 -0.2206 -0.1592  0.7915
15270TIP3    H167301   0.859   1.101  17.298 -0.3098  0.4667  0.2060
15270TIP3    H267302   0.951   1.062  17.185  0.3824 -1.1737  1.3227
15271TIP3   OH267303   3.340   1.510  17.253  0.0008 -0.2796  0.0985
15271TIP3    H167304   3.425   1.499  17.296  0.6643  2.6728 -0.3629
15271TIP3    H267305   3.276   1.498  17.322  0.7893 -2.1055  0.5400
15272TIP3   OH267306   2.303   4.017   6.320 -0.5054  0.3894 -0.6137
15272TIP3    H167307   2.395   4.026   6.296 -1.2052  1.7389 -2.9093
15272TIP3    H267308   2.273   4.107   6.333 -0.9590 -0.1476  2.3745
15273TIP3   OH267309   4.649   1.215  14.255  0.5874  0.2683 -0.2700
15273TIP3    H167310   4.683   1.128  14.274  1.6504  0.7615  0.1157
15273TIP3    H267311   4.703   1.247  14.182 -0.6977  0.0633 -1.3399
15274TIP3   OH267312   6.690   5.603   2.708  0.0156  0.3208  0.1470
15274TIP3    H167313   6.643   5.684   2.686 -2.5770 -0.7632  1.3950
15274TIP3    H267314   6.682   5.597   2.803  1.9080 -0.4221  0.2799
15275TIP3   OH267315   1.451   5.548  13.280 -0.4866  0.2462  0.3195
15275TIP3    H167316   1.479   5.511  13.364  0.6594 -1.5198 -0.7969
15275TIP3    H267317   1.517   5.516  13.217 -1.5878  1.1511 -1.3170
15276TIP3   OH267318   0.015   3.142   3.890  0.0032  0.1894  0.8013
15276TIP3    H167319  -0.070   3.178   3.915  0.0738 -0.0785  1.4311
15276TIP3    H267320   0.077   3.213   3.909 -0.0728  0.3727  0.3725
15277TIP3   OH267321   4.571   0.081   5.093 -0.3356  0.0659 -0.5223
15277TIP3    H167322   4.546  -0.012   5.102  2.2289 -0.4540  2.1531
15277TIP3    H267323   4.495   0.122   5.052 -1.2950 -3.3301 -2.3608
15278TIP3   OH267324   2.066   5.099   1.763 -0.8627  0.4559 -0.1522
15278TIP3    H167325   2.013   5.165   1.808  0.4133  1.5870 -0.2848
15278TIP3    H267326   2.009   5.069   1.692 -1.5406  1.2745  0.0209
15279TIP3   OH267327   3.652   2.767   0.736  0.1470 -0.1471  0.4306
15279TIP3    H167328   3.630   2.705   0.667 -0.7323 -0.0961  0.6612
15279TIP3    H267329   3.692   2.713   0.805  2.7439  0.0511 -0.8509
15280TIP3   OH267330   0.169   4.959   0.618 -0.0074 -0.2216 -0.0179
15280TIP3    H167331   0.171   4.930   0.709 -1.3422  1.6776  0.6442
15280TIP3    H267332   0.204   5.048   0.620 -0.0744 -0.1486 -1.3639
15281TIP3   OH267333   5.373   6.795   5.778 -0.3883 -0.5322 -0.3056
15281TIP3    H167334   5.416   6.834   5.854  0.3035 -0.8578 -0.5265
15281TIP3    H267335   5.283   6.782   5.806 -0.5559  0.9334 -0.1155
15282TIP3   OH267336   2.642   5.135   2.363 -0.2577 -0.2498  0.4572
15282TIP3    H167337   2.640   5.050   2.407 -0.8437 -0.6567 -0.3407
15282TIP3    H267338   2.590   5.122   2.283  0.9816  0.4133 -0.4776
15283TIP3   OH267339   1.179   1.424   1.679  0.3960 -0.6129  0.1490
15283TIP3    H167340   1.133   1.483   1.739  0.7974 -0.2248  0.0833
15283TIP3    H267341   1.267   1.418   1.715  0.9161  0.3861 -0.9200
15284TIP3   OH267342   2.352   1.258  12.371  0.2221  0.4982 -0.1949
15284TIP3    H167343   2.318   1.346  12.358 -1.0193  0.1193  0.4107
15284TIP3    H267344   2.275   1.204  12.386  0.9905 -0.6398 -0.2329
15285TIP3   OH267345   0.575   3.005   5.442 -0.2370  1.0289  0.0689
15285TIP3    H167346   0.523   2.987   5.521 -2.2534  2.7689 -0.8265
15285TIP3    H267347   0.538   2.947   5.376  0.7962  0.2970  0.1202
15286TIP3   OH267348   3.264   1.956   0.992  0.5084  0.0352  0.1591
15286TIP3    H167349   3.206   2.013   1.042 -0.4190  0.8645 -1.7802
15286TIP3    H267350   3.343   2.009   0.977 -0.2782  0.8006 -1.4811
15287TIP3   OH267351   0.848   0.244  13.402  0.0410 -0.7899 -0.0887
15287TIP3    H167352   0.785   0.299  13.448  1.3164  0.1507  0.5548
15287TIP3    H267353   0.806   0.158  13.399 -1.8001  0.0911 -0.7616
15288TIP3   OH267354   4.893   3.371   1.758  0.3168 -0.1837 -0.0381
15288TIP3    H167355   4.888   3.401   1.849  0.7373  0.0198 -0.0798
15288TIP3    H267356   4.881   3.451   1.706 -2.0831 -0.6114 -0.1875
15289TIP3   OH267357   1.945   2.828  16.984 -0.2894  0.3629  0.0561
15289TIP3    H167358   1.884   2.818  17.057 -1.8667  1.4942 -1.0738
15289TIP3    H267359   1.894   2.871  16.916  1.7923  1.3639 -0.9178
15290TIP3   OH267360   3.883   4.617   1.482  0.3587  0.7647 -0.3871
15290TIP3    H167361   3.894   4.600   1.575  0.7379  0.2062 -0.5292
15290TIP3    H267362   3.915   4.537   1.439 -0.9878  0.4918 -0.9416
15291TIP3   OH267363   0.638   2.872   1.903 -0.0796  0.0844  0.0875
15291TIP3    H167364   0.709   2.931   1.879 -0.4130  0.6061  0.3664
15291TIP3    H267365   0.562   2.907   1.857  0.1343 -1.2965 -1.3511
15292TIP3   OH267366   0.455   0.494  14.986 -0.2428  0.2990  0.4166
15292TIP3    H167367   0.409   0.454  15.060 -0.6194  1.0987  0.6194
15292TIP3    H267368   0.545   0.465  14.995 -0.5847 -0.7929  0.3632
15293TIP3   OH267369   3.954   3.217   3.154 -0.2926  0.0472  0.5071
15293TIP3    H167370   4.048   3.220   3.169  0.0621  0.4934 -1.6097
15293TIP3    H267371   3.916   3.262   3.230  1.1901 -0.0662  1.3347
15294TIP3   OH267372   4.185   2.002  10.746  0.4118  0.0353  0.1585
15294TIP3    H167373   4.269   2.049  10.745 -0.6540  2.0306  0.4398
15294TIP3    H267374   4.129   2.053  10.688 -0.2040 -2.0959 -1.1496
15295TIP3   OH267375   6.782   2.050   0.750  0.2753  0.1839 -0.2403
15295TIP3    H167376   6.766   2.094   0.833  0.9059 -1.4397  0.7628
15295TIP3    H267377   6.825   2.116   0.696  1.3911  0.7466  1.2940
15296TIP3   OH267378   4.821   5.515  16.572  0.2581 -0.1157  0.2113
15296TIP3    H167379   4.861   5.520  16.485  0.3354  0.3420  0.2710
15296TIP3    H267380   4.729   5.495  16.554  0.2699 -0.0006  0.0226
15297TIP3   OH267381   2.140   5.882   3.651 -0.2370  0.5421 -0.6619
15297TIP3    H167382   2.234   5.870   3.667 -0.7536  0.1164  2.5090
15297TIP3    H267383   2.125   5.843   3.565  2.6043  1.2515 -1.5304
15298TIP3   OH267384   6.583   5.684  15.918 -0.2044 -0.0014  0.1190
15298TIP3    H167385   6.615   5.752  15.858  0.5171 -0.2433  0.2335
15298TIP3    H267386   6.623   5.705  16.002 -1.5315  0.5726  0.6311
15299TIP3   OH267387   3.882   3.412  14.927 -0.1473  0.1907 -0.0700
15299TIP3    H167388   3.942   3.426  15.001  1.1605  0.1108 -1.0946
15299TIP3    H267389   3.890   3.319  14.908 -1.0001  0.0771  0.1121
15300TIP3   OH267390   5.670   6.450   0.498 -0.0675 -0.1707 -0.0361
15300TIP3    H167391   5.734   6.516   0.525 -0.0009  0.2441 -1.1804
15300TIP3    H267392   5.690   6.374   0.552  0.4449  0.4421  0.6504
15301TIP3   OH267393   0.875   3.127  14.295  0.5023  0.3565 -0.2860
15301TIP3    H167394   0.849   3.057  14.235  0.7230 -1.1242  1.2874
15301TIP3    H267395   0.843   3.098  14.381  2.6628  1.0550  0.7978
15302TIP3   OH267396   6.115   1.527  10.791 -0.2146  0.1189  0.0963
15302TIP3    H167397   6.185   1.472  10.756  0.9312  1.4605  0.2733
15302TIP3    H267398   6.146   1.555  10.877 -1.6138 -0.4627  0.8254
15303TIP3   OH267399   0.610   6.480   1.539 -0.2869 -0.5844 -0.4626
15303TIP3    H167400   0.556   6.545   1.495 -1.2720 -1.4026 -0.4914
15303TIP3    H267401   0.659   6.438   1.468  0.6884  0.4377 -0.3910
15304TIP3   OH267402   6.033   2.036  15.106 -0.1839 -0.6996 -0.2974
15304TIP3    H167403   6.028   2.080  15.021 -0.6522 -2.1321 -1.0314
15304TIP3    H267404   6.125   2.041  15.131 -0.3896  1.5276  0.0901
15305TIP3   OH267405   5.040   0.360   5.003 -1.0056 -0.3530  0.4508
15305TIP3    H167406   4.966   0.411   5.035 -0.9742  0.5285 -0.8517
15305TIP3    H267407   5.002   0.276   4.975 -1.3811 -0.2103  0.5358
15306TIP3   OH267408   4.768   2.131  11.649 -0.5891  0.0941  0.1435
15306TIP3    H167409   4.772   2.224  11.670  0.0902 -0.0695  0.7713
15306TIP3    H267410   4.845   2.117  11.593 -0.9357 -0.0042 -0.3106
15307TIP3   OH267411   5.090   0.182   6.333  0.1591 -0.1639 -0.2059
15307TIP3    H167412   5.061   0.211   6.419  1.8446  1.5594 -0.1842
15307TIP3    H267413   5.031   0.226   6.272  0.0849  0.0067 -0.0112
15308TIP3   OH267414   1.133   1.897   3.008 -0.0452 -0.2351 -0.3806
15308TIP3    H167415   1.178   1.963   2.953  1.2657 -1.2557 -0.5624
15308TIP3    H267416   1.166   1.914   3.096  0.1811 -0.5449 -0.4046
15309TIP3   OH267417   0.203   6.792   3.723  0.1284 -0.3198  0.7011
15309TIP3    H167418   0.177   6.879   3.753 -0.1171 -0.1156 -0.1085
15309TIP3    H267419   0.166   6.784   3.636 -0.6127 -1.5954  1.1201
15310TIP3   OH267420   6.807   4.896  11.568 -0.3562  0.3934  0.2314
15310TIP3    H167421   6.801   4.801  11.566 -0.1143  0.4032 -1.4754
15310TIP3    H267422   6.774   4.925  11.484 -0.7233  1.8516  0.8516
15311TIP3   OH267423   3.089   2.351  12.752 -0.1907 -0.1510 -0.1633
15311TIP3    H167424   3.175   2.377  12.717 -0.7449  0.9834 -0.7235
15311TIP3    H267425   3.102   2.346  12.846  0.5463 -0.1964 -0.2616
15312TIP3   OH267426   5.615   3.518  12.514  0.4737  0.0974 -0.5663
15312TIP3    H167427   5.546   3.577  12.545 -2.0919 -2.7896 -0.5387
15312TIP3    H267428   5.659   3.567  12.444 -1.2138  2.2115 -0.2238
15313TIP3   OH267429   0.654   3.425   3.920  0.4629  0.1419 -0.5030
15313TIP3    H167430   0.681   3.475   3.997 -0.6739 -1.0110  0.6676
15313TIP3    H267431   0.731   3.373   3.898  0.0172 -1.3971  1.4072
15314TIP3   OH267432   1.708   2.671   2.945 -0.2386 -0.3846 -0.1313
15314TIP3    H167433   1.638   2.735   2.958 -0.2432 -0.4633  0.2353
15314TIP3    H267434   1.694   2.606   3.013 -0.4222 -0.9483 -0.6970
15315TIP3   OH267435   2.483   1.154   5.356  0.6343 -0.1850 -0.6508
15315TIP3    H167436   2.440   1.201   5.428  1.4892 -0.7777  0.2650
15315TIP3    H267437   2.413   1.132   5.296  0.0286  1.1026 -0.4281
15316TIP3   OH267438   6.042   1.319  11.442 -0.3887 -0.2774 -0.1370
15316TIP3    H167439   6.063   1.245  11.500 -1.0512 -0.9381 -0.7318
15316TIP3    H267440   6.097   1.305  11.365  0.3640  0.5070  0.2533
15317TIP3   OH267441   1.841   1.949   1.428  0.1363 -0.1434 -0.2160
15317TIP3    H167442   1.834   1.856   1.410  1.7419  0.0215 -1.8227
15317TIP3    H267443   1.780   1.991   1.367  0.6724 -0.0325 -0.6794
15318TIP3   OH267444   2.996   2.002   4.144  0.4204  0.0710  0.7000
15318TIP3    H167445   3.082   1.971   4.114  0.1724  1.0243 -1.0526
15318TIP3    H267446   2.988   2.090   4.108 -1.7698 -0.4165 -0.0921
15319TIP3   OH267447   3.350   6.448  13.910 -0.1321 -0.0701 -0.0628
15319TIP3    H167448   3.321   6.400  13.987  0.6295 -3.5120 -1.8320
15319TIP3    H267449   3.270   6.458  13.857 -0.2184  0.3292  0.1396
15320TIP3   OH267450   1.595   6.591  15.063 -0.2604  0.2139  0.3939
15320TIP3    H167451   1.651   6.517  15.040  0.3465  0.1535  1.9641
15320TIP3    H267452   1.510   6.571  15.024  0.3331 -0.5557 -0.5065
15321TIP3   OH267453   1.614   3.470  13.348 -0.0791  0.2510  0.5821
15321TIP3    H167454   1.551   3.541  13.359 -0.0645 -0.0082  2.3849
15321TIP3    H267455   1.579   3.398  13.399  0.5245 -0.6616 -0.2640
15322TIP3   OH267456   3.542   0.378  15.199  0.9589  0.2510  0.1645
15322TIP3    H167457   3.595   0.436  15.145  1.1222 -0.1165 -0.0750
15322TIP3    H267458   3.606   0.323  15.245  0.9165  2.3112  2.7288
15323TIP3   OH267459   6.704   3.040   5.246 -0.2317  0.3323 -0.0904
15323TIP3    H167460   6.644   2.996   5.186 -1.3980  2.8024 -0.8152
15323TIP3    H267461   6.790   3.006   5.223 -1.0628 -1.4192 -0.7148
15324TIP3   OH267462   6.143   1.002  14.946  0.1187 -0.2114  0.3118
15324TIP3    H167463   6.104   1.060  14.881 -1.6433 -0.5381  1.0232
15324TIP3    H267464   6.182   0.931  14.895  0.2877  0.4335 -0.4624
15325TIP3   OH267465   2.058   0.508   0.840 -0.4969 -0.2674  0.5766
15325TIP3    H167466   2.150   0.484   0.850 -0.0642  0.4417 -1.4541
15325TIP3    H267467   2.026   0.519   0.930  1.3775 -0.5232  1.3002
15326TIP3   OH267468   3.599   1.844  16.762  0.0480 -0.2700 -0.4569
15326TIP3    H167469   3.694   1.835  16.751 -0.1516 -2.8706 -0.4310
15326TIP3    H267470   3.587   1.866  16.854  0.6631  1.2694 -0.7241
15327TIP3   OH267471   1.488   3.514  14.761  0.5497  0.1704 -0.3811
15327TIP3    H167472   1.480   3.569  14.683  0.1674  1.2515  0.4113
15327TIP3    H267473   1.581   3.519  14.785  0.9706 -1.3602 -1.6167
15328TIP3   OH267474   1.185   6.815   4.020  0.3838 -0.6039 -0.5502
15328TIP3    H167475   1.253   6.871   4.057 -1.3396  1.0625  0.2182
15328TIP3    H267476   1.178   6.841   3.929 -1.0171  1.1115  0.0172
15329TIP3   OH267477   6.267   6.378  10.498 -0.0740 -0.0228 -0.5913
15329TIP3    H167478   6.266   6.434  10.576 -1.9035 -1.0227  0.1454
15329TIP3    H267479   6.283   6.437  10.425 -1.6862  1.4259  0.2097
15330TIP3   OH267480   4.311   5.352  11.686 -0.0298  0.2519  0.1562
15330TIP3    H167481   4.299   5.356  11.781  1.0614 -0.7353  0.3406
15330TIP3    H267482   4.247   5.287  11.656 -0.0707  0.2459  0.2572
15331TIP3   OH267483   3.124   4.790   4.090 -0.4846  0.2129  0.2651
15331TIP3    H167484   3.075   4.737   4.153 -2.4691 -0.6904 -1.9752
15331TIP3    H267485   3.098   4.880   4.109 -1.0450 -0.0510  0.7494
15332TIP3   OH267486   2.197   6.403   3.247  0.4768  0.2807 -0.4203
15332TIP3    H167487   2.199   6.443   3.333  1.3040 -2.1710  0.7396
15332TIP3    H267488   2.275   6.435   3.203 -1.4739  3.9269 -1.4404
15333TIP3   OH267489   0.113   3.642   5.660  0.0415  0.0267  0.2983
15333TIP3    H167490   0.070   3.682   5.584 -0.4570  0.1871  0.6563
15333TIP3    H267491   0.093   3.549   5.652  0.1918  0.0114  0.1025
15334TIP3   OH267492   2.300   5.786   3.359 -0.0182  0.4655  0.5194
15334TIP3    H167493   2.333   5.863   3.313  1.5145  1.3311  3.0010
15334TIP3    H267494   2.207   5.803   3.372 -0.1292  0.9146 -0.8417
15335TIP3   OH267495   4.952   4.604   4.021 -0.4601  0.3848  0.0561
15335TIP3    H167496   5.039   4.589   3.985  0.0597  2.8528  0.1974
15335TIP3    H267497   4.960   4.583   4.114  0.3244  1.6781  0.3058
15336TIP3   OH267498   3.619   2.038  13.372  0.1202 -0.0268 -0.7626
15336TIP3    H167499   3.568   1.971  13.416  0.6753 -0.1754 -0.3285
15336TIP3    H267500   3.565   2.117  13.375 -1.4483 -0.9749 -3.1821
15337TIP3   OH267501   0.290   0.148  16.412 -0.1117  0.3714 -0.2083
15337TIP3    H167502   0.307   0.229  16.460  1.4526  0.6664 -1.2226
15337TIP3    H267503   0.309   0.079  16.475  1.6216  0.7648 -0.2628
15338TIP3   OH267504   5.192   1.481   0.227  0.4001  0.0356 -0.1757
15338TIP3    H167505   5.209   1.500   0.134  1.9058 -2.3319 -0.4269
15338TIP3    H267506   5.097   1.469   0.231  0.1764  1.3198 -1.1672
15339TIP3   OH267507   5.850   0.458  14.703  0.2117 -0.9627 -0.0489
15339TIP3    H167508   5.903   0.526  14.744 -2.8234  1.5499 -0.1348
15339TIP3    H267509   5.801   0.419  14.776  0.7963 -2.0260 -0.2112
15340TIP3   OH267510   2.416   3.926  17.258 -0.4293  0.3870  0.2239
15340TIP3    H167511   2.409   3.989  17.187 -1.7535 -1.6859 -1.5560
15340TIP3    H267512   2.496   3.877  17.238 -1.6577 -1.2585 -0.7723
15341TIP3   OH267513   0.534   6.094  12.436  0.0796  0.1568 -0.2549
15341TIP3    H167514   0.534   6.116  12.529  0.3926  0.7210 -0.3910
15341TIP3    H267515   0.613   6.041  12.423 -0.2478 -0.3843 -0.0975
15342TIP3   OH267516   2.104   2.229  14.847 -0.2039 -0.0801  0.2360
15342TIP3    H167517   2.174   2.201  14.788 -1.1962 -1.0254 -0.5280
15342TIP3    H267518   2.138   2.306  14.891  1.3747 -0.6203 -0.0188
15343TIP3   OH267519   1.946   0.213   5.374 -0.0151 -0.0644 -0.5062
15343TIP3    H167520   2.039   0.226   5.356  1.0021 -2.6803  2.3926
15343TIP3    H267521   1.903   0.291   5.340  3.2595  1.2963 -1.6722
15344TIP3   OH267522   1.086   5.513  14.936  0.0127 -0.2662 -0.1367
15344TIP3    H167523   1.161   5.460  14.910  1.7451  1.0762  2.0175
15344TIP3    H267524   1.066   5.484  15.025 -0.4784  1.1190  0.2102
15345TIP3   OH267525   3.791   4.977   6.569  0.2977 -0.0161  0.5074
15345TIP3    H167526   3.873   4.934   6.545  0.6236  1.3551 -0.8602
15345TIP3    H267527   3.724   4.933   6.517  0.2983 -0.4517  0.8719
15346TIP3   OH267528   4.292   6.416   2.915 -0.0284 -0.1577  0.0484
15346TIP3    H167529   4.290   6.486   2.980  0.4554 -0.2390  0.1579
15346TIP3    H267530   4.330   6.341   2.963  1.1875  0.0422 -0.5742
15347TIP3   OH267531   1.414   3.436  16.293 -0.0688 -0.3396  0.3128
15347TIP3    H167532   1.344   3.492  16.327 -0.9002 -1.4271  0.4247
15347TIP3    H267533   1.414   3.452  16.199 -1.0579 -0.9645  0.1938
15348TIP3   OH267534   2.590   4.787   0.941 -0.3141 -0.1677 -0.1628
15348TIP3    H167535   2.671   4.736   0.947  0.4385  1.1451  1.1178
15348TIP3    H267536   2.537   4.758   1.015 -0.7357 -0.5367 -0.6067
15349TIP3   OH267537   4.784   4.184   4.376  0.1494  0.1539 -0.1803
15349TIP3    H167538   4.694   4.214   4.364 -0.1317  0.1994  1.8851
15349TIP3    H267539   4.776   4.098   4.417  1.0394 -0.1801 -0.6873
15350TIP3   OH267540   4.430   2.282   1.406 -0.6457 -0.7644  0.0838
15350TIP3    H167541   4.506   2.266   1.462 -1.3741 -1.2763  0.9246
15350TIP3    H267542   4.438   2.218   1.335  0.2209 -0.1815 -0.3593
15351TIP3   OH267543   2.719   2.690   0.853  0.3842 -0.3042 -0.1662
15351TIP3    H167544   2.651   2.683   0.920  0.9501 -2.4971  0.2077
15351TIP3    H267545   2.798   2.655   0.895  1.0614 -0.4519 -1.5273
15352TIP3   OH267546   3.668   1.880  13.764 -0.0377  0.3983 -0.0358
15352TIP3    H167547   3.691   1.971  13.744  0.7918  0.4017  0.8897
15352TIP3    H267548   3.740   1.848  13.819 -0.1007 -0.9516 -0.7016
15353TIP3   OH267549   3.500   4.182  14.436  0.8399 -0.5307 -0.0840
15353TIP3    H167550   3.502   4.258  14.494 -0.0592  0.9077 -1.8938
15353TIP3    H267551   3.552   4.116  14.482  1.0055  0.8982  1.8743
15354TIP3   OH267552   5.957   4.782  15.378 -0.2808 -0.0518  0.3984
15354TIP3    H167553   5.950   4.830  15.460  1.1932 -0.3352  0.7041
15354TIP3    H267554   6.051   4.773  15.364 -0.5250 -0.1138 -1.2571
15355TIP3   OH267555   2.576   2.424   5.664 -0.0350  0.2624 -0.0243
15355TIP3    H167556   2.664   2.400   5.694 -0.2603 -0.5635 -0.0238
15355TIP3    H267557   2.590   2.463   5.578  0.5392  1.9718  0.8107
15356TIP3   OH267558   3.373   0.335  16.911  0.0450 -0.2195 -0.0007
15356TIP3    H167559   3.461   0.303  16.891  0.6294  0.5082  1.3342
15356TIP3    H267560   3.381   0.430  16.905 -0.2255 -0.0799  1.8072
15357TIP3   OH267561   1.654   6.256  12.360  0.6152  0.7571  0.6255
15357TIP3    H167562   1.558   6.259  12.367  0.7161  1.2210  2.0837
15357TIP3    H267563   1.675   6.163  12.347 -0.0680  0.7444 -0.4405
15358TIP3   OH267564   6.044   2.823  11.742  0.9022 -0.5694  0.0381
15358TIP3    H167565   6.066   2.875  11.665 -0.8478  0.5731  0.2851
15358TIP3    H267566   5.953   2.798  11.729  0.9965 -1.4842  1.0991
15359TIP3   OH267567   5.030   2.223   4.543  0.3365 -0.1544 -0.0700
15359TIP3    H167568   5.095   2.239   4.611 -1.8212 -0.6900  2.1693
15359TIP3    H267569   4.982   2.146   4.573 -1.3814  0.2732 -1.6400
15360TIP3   OH267570   0.841   6.145   1.509 -0.0311  0.2811 -0.1576
15360TIP3    H167571   0.936   6.148   1.507 -0.0557  2.6573  0.6580
15360TIP3    H267572   0.814   6.208   1.443 -1.0797 -1.7051 -1.6936
15361TIP3   OH267573   5.337   2.423  16.227  0.2916 -0.0831 -0.6897
15361TIP3    H167574   5.365   2.333  16.211  1.1894  0.0041  0.3054
15361TIP3    H267575   5.383   2.474  16.160 -0.3092 -0.3630 -1.3294
15362TIP3   OH267576   0.642   6.226  14.197 -0.1710  0.0945 -0.1131
15362TIP3    H167577   0.645   6.226  14.292 -4.2506  2.0583  0.1629
15362TIP3    H267578   0.638   6.134  14.172  0.0489 -0.4058  1.6750
15363TIP3   OH267579   5.006   5.382   2.530  0.0582  0.7209  0.4672
15363TIP3    H167580   5.096   5.366   2.501  0.2276  3.0658 -0.4259
15363TIP3    H267581   4.951   5.332   2.469  0.7651 -1.3235  1.4788
15364TIP3   OH267582   3.806   2.510   1.377 -0.0071  0.1882 -0.0982
15364TIP3    H167583   3.747   2.437   1.398 -0.8568  0.2660 -2.0588
15364TIP3    H267584   3.856   2.524   1.457 -0.6187 -1.8077  0.6783
15365TIP3   OH267585   2.632   3.519   6.346 -0.0421  0.2751  0.2799
15365TIP3    H167586   2.623   3.424   6.352  0.2909  0.3090  1.4958
15365TIP3    H267587   2.543   3.552   6.359 -0.2968  0.1144 -0.9479
15366TIP3   OH267588   4.173   4.034   2.162  0.4650  0.0994 -0.0104
15366TIP3    H167589   4.117   3.962   2.132  0.2391 -0.4395  1.6469
15366TIP3    H267590   4.255   3.991   2.188  1.3542  0.7786 -1.6096
15367TIP3   OH267591   4.593   5.007   4.376 -0.0952 -0.2904  0.1781
15367TIP3    H167592   4.594   5.072   4.306 -0.5521 -1.0921 -0.5713
15367TIP3    H267593   4.593   5.059   4.457 -0.5112  0.6334 -0.4179
15368TIP3   OH267594   1.934   1.168  15.802  0.2980  0.0112 -0.1163
15368TIP3    H167595   1.844   1.161  15.835 -0.5213 -0.2549 -2.2959
15368TIP3    H267596   1.959   1.079  15.780  0.9296  0.1363  0.0952
15369TIP3   OH267597   4.234   4.504   1.588 -0.6485 -0.0118 -0.3323
15369TIP3    H167598   4.287   4.581   1.607 -0.7354  0.0835 -0.4856
15369TIP3    H267599   4.149   4.523   1.628 -0.9925  0.4061 -1.2660
15370TIP3   OH267600   6.764   0.591  15.345  0.4492  0.2173  0.3801
15370TIP3    H167601   6.828   0.543  15.293  0.5217  0.3738  0.3264
15370TIP3    H267602   6.679   0.561  15.312  0.4939  0.0906  0.3802
15371TIP3   OH267603   0.876   4.293  16.803 -0.5027  0.0573  0.2024
15371TIP3    H167604   0.876   4.295  16.707  0.1163 -1.0963  0.1733
15371TIP3    H267605   0.839   4.208  16.825  1.1375 -0.4838  0.9617
15372TIP3   OH267606   4.432   1.752   3.143  0.0973  0.2809 -0.1693
15372TIP3    H167607   4.366   1.780   3.207 -1.1932 -2.8408 -0.0821
15372TIP3    H267608   4.433   1.823   3.078 -2.0372  1.2472  0.7880
15373TIP3   OH267609   4.080   0.139   1.940  0.4535 -0.2376 -0.1031
15373TIP3    H167610   4.090   0.230   1.914  0.9201  0.1388  1.3200
15373TIP3    H267611   4.170   0.106   1.945  0.2610 -0.8950 -1.0492
15374TIP3   OH267612   0.251   0.567  15.401 -0.0020  0.4032 -0.3470
15374TIP3    H167613   0.343   0.542  15.398  0.0798  0.6620 -0.0255
15374TIP3    H267614   0.208   0.496  15.450  0.2561  0.9654  0.7020
15375TIP3   OH267615   6.619   6.259  11.338 -0.4079 -0.5285 -0.4486
15375TIP3    H167616   6.541   6.211  11.367  0.4164 -2.0693 -0.7396
15375TIP3    H267617   6.645   6.311  11.414 -0.7641 -1.2673  0.1856
15376TIP3   OH267618   4.116   4.725   2.816 -0.1373 -0.2062  0.4501
15376TIP3    H167619   4.133   4.638   2.781  1.8325  0.6956 -0.9718
15376TIP3    H267620   4.107   4.712   2.911 -2.1961 -2.2361  0.0025
15377TIP3   OH267621   5.187   2.607  12.852 -0.0013 -0.0117 -0.2983
15377TIP3    H167622   5.237   2.578  12.929  0.3860 -0.3541 -0.6760
15377TIP3    H267623   5.254   2.632  12.788 -0.3230  1.0863 -0.2276
15378TIP3   OH267624   3.732   3.199   2.895  0.4556 -0.1663 -0.2729
15378TIP3    H167625   3.720   3.112   2.858  2.2357 -0.3504 -0.4670
15378TIP3    H267626   3.817   3.227   2.863  0.4443  1.1339  0.7926
15379TIP3   OH267627   2.156   2.557   4.599  0.3752 -0.0294  0.6195
15379TIP3    H167628   2.081   2.558   4.659 -1.4322  0.6930 -1.6056
15379TIP3    H267629   2.162   2.466   4.571 -1.3867  0.3994 -1.2559
15380TIP3   OH267630   5.766   0.531  12.401 -0.3692 -0.3854 -1.2862
15380TIP3    H167631   5.838   0.553  12.343 -0.4210  0.1738 -1.1429
15380TIP3    H267632   5.807   0.516  12.486 -0.3448 -0.7474 -1.3616
15381TIP3   OH267633   0.062   2.094   1.009  0.5449 -0.4821  0.0573
15381TIP3    H167634   0.115   2.107   1.088  2.9917 -2.6716 -1.1602
15381TIP3    H267635   0.122   2.114   0.937 -1.0243 -0.6402 -1.3113
15382TIP3   OH267636   3.847   0.369  14.403  0.3437  0.1023 -0.4054
15382TIP3    H167637   3.883   0.292  14.361  2.1707  0.9386 -0.4175
15382TIP3    H267638   3.757   0.375  14.371  0.7402 -1.0410 -1.7306
15383TIP3   OH267639   2.073   2.000   3.933 -0.1525 -0.2216 -0.3811
15383TIP3    H167640   2.052   1.948   4.011  0.4180  1.7708  1.1670
15383TIP3    H267641   2.096   2.087   3.968 -0.0192  0.7571 -2.7914
15384TIP3   OH267642   0.153   1.882  16.539  0.6004 -0.0630 -0.2592
15384TIP3    H167643   0.062   1.887  16.567  1.5732  1.2110  2.9284
15384TIP3    H267644   0.168   1.965  16.494  0.5268  0.2965  0.3708
15385TIP3   OH267645   6.284   5.455   6.566 -0.3515  0.0409  0.6461
15385TIP3    H167646   6.346   5.520   6.600 -0.6976 -0.1040  1.5580
15385TIP3    H267647   6.226   5.437   6.640  0.5364 -2.2975  0.8170
15386TIP3   OH267648   1.707   3.888   1.457 -0.2287  0.1020 -0.4589
15386TIP3    H167649   1.791   3.890   1.411 -0.5656  0.6679 -1.0633
15386TIP3    H267650   1.714   3.814   1.517  0.8685  0.4240 -0.1783
15387TIP3   OH267651   5.750   3.190  14.743  0.1352  0.2583  0.0255
15387TIP3    H167652   5.728   3.177  14.651  1.1298 -0.6197 -0.0960
15387TIP3    H267653   5.671   3.164  14.790  0.2342 -1.0367 -0.5016
15388TIP3   OH267654   0.929   3.830  15.561  0.2288 -0.2905  0.0765
15388TIP3    H167655   0.883   3.827  15.645  1.3250  0.2340  0.7048
15388TIP3    H267656   0.860   3.847  15.497 -0.3630  1.2621  1.0970
15389TIP3   OH267657   5.645   5.229   4.061 -0.1478 -0.3824  0.0126
15389TIP3    H167658   5.614   5.309   4.104 -0.1464 -0.4874  0.2073
15389TIP3    H267659   5.617   5.239   3.970 -0.7023 -0.4491  0.1768
15390TIP3   OH267660   0.904   6.657   0.147  0.1142  0.5313 -0.0084
15390TIP3    H167661   0.907   6.704   0.064 -0.9399 -0.1386 -0.4247
15390TIP3    H267662   0.811   6.648   0.167  0.3452  0.1188  0.9270
15391TIP3   OH267663   5.866   5.073   1.566  0.1136 -0.7700  0.1094
15391TIP3    H167664   5.910   5.045   1.486 -0.2822  0.4108 -0.5293
15391TIP3    H267665   5.840   4.991   1.608  2.2736 -1.4734  0.1582
15392TIP3   OH267666   0.487   3.520   2.143  0.2858 -0.0888  0.6316
15392TIP3    H167667   0.545   3.482   2.077 -0.4756 -0.3416  0.0966
15392TIP3    H267668   0.545   3.548   2.213  0.9674 -1.2347  0.5423
15393TIP3   OH267669   2.373   4.184  12.692 -0.0647 -0.2539 -0.1202
15393TIP3    H167670   2.301   4.125  12.717  0.1302 -0.2382  0.4879
15393TIP3    H267671   2.412   4.211  12.776 -1.4965  2.4393 -0.2651
15394TIP3   OH267672   0.837   4.927  13.592  0.1901 -0.2702  0.6674
15394TIP3    H167673   0.898   5.000  13.579  0.6087 -0.5542  1.0407
15394TIP3    H267674   0.778   4.931  13.516  0.9055 -0.2335  0.1149
15395TIP3   OH267675   0.619   2.642  14.158 -0.1588 -0.0163 -0.2549
15395TIP3    H167676   0.639   2.551  14.138  1.4039  0.4020 -0.6734
15395TIP3    H267677   0.689   2.669  14.217 -0.9181  0.7671  0.3054
15396TIP3   OH267678   2.573   2.861   6.294 -0.6545  0.1689 -0.1395
15396TIP3    H167679   2.633   2.933   6.274 -2.8838  1.8386 -1.0218
15396TIP3    H267680   2.580   2.802   6.219  0.9144 -0.3801  0.4208
15397TIP3   OH267681   1.995   0.200   0.459 -0.0666 -0.1998  0.0410
15397TIP3    H167682   1.925   0.235   0.404  0.4046 -0.1982 -0.5680
15397TIP3    H267683   1.973   0.107   0.469  0.5549 -0.5148 -1.2957
15398TIP3   OH267684   4.795   2.370  15.175 -0.0883  0.1749 -0.4357
15398TIP3    H167685   4.750   2.450  15.152 -1.2319 -0.3766 -0.1411
15398TIP3    H267686   4.735   2.324  15.234  0.1887 -1.2892 -1.2632
15399TIP3   OH267687   0.427   6.671   1.459 -0.8856 -0.0652  0.1660
15399TIP3    H167688   0.424   6.752   1.509 -1.8782  0.9842 -1.5255
15399TIP3    H267689   0.358   6.681   1.394 -1.7935 -2.7919  0.6777
15400TIP3   OH267690   4.970   5.781   4.071  0.1461 -0.6743 -0.1419
15400TIP3    H167691   4.894   5.838   4.063  1.1214  1.0713  2.4397
15400TIP3    H267692   5.032   5.815   4.007  0.6539  1.1220  1.2565
15401TIP3   OH267693   5.779   3.548  15.734 -0.1453 -0.1674 -0.1575
15401TIP3    H167694   5.807   3.536  15.643  1.2139  1.0238  0.0798
15401TIP3    H267695   5.837   3.490  15.784  0.3012  0.5131  0.1143
15402TIP3   OH267696   2.914   6.811  16.910 -0.1018 -0.4481  0.5712
15402TIP3    H167697   2.971   6.878  16.870  0.2866 -1.0191  0.1547
15402TIP3    H267698   2.959   6.788  16.992 -0.1487 -0.3208  0.6316
15403TIP3   OH267699   3.451   4.896   5.341  0.2119 -0.3943 -0.0885
15403TIP3    H167700   3.452   4.868   5.433 -1.3662  1.9788  0.6959
15403TIP3    H267701   3.521   4.961   5.335  0.2729 -0.5007 -0.5457
15404TIP3   OH267702   0.339   3.707  15.265  0.5323 -0.2324 -0.5306
15404TIP3    H167703   0.301   3.653  15.196 -0.2155 -0.1452 -0.1949
15404TIP3    H267704   0.419   3.661  15.290  0.2905 -0.7890 -0.7653
15405TIP3   OH267705   1.637   3.839  16.015  0.1047 -0.3265 -0.2702
15405TIP3    H167706   1.716   3.787  16.004 -0.2988 -1.0243  0.1492
15405TIP3    H267707   1.574   3.802  15.953  0.0176  0.0620 -0.4200
15406TIP3   OH267708   5.393   1.907   5.692 -0.2410  1.0574  0.1264
15406TIP3    H167709   5.453   1.937   5.760 -1.4700 -1.4649  2.3982
15406TIP3    H267710   5.425   1.820   5.668 -0.0451  1.7503 -2.3318
15407TIP3   OH267711   6.377   3.598   3.335 -1.0148  0.1314  0.5703
15407TIP3    H167712   6.421   3.629   3.414 -0.4890  1.9345 -0.4082
15407TIP3    H267713   6.441   3.613   3.265 -2.1140  0.1409 -0.4494
15408TIP3   OH267714   0.769   5.168   5.518 -0.2256  0.4895  0.4769
15408TIP3    H167715   0.741   5.259   5.508  1.3903  0.8050 -1.3888
15408TIP3    H267716   0.841   5.172   5.581  0.2570  0.6009 -0.0746
15409TIP3   OH267717   1.179   4.740   3.559  0.2510  0.1806 -0.4522
15409TIP3    H167718   1.274   4.736   3.565  0.1535  0.5569  1.6358
15409TIP3    H267719   1.159   4.834   3.564 -0.2508  0.0691 -0.3237
15410TIP3   OH267720   4.449   1.251   1.808 -0.3212  0.6912 -0.1166
15410TIP3    H167721   4.496   1.171   1.784 -1.7327 -0.4151  0.6997
15410TIP3    H267722   4.518   1.315   1.826  0.8288 -0.3063 -0.8639
15411TIP3   OH267723   5.215   0.255   5.197  0.7839  0.5277  0.0599
15411TIP3    H167724   5.172   0.317   5.139 -0.9220  0.0518  0.7942
15411TIP3    H267725   5.254   0.190   5.139  1.1340  1.3410 -0.6312
15412TIP3   OH267726   0.167   3.463   6.592 -0.5045  0.0596  0.2314
15412TIP3    H167727   0.150   3.550   6.628 -0.2263 -0.3497  1.3900
15412TIP3    H267728   0.194   3.480   6.502  0.7588  1.2857  0.8052
15413TIP3   OH267729   3.081   3.002  16.467 -0.5745 -0.3804  0.7293
15413TIP3    H167730   3.032   3.048  16.535  0.8065  1.4922  0.4761
15413TIP3    H267731   3.100   3.069  16.401 -0.2478 -1.7492 -0.6059
15414TIP3   OH267732   4.064   4.236  16.592  0.4824  0.2983 -0.8801
15414TIP3    H167733   4.009   4.273  16.523 -1.3115  2.6651  1.6999
15414TIP3    H267734   4.005   4.183  16.645  1.0411  1.3752  0.8631
15415TIP3   OH267735   6.209   5.700   6.217  0.2471 -0.3224 -0.0104
15415TIP3    H167736   6.216   5.612   6.180  0.4118  0.0638 -0.9104
15415TIP3    H267737   6.151   5.690   6.292  0.8425 -1.3355  0.3322
15416TIP3   OH267738   1.918   5.097  16.597 -0.2322 -0.4661  0.4315
15416TIP3    H167739   1.846   5.160  16.607 -1.2272 -1.8429  2.3474
15416TIP3    H267740   1.879   5.025  16.549  0.4697 -0.3009 -0.3861
15417TIP3   OH267741   6.747   6.126   2.471 -1.0143 -0.1525  0.1128
15417TIP3    H167742   6.762   6.065   2.400 -1.0380 -0.1410  0.0976
15417TIP3    H267743   6.825   6.120   2.526 -0.3876  0.8404 -0.6400
15418TIP3   OH267744   4.847   1.890  11.211 -0.2562  0.3297  0.3019
15418TIP3    H167745   4.788   1.912  11.139  0.7538 -0.7120 -0.8723
15418TIP3    H267746   4.935   1.904  11.176  0.2340  2.0273  2.0794
15419TIP3   OH267747   2.245   3.615  15.788  0.4215 -0.1282  0.1010
15419TIP3    H167748   2.287   3.678  15.847  1.0704  0.1527 -0.6673
15419TIP3    H267749   2.245   3.658  15.703  0.8523 -1.1666 -0.4264
15420TIP3   OH267750   4.353   2.282  15.679 -0.0932 -0.3679  0.1955
15420TIP3    H167751   4.349   2.200  15.629 -0.2311  0.3851 -1.0463
15420TIP3    H267752   4.446   2.304  15.682 -0.0590 -0.5549  0.4996
15421TIP3   OH267753   3.555   5.975   0.690 -0.3140 -0.2932 -0.1178
15421TIP3    H167754   3.530   5.883   0.680 -1.3059 -0.1198  0.6036
15421TIP3    H267755   3.614   5.976   0.766 -2.0570 -0.0638  1.2813
15422TIP3   OH267756   0.165   0.043   5.645 -0.2152  0.0243 -0.0896
15422TIP3    H167757   0.118   0.087   5.716 -0.3458  0.8396 -0.6743
15422TIP3    H267758   0.098  -0.009   5.600 -0.2465 -0.0446  0.0364
15423TIP3   OH267759   2.000   3.628   3.794  0.3104 -0.1134 -0.0801
15423TIP3    H167760   1.999   3.718   3.762  0.0752 -0.4617 -1.0514
15423TIP3    H267761   2.068   3.627   3.862 -1.3062  1.3832  1.6396
15424TIP3   OH267762   6.345   1.570   3.975  0.1248  0.2198  0.2014
15424TIP3    H167763   6.281   1.499   3.973 -1.6241  1.7623  0.1914
15424TIP3    H267764   6.378   1.570   4.065  1.8664 -2.0613 -0.3795
15425TIP3   OH267765   6.033   4.905   6.901  0.5061  0.0377 -0.7228
15425TIP3    H167766   6.098   4.894   6.971  0.9029  0.0685 -1.0869
15425TIP3    H267767   6.045   4.995   6.871 -1.3696  0.8441  0.8682
15426TIP3   OH267768   6.652   2.454   1.492  0.1915  0.1172 -0.0042
15426TIP3    H167769   6.573   2.507   1.481  0.5206  0.1860 -2.3158
15426TIP3    H267770   6.635   2.374   1.443  0.4443 -1.1518  1.9018
15427TIP3   OH267771   0.805   1.821   6.505 -0.2393  0.1266 -0.3190
15427TIP3    H167772   0.887   1.855   6.541 -0.4890  0.8054 -0.3770
15427TIP3    H267773   0.813   1.726   6.512  0.9612  0.1573 -1.2524
15428TIP3   OH267774   2.113   4.870   5.136 -0.1057 -0.4385  0.0221
15428TIP3    H167775   2.143   4.960   5.132 -0.3353 -0.3803 -0.4470
15428TIP3    H267776   2.112   4.841   5.044 -2.4227 -0.1182 -0.0787
15429TIP3   OH267777   0.836   3.561   4.468  0.3524  0.3612  0.0813
15429TIP3    H167778   0.834   3.466   4.478  0.3889  0.3722  0.1821
15429TIP3    H267779   0.927   3.585   4.484  0.4861  0.3351 -0.6124
15430TIP3   OH267780   1.971   3.865   6.341 -0.6825  0.1632  0.0994
15430TIP3    H167781   1.944   3.786   6.389  1.5011 -1.1891 -0.7796
15430TIP3    H267782   1.895   3.922   6.343 -1.2388 -0.6190  3.5691
15431TIP3   OH267783   0.362   0.774  13.710 -0.0698  0.5937 -0.0069
15431TIP3    H167784   0.408   0.821  13.779 -0.1678  0.8054 -0.0846
15431TIP3    H267785   0.270   0.797  13.722 -0.1801  0.0145  0.2670
15432TIP3   OH267786   4.013   1.631   5.469  0.1872  0.1970 -0.3976
15432TIP3    H167787   3.998   1.725   5.477 -0.5386  0.0192  0.3611
15432TIP3    H267788   3.961   1.592   5.539  2.6596 -0.5856  1.0726
15433TIP3   OH267789   3.261   2.462   1.118 -0.1441 -0.1638 -0.0008
15433TIP3    H167790   3.349   2.500   1.106 -0.3537  0.3137 -0.0341
15433TIP3    H267791   3.277   2.380   1.163  0.3138 -0.0139  0.1179
15434TIP3   OH267792   6.121   3.780   2.880  0.2429  0.1233 -0.2232
15434TIP3    H167793   6.144   3.695   2.842  0.9371  0.4800 -0.6143
15434TIP3    H267794   6.057   3.760   2.948  1.6457 -0.8784  0.8203
15435TIP3   OH267795   1.322   2.447   3.286 -0.0417 -0.0528  0.1599
15435TIP3    H167796   1.401   2.484   3.327 -0.1426  0.6167 -0.2440
15435TIP3    H267797   1.282   2.395   3.356  0.3381  0.2454  0.6088
15436TIP3   OH267798   2.132   5.611  15.974 -0.7396  0.6116 -0.4929
15436TIP3    H167799   2.110   5.559  16.051 -1.6997 -0.7289 -1.6453
15436TIP3    H267800   2.184   5.684  16.008 -1.1461  0.0335  1.4102
15437TIP3   OH267801   0.882   1.699   2.923  0.2921 -0.6734 -0.3237
15437TIP3    H167802   0.887   1.727   2.832  1.2234  1.1680  0.2534
15437TIP3    H267803   0.951   1.750   2.967 -0.4170 -1.2209  1.4706
15438TIP3   OH267804   5.701   4.180  11.991 -0.1270  0.6264 -0.5170
15438TIP3    H167805   5.605   4.173  11.989 -0.1501  1.1686 -1.1767
15438TIP3    H267806   5.727   4.190  11.900  0.6930 -1.2485 -0.5124
15439TIP3   OH267807   5.342   4.240  13.322 -0.2243  0.1422  0.1589
15439TIP3    H167808   5.267   4.295  13.341 -2.1200 -1.7773 -1.5001
15439TIP3    H267809   5.374   4.212  13.408 -2.7494 -0.7266  0.8632
15440TIP3   OH267810   0.036   4.397  16.596 -0.1042  0.0126  0.0795
15440TIP3    H167811   0.106   4.392  16.661 -0.3257 -0.4424  0.2807
15440TIP3    H267812  -0.028   4.457  16.633 -0.4203 -0.5645  0.4523
15441TIP3   OH267813   0.827   3.983  11.517  0.1261 -0.5621 -0.5519
15441TIP3    H167814   0.875   4.039  11.456  0.5766  1.4838  1.6066
15441TIP3    H267815   0.745   3.962  11.472 -1.0641  3.7175 -0.6037
15442TIP3   OH267816   1.242   6.206  16.200  0.5457  0.0755 -0.0623
15442TIP3    H167817   1.283   6.250  16.125  0.6416 -0.5125 -0.3595
15442TIP3    H267818   1.296   6.232  16.275  0.5993  0.4650 -0.2339
15443TIP3   OH267819   6.748   3.393   3.600  0.4221  0.3535  0.1631
15443TIP3    H167820   6.694   3.342   3.540  2.1142  0.5260 -1.5883
15443TIP3    H267821   6.829   3.343   3.608  2.1301  2.7024 -1.6247
15444TIP3   OH267822   4.397   5.139  13.244 -0.0595  0.2524 -0.2616
15444TIP3    H167823   4.337   5.125  13.317 -0.8328  1.0438 -0.7282
15444TIP3    H267824   4.389   5.232  13.223 -0.1553 -0.0439 -1.6056
15445TIP3   OH267825   3.596   3.380  16.991 -0.3828 -0.9724  0.8681
15445TIP3    H167826   3.509   3.391  17.029 -1.9121  1.0043 -2.9178
15445TIP3    H267827   3.620   3.290  17.011 -3.4634 -1.6604  1.7019
15446TIP3   OH267828   4.324   6.509  17.123  1.0470  0.1563  0.3775
15446TIP3    H167829   4.292   6.503  17.213  1.8403 -2.7103  0.5370
15446TIP3    H267830   4.382   6.433  17.114 -0.1854 -0.4756 -2.9933
15447TIP3   OH267831   2.464   5.833  14.428  0.8643 -0.2498 -0.2938
15447TIP3    H167832   2.523   5.908  14.439  1.5824 -0.5837 -1.7347
15447TIP3    H267833   2.513   5.758  14.460  0.0092 -0.0847  1.4889
15448TIP3   OH267834   2.131   5.732   0.501 -0.2833 -0.1194  0.2386
15448TIP3    H167835   2.185   5.722   0.422  1.1451 -1.1756  1.3119
15448TIP3    H267836   2.042   5.742   0.468  0.4513  0.7785 -1.5531
15449TIP3   OH267837   6.589   5.738  13.738 -0.9220 -0.2030 -0.0478
15449TIP3    H167838   6.637   5.663  13.771  0.0645 -0.7382 -2.6121
15449TIP3    H267839   6.529   5.702  13.672 -0.8471  1.1694 -0.8871
15450TIP3   OH267840   0.988   1.450  15.731  0.5294 -0.1953 -0.3055
15450TIP3    H167841   1.016   1.362  15.703  1.9324  0.1525 -0.0484
15450TIP3    H267842   0.896   1.440  15.755  1.0053 -1.8654  0.8938
15451TIP3   OH267843   3.051   3.012   0.149  0.1072 -0.3978 -0.1093
15451TIP3    H167844   3.077   3.092   0.103 -0.5149 -1.0605 -1.6807
15451TIP3    H267845   2.992   3.042   0.218 -0.2397  0.4910 -0.7759
15452TIP3   OH267846   2.422   4.678   5.716 -0.3704  0.4228 -0.6695
15452TIP3    H167847   2.330   4.697   5.701 -1.1574 -1.7130  1.2200
15452TIP3    H267848   2.437   4.595   5.670  0.2583  0.0665  0.1755
15453TIP3   OH267849   6.362   6.753   0.592  0.4434  0.1664  0.0060
15453TIP3    H167850   6.315   6.808   0.530  1.2844  0.6265 -0.2446
15453TIP3    H267851   6.306   6.677   0.606 -0.5708  0.9281  0.0814
15454TIP3   OH267852   5.682   4.799  13.805 -0.1885 -0.0739 -0.1958
15454TIP3    H167853   5.722   4.827  13.723  0.1300 -2.3583 -0.8607
15454TIP3    H267854   5.752   4.809  13.870  0.0353  0.2794 -0.4880
15455TIP3   OH267855   3.821   4.401   4.745  0.3072 -0.5274 -0.1159
15455TIP3    H167856   3.766   4.441   4.812  0.0325 -1.7516  0.4038
15455TIP3    H267857   3.844   4.473   4.686 -1.0625  0.1773  0.1987
15456TIP3   OH267858   2.033   5.015  12.167 -0.0011 -0.5027 -0.4108
15456TIP3    H167859   2.098   5.030  12.098 -0.2334 -0.0101 -0.5232
15456TIP3    H267860   1.966   5.082  12.152 -0.3462 -0.7699 -0.0642
15457TIP3   OH267861   5.874   2.403  16.573 -0.3293 -0.0880  0.0780
15457TIP3    H167862   5.866   2.353  16.654 -0.0683 -0.8300 -0.3488
15457TIP3    H267863   5.955   2.371  16.533 -0.4231  0.3215 -0.4429
15458TIP3   OH267864   4.868   0.333   6.261 -0.3054 -0.3596  0.1066
15458TIP3    H167865   4.777   0.308   6.250 -0.6076  2.0542 -3.8790
15458TIP3    H267866   4.864   0.425   6.289  0.8756  0.0391 -0.9820
15459TIP3   OH267867   2.549   3.166   3.129  0.0224  0.2083  0.4953
15459TIP3    H167868   2.509   3.234   3.076  2.8942  1.7323  0.1617
15459TIP3    H267869   2.565   3.093   3.069  0.1576  0.6117  0.0461
15460TIP3   OH267870   4.863   1.317  10.647 -0.2010 -0.2890 -0.0847
15460TIP3    H167871   4.865   1.396  10.700  0.6332 -0.1866 -0.2632
15460TIP3    H267872   4.954   1.287  10.645 -0.3837 -0.8155 -0.6719
15461TIP3   OH267873   4.887   3.345  15.936  0.2561 -0.1266  0.6867
15461TIP3    H167874   4.869   3.254  15.912  0.0877  0.1771 -0.3709
15461TIP3    H267875   4.927   3.383  15.858 -1.0992  1.1201  0.5719
15462TIP3   OH267876   2.599   1.806  11.747  0.0789  0.7069  0.1387
15462TIP3    H167877   2.506   1.828  11.743 -0.2506 -0.3554  1.6747
15462TIP3    H267878   2.601   1.710  11.746  1.2562  0.7312 -1.7574
15463TIP3   OH267879   4.629   5.295   0.833  0.5549 -0.0242  0.0860
15463TIP3    H167880   4.668   5.219   0.875 -0.1068 -1.3843 -1.6907
15463TIP3    H267881   4.535   5.280   0.836  0.4856 -0.1052 -1.7145
15464TIP3   OH267882   6.125   0.409  11.727 -0.0876  0.4999  0.2028
15464TIP3    H167883   6.078   0.348  11.669 -0.1310  2.1618 -1.5461
15464TIP3    H267884   6.136   0.360  11.809 -0.6241 -1.6553 -0.9703
15465TIP3   OH267885   5.516   5.015   3.963  0.4071  0.3739 -0.1299
15465TIP3    H167886   5.492   5.080   3.897  0.8163  0.2122 -0.4351
15465TIP3    H267887   5.453   4.944   3.951 -1.9093  1.9522  2.1059
15466TIP3   OH267888   6.307   4.309   1.381  0.0785  0.3424  0.1452
15466TIP3    H167889   6.273   4.252   1.311 -0.3762  1.0894 -0.2523
15466TIP3    H267890   6.248   4.383   1.382  0.0482  0.3107  1.3891
15467TIP3   OH267891   3.417   2.507   0.763 -0.3247 -0.2742 -0.2417
15467TIP3    H167892   3.423   2.528   0.856  0.5852  1.4612 -0.6746
15467TIP3    H267893   3.382   2.418   0.761 -1.5832  0.1448  1.7217
15468TIP3   OH267894   5.648   5.986   2.329  0.2612 -0.5979  0.0441
15468TIP3    H167895   5.724   5.930   2.342  1.5839  0.6059 -2.1423
15468TIP3    H267896   5.683   6.066   2.290 -1.7890  1.1159  1.5874
15469TIP3   OH267897   3.748   1.905   5.684  0.3726  0.1219 -0.3157
15469TIP3    H167898   3.803   1.968   5.637 -1.7459  2.0889 -0.2834
15469TIP3    H267899   3.800   1.879   5.760  2.2390 -0.0274 -1.5980
15470TIP3   OH267900   1.462   1.235  17.242  0.3314 -0.3619  0.3744
15470TIP3    H167901   1.546   1.193  17.263  0.4377 -0.6913 -0.7214
15470TIP3    H267902   1.477   1.278  17.158 -1.5400 -3.0747 -1.4223
15471TIP3   OH267903   5.527   2.891  15.759 -0.3305  1.3731 -0.0440
15471TIP3    H167904   5.475   2.838  15.819 -0.5202 -1.0547 -2.2545
15471TIP3    H267905   5.599   2.924  15.813  0.3962 -2.0306  1.2211
15472TIP3   OH267906   0.119   3.188   2.960 -0.4515  0.1502 -0.5472
15472TIP3    H167907   0.051   3.186   2.893 -0.7676  0.2478 -0.2330
15472TIP3    H267908   0.078   3.234   3.034 -0.3243 -0.5285 -0.0533
15473TIP3   OH267909   5.619   5.729  14.341 -0.0306 -0.1411  0.2196
15473TIP3    H167910   5.594   5.787  14.413 -0.3265  0.3798 -0.3098
15473TIP3    H267911   5.537   5.709  14.296  0.3120  0.4493 -0.6663
15474TIP3   OH267912   4.082   5.222  17.241  0.0157 -0.2383 -0.3720
15474TIP3    H167913   4.046   5.301  17.281 -0.5203 -1.2203  1.0977
15474TIP3    H267914   4.110   5.250  17.154 -1.5426  1.2323 -0.4152
15475TIP3   OH267915   2.788   0.412   5.970 -0.9537 -0.1290  0.8097
15475TIP3    H167916   2.878   0.398   6.000 -0.0070  0.8383 -1.3925
15475TIP3    H267917   2.741   0.442   6.047  0.3649 -1.6145  2.2367
15476TIP3   OH267918   4.255   1.692  15.477  0.2156 -0.7960  0.0328
15476TIP3    H167919   4.184   1.655  15.529 -0.4466 -0.4860 -0.6503
15476TIP3    H267920   4.334   1.646  15.507 -0.2092 -0.8456  1.0818
15477TIP3   OH267921   3.724   0.023   2.871 -0.2327 -0.4988  0.1523
15477TIP3    H167922   3.811   0.036   2.909  0.5034 -1.2609 -1.2420
15477TIP3    H267923   3.690  -0.056   2.914 -0.0128 -0.5186  0.2894
15478TIP3   OH267924   6.122   4.234  16.883 -0.8195 -0.0824  0.2306
15478TIP3    H167925   6.190   4.290  16.921 -0.5392 -0.2171 -0.0699
15478TIP3    H267926   6.111   4.267  16.794 -0.8943 -0.2867  0.1658
15479TIP3   OH267927   5.728   6.010   4.983  0.1910  0.9066  0.1432
15479TIP3    H167928   5.763   5.930   5.022  0.3244  0.8189 -0.1575
15479TIP3    H267929   5.633   5.997   4.984  0.1602  1.1553  0.9797
15480TIP3   OH267930   5.115   2.560   2.556  0.6087  0.6252 -0.1127
15480TIP3    H167931   5.034   2.510   2.545  0.5552  0.3283  1.5576
15480TIP3    H267932   5.184   2.497   2.534  0.4718  0.3111  0.3506
15481TIP3   OH267933   5.727   5.643   6.003 -0.0023 -0.2240 -0.1058
15481TIP3    H167934   5.772   5.583   6.063  2.0322  0.5860 -0.7585
15481TIP3    H267935   5.775   5.726   6.012 -1.2687  0.6204 -0.9892
15482TIP3   OH267936   6.215   4.086  16.278 -0.2724 -0.2825 -0.3287
15482TIP3    H167937   6.301   4.045  16.283 -0.2739 -0.2289  0.2146
15482TIP3    H267938   6.173   4.045  16.202  0.9376  1.0687 -1.7643
15483TIP3   OH267939   0.844   2.482  15.603  0.9897 -0.1148 -0.4059
15483TIP3    H167940   0.816   2.552  15.662  0.4210 -0.2348 -0.5277
15483TIP3    H267941   0.766   2.428  15.592  1.1150 -0.1341 -1.2124
15484TIP3   OH267942   3.897   1.507  13.838  0.2213  0.1293 -0.8025
15484TIP3    H167943   3.949   1.447  13.785 -0.3768 -0.0205 -1.2201
15484TIP3    H267944   3.926   1.594  13.810  0.7004  0.0401 -0.5846
15485TIP3   OH267945   5.471   3.755  12.336  0.3587 -0.7896 -0.1263
15485TIP3    H167946   5.516   3.796  12.409 -0.5785  0.1165 -0.0419
15485TIP3    H267947   5.378   3.773  12.352  0.1263 -0.7989 -1.4010
15486TIP3   OH267948   2.652   2.067  14.227  0.7447  0.8241 -1.5374
15486TIP3    H167949   2.720   2.001  14.238  0.7747  0.8131 -1.7751
15486TIP3    H267950   2.666   2.129  14.299  0.5855  0.4603 -1.1918
15487TIP3   OH267951   3.354   4.493   0.785  0.0673  0.1839 -0.3745
15487TIP3    H167952   3.321   4.582   0.795  0.8378  0.8714 -3.5107
15487TIP3    H267953   3.291   4.449   0.729  1.1444 -0.3844 -1.1666
15488TIP3   OH267954   4.732   1.261  12.463  0.1255  0.2212  0.2870
15488TIP3    H167955   4.679   1.335  12.493  0.1435  0.5792 -0.5642
15488TIP3    H267956   4.711   1.252  12.370  1.2601  0.1175  0.0349
15489TIP3   OH267957   3.283   1.413   5.399 -0.0657  0.2639 -0.0676
15489TIP3    H167958   3.280   1.354   5.324 -2.7994  0.2348  0.0116
15489TIP3    H267959   3.243   1.364   5.471  0.3307  1.1487  0.7750
15490TIP3   OH267960   4.756   4.794  14.163 -0.4311  0.1477 -0.3455
15490TIP3    H167961   4.759   4.703  14.133  0.2580 -0.0215  0.2087
15490TIP3    H267962   4.848   4.818  14.174 -0.5221  1.5127 -2.2510
15491TIP3   OH267963   6.482   2.153  16.306 -0.9935 -0.0683 -0.2213
15491TIP3    H167964   6.407   2.151  16.365 -0.5278  1.2997  0.4458
15491TIP3    H267965   6.507   2.245  16.302  1.8619 -0.7282  1.1678
15492TIP3   OH267966   1.928   5.641   5.464 -1.0290 -0.3928 -0.0263
15492TIP3    H167967   1.867   5.669   5.532 -0.0944  2.4779 -0.2837
15492TIP3    H267968   1.933   5.716   5.404  0.7469 -1.5763 -1.4075
15493TIP3   OH267969   4.517   6.519   6.290  0.3614 -0.8158  0.3883
15493TIP3    H167970   4.429   6.483   6.304 -0.1022  0.1247 -0.0826
15493TIP3    H267971   4.546   6.480   6.207  0.8356 -1.9818  1.0938
15494TIP3   OH267972   1.622   3.001   0.626  0.0202  0.2030 -0.5571
15494TIP3    H167973   1.568   3.053   0.566  0.3749  0.0490 -1.0090
15494TIP3    H267974   1.681   3.065   0.667  0.3736  0.1743 -1.0230
15495TIP3   OH267975   1.919   2.767  15.176 -0.4370 -0.2821  0.0228
15495TIP3    H167976   1.960   2.780  15.261 -1.2143 -1.7951  0.6415
15495TIP3    H267977   1.843   2.826  15.177 -0.4094 -0.2527  0.3449
15496TIP3   OH267978   4.721   6.386   2.558 -0.5249  0.0380 -0.3053
15496TIP3    H167979   4.697   6.294   2.568 -1.1281  0.3280  1.0667
15496TIP3    H267980   4.637   6.431   2.548 -0.2125  0.4046 -1.2866
15497TIP3   OH267981   4.634   2.001  17.190 -0.3327 -0.7564  0.5095
15497TIP3    H167982   4.588   2.030  17.111  1.0084  0.2779  0.0893
15497TIP3    H267983   4.623   2.073  17.252  0.6233 -0.5471  0.4415
15498TIP3   OH267984   1.222   6.724   5.250  0.2962  0.9470  0.5485
15498TIP3    H167985   1.260   6.803   5.287  2.7335  0.5631 -1.0539
15498TIP3    H267986   1.222   6.739   5.155 -0.5431 -0.4004  0.3188
15499TIP3   OH267987   1.630   1.684  15.934 -0.1745  0.6365  0.0621
15499TIP3    H167988   1.636   1.608  15.877 -0.5897  0.0940  0.7424
15499TIP3    H267989   1.544   1.722  15.914  0.2062  1.1724 -0.5785
15500TIP3   OH267990   5.991   1.021  13.970  0.1883  0.3203  0.1586
15500TIP3    H167991   6.036   0.937  13.967 -0.1533  0.0303  2.2059
15500TIP3    H267992   5.936   1.017  14.049 -1.2460  1.7560 -0.7138
15501TIP3   OH267993   2.890   0.931  17.210  0.1167  0.3933  0.2754
15501TIP3    H167994   2.944   0.955  17.286  1.0139  0.5082 -0.3896
15501TIP3    H267995   2.856   0.844  17.230  1.1790 -0.0014  0.3622
15502TIP3   OH267996   2.385   6.585  14.139 -0.2433  0.3822  0.1755
15502TIP3    H167997   2.333   6.508  14.119  0.6738 -0.2632  0.2775
15502TIP3    H267998   2.464   6.551  14.181 -0.0111  1.3968  0.5786
15503TIP3   OH267999   0.220   0.671  14.901  0.2396  0.3222  0.5855
15503TIP3    H168000   0.310   0.646  14.884  0.8007  3.0368 -0.6629
15503TIP3    H268001   0.200   0.737  14.835 -3.2406 -1.4539 -0.2823
15504TIP3   OH268002   1.350   1.388  12.998 -0.1188 -0.1085 -0.2586
15504TIP3    H168003   1.329   1.475  12.966  0.7618  0.7803  1.4979
15504TIP3    H268004   1.420   1.357  12.942 -0.2559  0.4186 -0.7201
15505TIP3   OH268005   2.614   4.262   3.266  0.4400 -0.1048 -0.1131
15505TIP3    H168006   2.687   4.252   3.328 -0.1222  1.2688  0.8008
15505TIP3    H268007   2.566   4.338   3.299 -0.3460  0.1269 -1.7817
15506TIP3   OH268008   0.795   2.814  17.120  0.3924  0.2779  1.1189
15506TIP3    H168009   0.811   2.904  17.089 -0.1268  0.1670  0.5200
15506TIP3    H268010   0.713   2.820  17.170 -0.4597 -0.1391 -0.1959
15507TIP3   OH268011   3.008   3.709  13.526  0.1834 -0.4229 -0.8024
15507TIP3    H168012   2.915   3.684  13.521 -0.7209  2.8056 -0.9342
15507TIP3    H268013   3.015   3.788  13.473  2.9244 -0.2732 -0.3072
15508TIP3   OH268014   3.714   6.371  11.969 -0.2470  0.2717 -0.1781
15508TIP3    H168015   3.629   6.375  11.925 -0.8970  2.4900  1.1829
15508TIP3    H268016   3.776   6.404  11.905 -0.7164  0.4792 -0.5301
15509TIP3   OH268017   0.294   0.553   5.960 -0.3116 -0.1403 -0.1869
15509TIP3    H168018   0.230   0.589   6.020 -0.3440 -0.2492 -0.1563
15509TIP3    H268019   0.377   0.592   5.987 -0.3780  0.0703 -0.2838
15510TIP3   OH268020   6.141   4.517   2.523  0.3036  0.2753 -0.1352
15510TIP3    H168021   6.173   4.429   2.501 -0.6109 -0.9178  2.9985
15510TIP3    H268022   6.205   4.576   2.484  2.4738 -1.8610  0.0426
15511TIP3   OH268023   5.583   3.426  14.147 -0.6246  0.3519  0.2473
15511TIP3    H168024   5.632   3.499  14.185  0.7194 -0.8449  0.8391
15511TIP3    H268025   5.524   3.468  14.084  1.1728  1.8105 -0.5086
15512TIP3   OH268026   5.474   2.204  16.955 -0.5238  0.4635  0.1514
15512TIP3    H168027   5.439   2.267  16.892  1.1680  0.6114 -0.6693
15512TIP3    H268028   5.456   2.243  17.040 -2.5032  0.4427 -0.2214
15513TIP3   OH268029   2.421   1.161   3.984  0.1780 -0.2035  0.2674
15513TIP3    H168030   2.389   1.211   4.060  0.2080  0.3659 -0.0922
15513TIP3    H268031   2.462   1.227   3.928  1.3544 -0.8309  0.3905
15514TIP3   OH268032   2.125   6.031  15.458 -0.4684  0.0490 -0.4855
15514TIP3    H168033   2.080   6.098  15.509  0.6036  0.1133  0.3848
15514TIP3    H268034   2.133   5.956  15.518  0.5641  0.0305 -0.6379
15515TIP3   OH268035   5.149   1.908  12.929 -0.0885 -0.4015 -0.2758
15515TIP3    H168036   5.128   2.000  12.943  0.8445 -0.1487 -0.5058
15515TIP3    H268037   5.244   1.904  12.932 -0.1147 -1.3388 -0.4049
15516TIP3   OH268038   6.687   4.372   4.562 -0.2073  0.0812  0.3101
15516TIP3    H168039   6.642   4.442   4.608  2.8486  0.2103  3.3095
15516TIP3    H268040   6.706   4.307   4.630  0.6359 -1.7616 -1.6139
15517TIP3   OH268041   0.276   5.174   0.311  0.4779  0.1989  0.0752
15517TIP3    H168042   0.357   5.134   0.343  0.8037  0.6041 -0.2413
15517TIP3    H268043   0.269   5.145   0.220 -0.4116 -0.8953  0.4851
15518TIP3   OH268044   1.880   6.786   0.487 -0.5840  0.2431 -0.2694
15518TIP3    H168045   1.791   6.821   0.488 -1.1523 -1.1649  1.0763
15518TIP3    H268046   1.869   6.692   0.499  1.0088 -0.1609 -1.8082
15519TIP3   OH268047   6.360   4.992   2.321  0.0262  0.4652  0.2774
15519TIP3    H168048   6.368   5.011   2.228  2.4818  0.3119  0.4267
15519TIP3    H268049   6.317   5.070   2.358 -1.1675  0.4211 -0.9960
15520TIP3   OH268050   3.265   6.132  13.740  0.1580 -0.0544  0.1608
15520TIP3    H168051   3.182   6.164  13.777 -0.0505 -2.3937  1.8717
15520TIP3    H268052   3.315   6.211  13.720 -0.3312  1.4153  4.1485
15521TIP3   OH268053   2.734   4.999   0.829 -0.2949 -0.7553  0.2834
15521TIP3    H168054   2.782   4.941   0.770 -0.3670 -0.1534 -0.3830
15521TIP3    H268055   2.666   4.944   0.867  0.2663 -1.3506  0.4309
15522TIP3   OH268056   5.189   6.606  15.203  0.1024  0.0062 -1.2323
15522TIP3    H168057   5.105   6.592  15.247 -0.8539  1.0633 -2.6912
15522TIP3    H268058   5.241   6.656  15.266  0.2748 -2.1091  0.3599
15523TIP3   OH268059   3.899   0.244  17.075  0.0964  0.0243 -0.2499
15523TIP3    H168060   3.928   0.214  17.162  0.9890 -0.7009 -0.7883
15523TIP3    H268061   3.927   0.336  17.071  2.6575 -0.7227 -0.8641
15524TIP3   OH268062   2.267   5.529  16.715 -0.2201 -0.2806 -0.2259
15524TIP3    H168063   2.214   5.601  16.683  0.1720  0.1330  0.0430
15524TIP3    H268064   2.205   5.468  16.754 -0.7478 -0.9401 -2.0127
15525TIP3   OH268065   3.713   0.100   0.157 -0.8744 -0.5396 -0.2887
15525TIP3    H168066   3.660   0.056   0.091 -1.6736 -2.8150  1.8028
15525TIP3    H268067   3.652   0.161   0.199 -1.1858 -1.3177  0.4018
15526TIP3   OH268068   1.231   0.970  13.311  0.2295  0.2519 -0.5754
15526TIP3    H168069   1.144   0.984  13.273  0.1404  2.6815  0.4334
15526TIP3    H268070   1.264   0.893  13.266 -1.8284  0.2042 -2.0977
15527TIP3   OH268071   0.210   1.489  11.964 -1.0133  0.3797 -0.0851
15527TIP3    H168072   0.131   1.511  11.916 -1.1024  2.3944  0.9235
15527TIP3    H268073   0.180   1.477  12.054 -0.3104  0.2380  0.1299
15528TIP3   OH268074   2.186   1.500  15.786  0.4200 -0.0269  0.3080
15528TIP3    H168075   2.163   1.590  15.767  0.5943 -0.3591 -1.5277
15528TIP3    H268076   2.114   1.468  15.841 -0.4386  0.7394 -0.3642
15529TIP3   OH268077   0.417   3.759   1.254 -0.1912  0.1835  0.1192
15529TIP3    H168078   0.339   3.811   1.235 -0.6467  0.3882  2.3826
15529TIP3    H268079   0.472   3.817   1.306  1.0702 -0.2893 -0.6548
15530TIP3   OH268080   1.029   0.250  13.168  0.2160 -0.5548 -0.0254
15530TIP3    H168081   1.074   0.188  13.224  1.1266  0.4377  0.3632
15530TIP3    H268082   0.937   0.247  13.197  0.5508 -0.5489  1.0543
15531TIP3   OH268083   4.594   1.563  13.085 -0.0188 -0.2435 -0.1253
15531TIP3    H168084   4.578   1.491  13.024 -2.5478 -0.2651  0.5180
15531TIP3    H268085   4.510   1.608  13.093  1.7393  3.4178 -1.2641
15532TIP3   OH268086   3.861   6.368  17.274  0.3722 -0.1865  0.1086
15532TIP3    H168087   3.799   6.409  17.214  1.2402 -0.9061 -1.2939
15532TIP3    H268088   3.922   6.438  17.298  0.6239 -0.1378 -0.6607
15533TIP3   OH268089   6.383   3.080  15.359  0.2965 -0.3812  0.5309
15533TIP3    H168090   6.356   3.161  15.315  1.1736  0.1802  1.0015
15533TIP3    H268091   6.389   3.016  15.289  1.7007  0.5180 -0.1999
15534TIP3   OH268092   6.163   6.222  12.009 -0.3400 -0.0109 -0.0182
15534TIP3    H168093   6.229   6.157  12.034 -1.3395 -1.1390 -0.2651
15534TIP3    H268094   6.099   6.220  12.080 -0.3570  0.7447 -0.0103
15535TIP3   OH268095   5.529   0.126   3.955 -0.2447 -0.4668  0.3482
15535TIP3    H168096   5.483   0.111   4.038  1.5541  0.9716  1.6727
15535TIP3    H268097   5.573   0.043   3.936 -0.7762 -0.8499  0.7853
15536TIP3   OH268098   4.908   2.934  11.999 -1.3041 -0.4205 -0.2339
15536TIP3    H168099   4.868   2.963  12.081 -1.2865 -0.4309 -0.2219
15536TIP3    H268100   4.899   3.009  11.940  1.4329  0.7268  0.7265
15537TIP3   OH268101   3.144   6.609   3.877 -0.2510 -0.0009 -0.0329
15537TIP3    H168102   3.058   6.571   3.896 -0.1719 -0.8370 -1.2491
15537TIP3    H268103   3.186   6.544   3.820  0.4778  1.2322 -0.9226
15538TIP3   OH268104   2.077   5.124  14.943  0.2769 -0.5253  0.0682
15538TIP3    H168105   2.172   5.132  14.955  0.1375  1.2169  0.1191
15538TIP3    H268106   2.062   5.158  14.855 -0.3681 -0.3485  0.2477
15539TIP3   OH268107   5.839   1.678   4.895 -0.1148 -0.5444  0.1673
15539TIP3    H168108   5.903   1.683   4.965 -0.1206  1.0512  0.0801
15539TIP3    H268109   5.769   1.738   4.921 -0.2702 -0.1746 -1.0353
15540TIP3   OH268110   5.625   4.631   2.424 -0.4320  0.0432 -0.0257
15540TIP3    H168111   5.624   4.703   2.487 -1.6289  0.0174 -0.0040
15540TIP3    H268112   5.551   4.576   2.450  1.3790 -2.0382  0.9034
15541TIP3   OH268113   4.887   4.717   1.578 -0.5248 -0.1839 -0.0287
15541TIP3    H168114   4.835   4.729   1.657  0.5767 -0.6531  0.7675
15541TIP3    H268115   4.951   4.649   1.600  0.2484  0.1771 -1.0965
15542TIP3   OH268116   2.267   1.393  12.834  0.1457  0.3876 -0.5002
15542TIP3    H168117   2.249   1.322  12.772  1.3470  0.7821 -1.3182
15542TIP3    H268118   2.335   1.358  12.891  0.2895  0.6602 -0.5071
15543TIP3   OH268119   2.915   5.710   3.109 -0.5553 -0.0315 -0.4456
15543TIP3    H168120   2.899   5.618   3.089  1.1785 -0.6065  0.7497
15543TIP3    H268121   2.967   5.742   3.036  2.3756 -1.1021  1.1030
15544TIP3   OH268122   6.067   0.538  14.415 -0.2547 -0.5724 -0.4076
15544TIP3    H168123   6.123   0.595  14.469 -0.4306 -0.6840 -0.1105
15544TIP3    H268124   6.120   0.460  14.398 -0.3167 -0.6705 -0.1397
15545TIP3   OH268125   6.368   5.025   2.040 -0.1167 -0.3509  0.2879
15545TIP3    H168126   6.337   4.955   1.982  0.7261 -0.6001  0.1284
15545TIP3    H268127   6.357   5.105   1.988  1.0292 -0.6195 -0.3866
15546TIP3   OH268128   1.928   4.492   0.918  0.2482 -0.0103  0.2628
15546TIP3    H168129   1.958   4.441   0.994  0.6047 -0.8725 -0.4486
15546TIP3    H268130   1.887   4.427   0.861 -0.4512  0.7167 -0.0585
15547TIP3   OH268131   3.157   2.556  16.321 -0.4548  0.1999  0.3054
15547TIP3    H168132   3.178   2.475  16.368 -2.3614  0.2776  1.3470
15547TIP3    H268133   3.105   2.607  16.383 -2.0296  0.8222 -1.4587
15548TIP3   OH268134   5.039   1.101  16.196  0.0723 -0.2940 -0.4463
15548TIP3    H168135   4.990   1.092  16.114  0.0392  0.9510 -0.5828
15548TIP3    H268136   5.068   1.013  16.217 -1.6496 -0.9390 -0.7219
15549TIP3   OH268137   6.017   4.430   4.670 -0.1137 -0.8774 -0.1173
15549TIP3    H168138   6.065   4.510   4.689  0.9285 -1.7465  1.0366
15549TIP3    H268139   5.967   4.413   4.750 -0.1151 -1.5128 -0.2496
15550TIP3   OH268140   3.179   5.589   6.439 -0.2930  0.0048 -0.1647
15550TIP3    H168141   3.172   5.665   6.496  1.4418 -1.2041  1.7071
15550TIP3    H268142   3.124   5.522   6.481  2.7410 -1.6092  1.3595
15551TIP3   OH268143   0.264   5.658   2.036 -0.7962 -0.2555 -0.2232
15551TIP3    H168144   0.178   5.642   2.075 -1.2999 -0.2014 -1.3128
15551TIP3    H268145   0.292   5.741   2.074 -1.0411 -0.4788  0.4526
15552TIP3   OH268146   5.681   2.585   6.399  0.8428  0.1487 -0.0113
15552TIP3    H168147   5.659   2.621   6.314  2.9618  0.2282 -0.5704
15552TIP3    H268148   5.598   2.579   6.446 -0.4394 -0.4395 -2.2789
15553TIP3   OH268149   4.738   3.913  13.972 -0.5018  0.0773 -0.4173
15553TIP3    H168150   4.824   3.939  13.939  0.0053 -0.4764  0.4380
15553TIP3    H268151   4.698   3.995  14.001 -0.5851  0.4395 -1.5432
15554TIP3   OH268152   5.272   5.914   0.659 -0.0037 -0.2709 -0.0660
15554TIP3    H168153   5.243   5.929   0.569 -0.5678  0.0230  0.1571
15554TIP3    H268154   5.246   5.993   0.706  1.1690 -0.0129  0.1540
15555TIP3   OH268155   5.784   4.028  15.417  0.1556  0.3176  0.0645
15555TIP3    H168156   5.781   4.044  15.511  0.0388  1.2860 -0.0956
15555TIP3    H268157   5.700   3.985  15.398  0.2168  0.0382  0.4145
15556TIP3   OH268158   0.153   5.991  15.967 -0.1916  0.5470 -0.1015
15556TIP3    H168159   0.143   6.046  16.045  0.2257  0.4490  0.0208
15556TIP3    H268160   0.232   5.939  15.985 -0.6413 -0.1604 -0.1747
15557TIP3   OH268161   5.481   6.454   4.307 -0.3459 -0.0218 -0.7933
15557TIP3    H168162   5.427   6.393   4.258 -1.2272  0.5953 -0.5874
15557TIP3    H268163   5.433   6.470   4.388 -0.3273  1.2714 -1.0248
15558TIP3   OH268164   3.117   4.335  10.943 -0.3804 -0.3612  0.2733
15558TIP3    H168165   3.079   4.249  10.962 -0.6079 -0.2754  0.2162
15558TIP3    H268166   3.041   4.391  10.926 -0.2845  0.0831  1.2680
15559TIP3   OH268167   6.111   4.648   1.208  0.1986  0.1874 -0.1899
15559TIP3    H168168   6.026   4.692   1.204  0.9054  1.7974  1.7009
15559TIP3    H268169   6.141   4.663   1.298  2.2926 -0.7068 -0.7237
15560TIP3   OH268170   4.805   5.167  11.007  0.5925  0.2096  0.1864
15560TIP3    H168171   4.779   5.251  11.045  2.6036  2.1544 -2.5154
15560TIP3    H268172   4.784   5.176  10.914  0.5931 -2.4295 -0.0975
15561TIP3   OH268173   3.152   2.670   4.992 -0.3375  0.0615 -0.2951
15561TIP3    H168174   3.121   2.740   4.935 -3.0542 -0.5962  0.2948
15561TIP3    H268175   3.166   2.712   5.077 -3.7654 -0.3789  0.5637
15562TIP3   OH268176   0.772   4.079   5.200 -0.3172 -0.6537  0.0485
15562TIP3    H168177   0.816   4.067   5.284 -0.1453  3.3635  0.6181
15562TIP3    H268178   0.815   4.155   5.161 -3.5170  0.3873 -1.5847
15563TIP3   OH268179   1.362   2.406  12.751  0.1425  0.1832 -0.1502
15563TIP3    H168180   1.272   2.422  12.721 -0.2085 -0.1235  0.7265
15563TIP3    H268181   1.383   2.320  12.715 -0.5313 -0.4929  1.0324
15564TIP3   OH268182   1.743   6.620   1.981  0.7438  0.2675 -0.5107
15564TIP3    H168183   1.715   6.708   1.956  0.0111  0.5147  1.1293
15564TIP3    H268184   1.803   6.593   1.911  0.0555  1.5957 -1.6263
15565TIP3   OH268185   2.051   0.311   4.507  0.3349 -0.3649 -0.0549
15565TIP3    H168186   2.092   0.344   4.427 -1.0089 -1.9219 -1.4483
15565TIP3    H268187   2.026   0.389   4.556  0.6447  0.6207 -1.4395
15566TIP3   OH268188   5.563   3.844   3.913  0.3468 -0.1774 -0.4232
15566TIP3    H168189   5.636   3.799   3.870  1.4969  0.5012  0.7653
15566TIP3    H268190   5.520   3.775   3.965  0.8002 -0.3674 -0.2912
15567TIP3   OH268191   4.349   2.234   2.724  0.4445  0.6584 -0.0539
15567TIP3    H168192   4.425   2.288   2.747  1.4149 -0.4940 -0.5348
15567TIP3    H268193   4.374   2.191   2.642 -1.4017  1.5771 -1.1390
15568TIP3   OH268194   0.248   1.869   3.436 -0.3103  0.6790 -0.6828
15568TIP3    H168195   0.342   1.862   3.448 -0.3698 -1.1162 -1.0443
15568TIP3    H268196   0.238   1.902   3.346 -0.0238 -0.8137 -1.2821
15569TIP3   OH268197   1.227   2.582  12.924 -0.0718  0.4122 -0.6479
15569TIP3    H168198   1.165   2.536  12.867 -3.0556  3.2363  0.2251
15569TIP3    H268199   1.301   2.603  12.866 -0.4083 -1.8675 -2.0067
15570TIP3   OH268200   5.762   5.298  11.126 -0.2416  0.5311  0.0624
15570TIP3    H168201   5.832   5.335  11.073  1.6194 -2.6213  0.1541
15570TIP3    H268202   5.696   5.270  11.063  0.6897 -0.6415 -0.4144
15571TIP3   OH268203   0.665   3.408   5.268 -0.0075  0.3658  0.8690
15571TIP3    H168204   0.582   3.360   5.275 -0.1629  0.4880 -0.0194
15571TIP3    H268205   0.644   3.497   5.297 -1.1203  1.3990 -2.7444
15572TIP3   OH268206   6.450   1.413   1.839  0.5575  0.2935  0.1498
15572TIP3    H168207   6.380   1.365   1.795  1.8005 -1.6373  0.2080
15572TIP3    H268208   6.449   1.500   1.797 -0.8869 -0.1838 -0.8710
15573TIP3   OH268209   4.203   6.076  12.626  0.0211  0.1674 -0.6498
15573TIP3    H168210   4.168   5.992  12.656 -1.0139  0.7493 -0.2031
15573TIP3    H268211   4.176   6.082  12.535 -1.7657  0.9716 -0.0893
15574TIP3   OH268212   2.923   1.636   4.449 -0.3001 -0.0260 -0.1972
15574TIP3    H168213   2.925   1.711   4.390 -2.0482 -0.1192 -0.3931
15574TIP3    H268214   2.848   1.653   4.507  0.7558 -0.4399  1.3300
15575TIP3   OH268215   5.890   1.906  15.308  0.0779 -0.0500  0.3740
15575TIP3    H168216   5.807   1.889  15.262 -0.3614  0.2670  1.0500
15575TIP3    H268217   5.952   1.927  15.237 -0.5011  0.0490 -0.1088
15576TIP3   OH268218   5.008   4.987   3.738  0.4677  0.4837 -0.9775
15576TIP3    H168219   4.997   4.981   3.643 -0.9185  2.3946 -0.9536
15576TIP3    H268220   4.934   4.939   3.774  1.4218 -0.9204 -0.8351
15577TIP3   OH268221   1.920   2.793  13.358  0.0928 -0.5362  0.8103
15577TIP3    H168222   1.962   2.794  13.271 -0.3765  1.1454  0.5769
15577TIP3    H268223   1.985   2.834  13.416 -1.0231  1.7073  0.5255
15578TIP3   OH268224   2.566   4.907  14.997  0.4777 -0.3922 -0.0308
15578TIP3    H168225   2.641   4.962  14.973  1.0806 -1.3244 -0.3162
15578TIP3    H268226   2.556   4.919  15.092  0.9965 -0.2688  0.0064
15579TIP3   OH268227   3.173   0.836   0.187  0.1551 -0.7799 -0.9846
15579TIP3    H168228   3.267   0.855   0.181  0.3147 -1.1108  0.3628
15579TIP3    H268229   3.131   0.922   0.188  0.5180 -0.6058 -0.5232
15580TIP3   OH268230   1.669   2.816   4.470 -0.7302  0.8105  0.7431
15580TIP3    H168231   1.612   2.793   4.542 -1.3740 -2.1793 -0.6315
15580TIP3    H268232   1.647   2.906   4.449 -3.6677  0.2755  1.4006
15581TIP3   OH268233   6.088   0.359   4.886 -0.4506  0.4356 -0.0634
15581TIP3    H168234   6.145   0.376   4.962 -0.1665 -0.4265 -0.0789
15581TIP3    H268235   6.134   0.291   4.837  0.0059  1.9064 -1.7169
15582TIP3   OH268236   6.127   5.509   5.174 -0.1655 -0.6967 -0.0519
15582TIP3    H168237   6.067   5.465   5.235 -1.1575  0.8296  0.0776
15582TIP3    H268238   6.080   5.510   5.091  0.4834 -1.2151 -0.4320
15583TIP3   OH268239   0.594   2.171   3.891 -0.1564 -0.3361  0.0497
15583TIP3    H168240   0.635   2.107   3.948 -1.7265 -1.5296 -0.1364
15583TIP3    H268241   0.637   2.159   3.806  0.9830  0.2773  0.5329
15584TIP3   OH268242   6.675   4.714   0.827  0.0011  0.4399 -0.7309
15584TIP3    H168243   6.663   4.643   0.764 -2.7815 -3.1682  3.4708
15584TIP3    H268244   6.769   4.716   0.844  0.2062 -1.8484 -1.4540
15585TIP3   OH268245   3.573   3.440  10.663 -0.0542 -0.0583 -0.0436
15585TIP3    H168246   3.576   3.453  10.758 -2.3719 -1.6451  0.2900
15585TIP3    H268247   3.506   3.502  10.633 -1.2393 -1.4159 -0.2618
15586TIP3   OH268248   1.462   0.489   4.761 -0.1326  0.1976 -0.3730
15586TIP3    H168249   1.434   0.403   4.729  0.1136  0.4269 -1.2317
15586TIP3    H268250   1.557   0.489   4.750 -0.1445  0.6242 -0.4943
15587TIP3   OH268251   1.053   6.579   4.601  0.3079  0.1646  0.4720
15587TIP3    H168252   0.958   6.568   4.601  0.3932 -0.6516  0.9202
15587TIP3    H268253   1.068   6.665   4.562 -0.6344  0.4891  0.8195
15588TIP3   OH268254   6.773   2.464  11.070 -0.7336 -0.2447  0.1332
15588TIP3    H168255   6.828   2.427  11.000  0.0235  1.9463 -0.4837
15588TIP3    H268256   6.686   2.468  11.032 -0.0303  2.4459 -1.3627
15589TIP3   OH268257   4.850   1.419  11.884 -0.0819 -0.4329 -0.0633
15589TIP3    H168258   4.772   1.367  11.864  1.0054 -2.1053 -0.0030
15589TIP3    H268259   4.831   1.457  11.970 -1.9352  1.3591 -1.1987
15590TIP3   OH268260   3.066   0.833   2.658 -0.0891  0.7113  0.3167
15590TIP3    H168261   3.118   0.912   2.643 -0.3250  0.7077 -0.5232
15590TIP3    H268262   3.126   0.761   2.640  0.4257  0.6682  2.0509
15591TIP3   OH268263   6.022   6.811   5.426  0.1883 -0.0977  0.2394
15591TIP3    H168264   6.088   6.778   5.488  2.2181  0.7602 -1.3952
15591TIP3    H268265   5.948   6.837   5.481 -0.3426 -4.5963  1.8058
15592TIP3   OH268266   5.236   2.807   0.851  0.4172 -0.0713  0.3157
15592TIP3    H168267   5.312   2.842   0.804 -0.4189  1.4886  0.0608
15592TIP3    H268268   5.169   2.875   0.841 -0.1266 -0.1726  2.8559
15593TIP3   OH268269   1.818   4.399  16.285  0.0585 -0.2710 -0.3059
15593TIP3    H168270   1.747   4.425  16.344 -0.3664 -0.8888 -0.5410
15593TIP3    H268271   1.775   4.385  16.201  0.5672 -0.0013 -0.6100
15594TIP3   OH268272   5.098   2.998   2.037 -0.0521  0.2340  0.3131
15594TIP3    H168273   5.008   3.015   2.012 -0.1094 -0.2528  0.1930
15594TIP3    H268274   5.138   2.958   1.960  0.6914  1.8930 -0.1905
15595TIP3   OH268275   5.485   2.754   2.871 -0.2489  0.0631  0.3870
15595TIP3    H168276   5.396   2.734   2.843 -0.6706 -1.6567  2.8134
15595TIP3    H268277   5.477   2.837   2.919  0.1272  1.8536 -2.4666
15596TIP3   OH268278   4.123   2.042   5.233  0.8379  0.6531 -0.4395
15596TIP3    H168279   4.180   1.999   5.169 -0.1470 -0.8551 -0.3187
15596TIP3    H268280   4.144   2.135   5.225  1.6733  0.3424 -2.0119
15597TIP3   OH268281   3.791   3.702   5.525 -0.0496 -0.2736  0.3436
15597TIP3    H168282   3.816   3.687   5.616 -0.0520  0.7934  0.5274
15597TIP3    H268283   3.709   3.751   5.530  0.1772  0.1824 -0.2257
15598TIP3   OH268284   2.244   6.572  13.762  0.1180 -0.1455 -0.2405
15598TIP3    H168285   2.297   6.579  13.683 -2.4687  2.3474 -1.8716
15598TIP3    H268286   2.178   6.505  13.741 -1.2700  1.3220 -0.6868
15599TIP3   OH268287   6.094   4.259  13.402  0.1411  0.1477  0.1521
15599TIP3    H168288   6.138   4.331  13.447  0.4797 -0.2659  0.5006
15599TIP3    H268289   6.002   4.284  13.399 -0.2822 -0.7945  3.0947
15600TIP3   OH268290   5.144   3.046  12.780 -0.0565 -0.3398  0.3713
15600TIP3    H168291   5.195   2.987  12.835  0.2441  0.9245  1.4977
15600TIP3    H268292   5.144   3.005  12.693 -0.4034 -2.2806  1.2746
15601TIP3   OH268293   0.499   4.305   1.599  0.2497  0.3355  0.5437
15601TIP3    H168294   0.576   4.272   1.553 -0.2413  1.4247 -1.0921
15601TIP3    H268295   0.499   4.399   1.584 -0.7758  0.5106  1.5047
15602TIP3   OH268296   4.698   0.667  16.531 -0.0363 -0.2906 -0.3558
15602TIP3    H168297   4.683   0.654  16.624 -0.7418  1.0719 -0.2738
15602TIP3    H268298   4.674   0.759  16.515  1.0442 -0.2146 -1.6696
15603TIP3   OH268299   6.142   5.996   0.461  0.3267  0.1328 -0.5527
15603TIP3    H168300   6.106   5.963   0.379  1.5265 -1.5518 -0.4126
15603TIP3    H268301   6.235   6.010   0.443  0.3152  1.1518  0.1043
15604TIP3   OH268302   6.344   6.731  15.875 -0.2666  0.0567 -0.3842
15604TIP3    H168303   6.369   6.644  15.845 -2.5690 -0.7520 -0.0630
15604TIP3    H268304   6.300   6.770  15.800 -0.7041  0.3222  0.0140
15605TIP3   OH268305   6.247   4.366   6.167 -0.2377  0.1790 -0.1046
15605TIP3    H168306   6.300   4.307   6.222 -0.6378  0.8971  1.0744
15605TIP3    H268307   6.183   4.404   6.228 -1.1561  0.4461 -1.2198
15606TIP3   OH268308   6.537   2.423  14.396  0.1710 -0.2783  0.0604
15606TIP3    H168309   6.534   2.515  14.421  3.0883  0.1208 -0.8329
15606TIP3    H268310   6.445   2.396  14.388 -0.7204  2.0528  2.0441
15607TIP3   OH268311   4.521   4.226   4.418  0.1753  0.4021  0.1538
15607TIP3    H168312   4.487   4.163   4.482  0.3920 -0.1350 -0.2488
15607TIP3    H268313   4.536   4.306   4.468  1.0075 -0.2256  0.9360
15608TIP3   OH268314   4.116   2.525   3.907 -0.0222  0.3646  0.4170
15608TIP3    H168315   4.203   2.547   3.874 -0.0698  1.4423  0.9940
15608TIP3    H268316   4.118   2.552   3.999 -1.0516  0.6374  0.3589
15609TIP3   OH268317   3.983   0.931   5.436 -0.2541  0.5155  0.1615
15609TIP3    H168318   3.913   0.946   5.372 -1.4858 -0.4412  1.2652
15609TIP3    H268319   3.952   0.858   5.489  2.1455 -0.7705 -0.1272
15610TIP3   OH268320   0.392   2.659  11.940  0.2038  0.0259  0.2258
15610TIP3    H168321   0.399   2.586  12.002  2.0864  1.9772  2.4094
15610TIP3    H268322   0.324   2.714  11.976 -1.3494 -0.6868 -1.5281
15611TIP3   OH268323   3.373   3.464  13.043 -0.8247 -0.8272 -0.2730
15611TIP3    H168324   3.356   3.432  13.132  1.2910 -0.7878  0.1694
15611TIP3    H268325   3.466   3.446  13.028  0.1228  3.5957 -0.5909
15612TIP3   OH268326   4.426   4.005   1.483  0.1379  0.3424 -0.0414
15612TIP3    H168327   4.415   4.096   1.458  0.6287  0.4907  0.2822
15612TIP3    H268328   4.338   3.976   1.509  0.1233  0.9358  0.5776
15613TIP3   OH268329   2.296   3.409   2.392 -0.0952 -0.8947 -0.1216
15613TIP3    H168330   2.261   3.382   2.477 -0.3991 -1.2323 -0.3511
15613TIP3    H268331   2.354   3.482   2.412 -1.4335  0.0964  0.1822
15614TIP3   OH268332   1.126   3.535   5.451 -0.0123 -0.6447  0.0549
15614TIP3    H168333   1.189   3.508   5.385 -1.4086 -1.7019 -0.8632
15614TIP3    H268334   1.071   3.458   5.465 -0.4973 -0.0502  1.5612
15615TIP3   OH268335   6.721   1.092  11.234 -0.2364 -0.1057 -0.5742
15615TIP3    H168336   6.631   1.067  11.213 -0.8566  0.1240  1.6409
15615TIP3    H268337   6.721   1.188  11.226  0.2857 -0.2272 -2.2321
15616TIP3   OH268338   2.048   4.259  15.282 -0.2333  0.3837 -0.2949
15616TIP3    H168339   2.015   4.349  15.274 -1.0818  0.1488  0.5010
15616TIP3    H268340   2.135   4.262  15.241  0.1375  1.7905  0.5234
15617TIP3   OH268341   3.770   2.312  16.794 -0.2539  0.3827 -0.8191
15617TIP3    H168342   3.858   2.284  16.820 -0.8720 -2.2263 -1.4206
15617TIP3    H268343   3.712   2.274  16.860 -0.9958  1.6814 -0.7026
15618TIP3   OH268344   4.991   1.089   6.451  0.4582  0.5958 -0.1981
15618TIP3    H168345   5.076   1.123   6.480  0.7744 -0.4695  0.1456
15618TIP3    H268346   5.008   0.997   6.430 -1.1004 -0.3051  2.2118
15619TIP3   OH268347   2.988   2.178   0.683 -0.7973  0.3599 -0.3739
15619TIP3    H168348   3.041   2.209   0.756 -1.1869 -0.3772  0.2248
15619TIP3    H268349   2.948   2.257   0.647  1.0659  0.9797 -1.1243
15620TIP3   OH268350   4.482   4.054  15.054  0.0549  0.2716  0.4985
15620TIP3    H168351   4.404   4.000  15.040 -0.1611  0.2878  1.6305
15620TIP3    H268352   4.458   4.113  15.125 -0.1430  2.7180 -1.5230
15621TIP3   OH268353   5.629   2.586   6.879 -0.0609 -0.1275  0.1708
15621TIP3    H168354   5.564   2.593   6.809 -1.9756 -0.6100  1.8572
15621TIP3    H268355   5.669   2.672   6.884  0.6828 -0.3033 -2.0382
15622TIP3   OH268356   3.527   1.903   2.692  0.1407 -0.5027  0.0935
15622TIP3    H168357   3.477   1.971   2.646  1.6016 -0.8077 -2.0016
15622TIP3    H268358   3.490   1.902   2.780 -1.1432  1.7392 -0.3760
15623TIP3   OH268359   3.842   4.571   2.613 -0.1530  0.6278  0.2829
15623TIP3    H168360   3.823   4.479   2.597  1.0652  0.4480 -0.1459
15623TIP3    H268361   3.863   4.576   2.706 -1.1112  0.6342  0.5075
15624TIP3   OH268362   3.799   4.310   5.661 -0.8367  0.3744 -0.1650
15624TIP3    H168363   3.775   4.326   5.752  0.0058 -0.3679  0.2040
15624TIP3    H268364   3.889   4.343   5.653 -0.0130 -1.7378 -0.0645
15625TIP3   OH268365   0.702   0.193  12.482  0.6301  0.0476  0.6107
15625TIP3    H168366   0.742   0.137  12.548  1.9088  0.8180  0.5061
15625TIP3    H268367   0.718   0.282  12.513  0.9474  0.4066 -0.5509
15626TIP3   OH268368   1.231   1.007   4.563  0.0420  0.2996  0.2329
15626TIP3    H168369   1.307   0.964   4.523  0.1853  0.8463 -0.0793
15626TIP3    H268370   1.261   1.095   4.584 -0.2866  0.2833  0.7847
15627TIP3   OH268371   2.257   1.059   5.233 -0.3135  0.3932 -0.0842
15627TIP3    H168372   2.172   1.047   5.191 -0.5385  0.9864  0.1851
15627TIP3    H268373   2.254   1.002   5.310  0.4040 -1.3009 -1.2774
15628TIP3   OH268374   5.267   4.033  14.068  0.8680  0.2379 -0.8512
15628TIP3    H168375   5.334   3.969  14.094 -0.5898 -0.6015  0.9655
15628TIP3    H268376   5.298   4.116  14.104  1.0492 -0.1009 -0.2167
15629TIP3   OH268377   0.210   1.506   3.663  0.2604 -0.6795  0.0591
15629TIP3    H168378   0.287   1.466   3.622 -0.4441  0.0418 -2.0363
15629TIP3    H268379   0.155   1.431   3.686  0.8095 -1.1145 -0.0035
15630TIP3   OH268380   4.787   4.992   0.172  0.4228  0.4016  0.6007
15630TIP3    H168381   4.694   4.981   0.191  0.5588 -1.6291  0.2238
15630TIP3    H268382   4.789   5.037   0.087 -0.2269 -0.3762  0.1651
15631TIP3   OH268383   6.819   4.898   5.576 -0.4066  0.1626 -0.2886
15631TIP3    H168384   6.821   4.841   5.652  0.2941  0.2465 -0.2421
15631TIP3    H268385   6.727   4.923   5.567 -0.6426 -0.6008 -0.0363
15632TIP3   OH268386   1.134   1.018   5.873 -0.1776  0.0509  0.3366
15632TIP3    H168387   1.175   0.973   5.800 -0.4685 -0.8988  0.7559
15632TIP3    H268388   1.167   0.973   5.951 -0.4916  0.5437  0.7578
15633TIP3   OH268389   5.439   0.486   4.868 -0.1230  0.1552 -0.6037
15633TIP3    H168390   5.463   0.578   4.880  2.1634 -0.5191  0.3075
15633TIP3    H268391   5.460   0.445   4.952 -0.7339 -1.2723 -1.1431
15634TIP3   OH268392   1.568   5.897  12.908 -0.0820  0.1124 -0.0648
15634TIP3    H168393   1.562   5.992  12.909 -1.4435  0.0380  0.1097
15634TIP3    H268394   1.493   5.867  12.960 -0.2013 -1.0710 -0.8844
15635TIP3   OH268395   2.938   3.257   4.444 -0.5334  0.3926 -0.2830
15635TIP3    H168396   2.994   3.327   4.477 -1.0191  1.0609 -0.8499
15635TIP3    H268397   2.989   3.216   4.374 -0.8692  1.1997 -1.0065
15636TIP3   OH268398   2.623   1.842   2.407 -0.6953 -0.2265  0.2706
15636TIP3    H168399   2.610   1.827   2.501  1.6242 -1.8574  0.3659
15636TIP3    H268400   2.540   1.816   2.367 -1.4162 -0.3285  1.7825
15637TIP3   OH268401   0.533   3.457  12.775 -0.3048  0.4021  0.1942
15637TIP3    H168402   0.503   3.395  12.842  0.7098 -0.5709 -0.2437
15637TIP3    H268403   0.503   3.542  12.806 -2.7297 -0.4132  0.2438
15638TIP3   OH268404   2.928   1.797   2.360 -0.1044 -0.0495 -0.4995
15638TIP3    H168405   2.915   1.779   2.266 -0.0950 -1.4066 -0.2505
15638TIP3    H268406   2.840   1.796   2.397  0.0330 -1.3355 -0.1859
15639TIP3   OH268407   5.767   0.053  12.088  0.4700  0.1334 -0.9147
15639TIP3    H168408   5.727  -0.011  12.029  0.4989 -0.0954 -0.6868
15639TIP3    H268409   5.802   0.001  12.160  2.1314  0.2438 -1.6408
15640TIP3   OH268410   3.312   5.943  14.233 -0.1716  0.4970 -0.1367
15640TIP3    H168411   3.264   5.894  14.165 -0.5562  0.1704  0.3658
15640TIP3    H268412   3.366   5.877  14.277 -1.6840  0.2438  1.4190
15641TIP3   OH268413   2.874   4.041  15.619  0.3034  0.4214 -0.1766
15641TIP3    H168414   2.815   3.965  15.617  0.7071  0.1156 -0.4926
15641TIP3    H268415   2.946   4.014  15.676  0.6193  0.4390 -0.5617
15642TIP3   OH268416   1.654   2.594  14.625  0.2182 -0.1183  0.2429
15642TIP3    H168417   1.578   2.574  14.570 -0.7568  2.0823  0.7244
15642TIP3    H268418   1.713   2.643  14.567  0.6765 -0.6625  0.2427
15643TIP3   OH268419   0.633   1.948  12.315 -0.1233 -0.0041  0.5590
15643TIP3    H168420   0.559   1.990  12.359 -0.5988 -2.3932  2.1587
15643TIP3    H268421   0.622   1.970  12.223 -1.2093  2.0327  1.1353
15644TIP3   OH268422   0.050   1.672  16.945  0.4195  0.0501  0.4721
15644TIP3    H168423   0.056   1.767  16.935 -0.6299  0.1838  0.9968
15644TIP3    H268424   0.140   1.641  16.937  0.6418  0.9875 -0.6883
15645TIP3   OH268425   4.196   6.689   3.055  0.0817 -0.1823  0.2462
15645TIP3    H168426   4.123   6.636   3.023  0.1031 -0.2107  0.2432
15645TIP3    H268427   4.244   6.631   3.114  0.4298 -0.3392 -0.1994
15646TIP3   OH268428   6.693   4.846  12.617  0.0907  0.8624 -0.2319
15646TIP3    H168429   6.752   4.792  12.670 -1.7049 -0.4054  0.5280
15646TIP3    H268430   6.678   4.794  12.538 -0.7761  0.7133  0.0219
15647TIP3   OH268431   5.281   1.030   6.268 -0.6399  0.0524 -0.4937
15647TIP3    H168432   5.269   1.094   6.339 -0.7131  0.2867 -0.7181
15647TIP3    H268433   5.261   0.946   6.309 -1.2846  0.2487 -0.3841
15648TIP3   OH268434   2.507   5.541   0.057 -0.3002  0.5954  0.2431
15648TIP3    H168435   2.595   5.524   0.025  0.5171 -0.1242  2.7032
15648TIP3    H268436   2.461   5.458   0.048  0.4282 -0.0763  2.3298
15649TIP3   OH268437   6.752   3.684  14.975 -0.4337 -0.3421 -0.1777
15649TIP3    H168438   6.694   3.616  15.010  0.3858 -1.5381 -1.0882
15649TIP3    H268439   6.766   3.658  14.884  1.0663  0.2520 -0.1236
15650TIP3   OH268440   5.770   0.371   2.114  0.8182  0.5691 -0.0982
15650TIP3    H168441   5.755   0.309   2.185  2.1405 -1.1850 -1.2764
15650TIP3    H268442   5.693   0.362   2.057  0.5677  0.6954  0.2211
15651TIP3   OH268443   1.195   0.105   6.028 -0.5739  0.8165  0.2247
15651TIP3    H168444   1.151   0.189   6.033 -1.9897 -0.0154  2.0476
15651TIP3    H268445   1.125   0.040   6.020  0.3597 -0.4162  1.7521
15652TIP3   OH268446   0.561   4.092  11.619 -0.1879  0.1022 -0.1387
15652TIP3    H168447   0.505   4.061  11.547  1.0543 -2.2476 -0.1454
15652TIP3    H268448   0.638   4.128  11.576 -0.6223  1.1599 -0.0487
15653TIP3   OH268449   5.735   3.522  11.493 -0.5117 -0.0828 -0.2637
15653TIP3    H168450   5.734   3.441  11.442 -0.7976  0.4343 -1.0726
15653TIP3    H268451   5.670   3.578  11.451  1.5476  1.5665 -1.2955
15654TIP3   OH268452   0.287   1.548  14.452 -0.4317  0.6428  0.2121
15654TIP3    H168453   0.265   1.641  14.453 -0.5989  0.6039  0.1306
15654TIP3    H268454   0.211   1.506  14.412  0.3144  0.6444 -1.2292
15655TIP3   OH268455   6.380   5.615   5.949  0.5141 -0.1926  0.1107
15655TIP3    H168456   6.301   5.648   5.904  0.3381 -1.4087 -0.5006
15655TIP3    H268457   6.354   5.529   5.983  1.3977 -0.3412  0.4187
15656TIP3   OH268458   4.790   3.496  10.766  0.5413  0.1843  0.4056
15656TIP3    H168459   4.856   3.435  10.797 -0.5901 -1.1978  0.1283
15656TIP3    H268460   4.707   3.461  10.798  0.0346  2.5970  1.8907
15657TIP3   OH268461   4.031   5.877  13.345  0.0629  0.1772 -0.4663
15657TIP3    H168462   4.011   5.880  13.251 -0.7910  2.8443 -0.2669
15657TIP3    H268463   3.948   5.901  13.387  1.0171  1.2680  0.8414
15658TIP3   OH268464   5.537   3.514  10.775 -0.0673 -0.0720 -0.1176
15658TIP3    H168465   5.528   3.458  10.852 -0.3516  0.5447  0.3045
15658TIP3    H268466   5.452   3.507  10.731  0.1721 -0.6037 -0.5007
15659TIP3   OH268467   4.198   0.452   5.151 -0.0068  0.4745  0.4866
15659TIP3    H168468   4.115   0.424   5.112 -0.2503  1.9314 -0.0461
15659TIP3    H268469   4.211   0.392   5.224 -0.4527 -1.1407 -0.7254
15660TIP3   OH268470   4.230   3.748   4.553  0.1013 -0.3914  0.2164
15660TIP3    H168471   4.179   3.753   4.634  1.1402 -0.3699  0.8917
15660TIP3    H268472   4.242   3.655   4.537  1.6310 -0.3914  1.2343
15661TIP3   OH268473   3.017   0.422   4.812  0.7920 -0.6060 -0.6074
15661TIP3    H168474   3.027   0.468   4.895 -1.0696 -1.3888  0.0724
15661TIP3    H268475   3.080   0.464   4.754  1.7251  0.3238  1.0370
15662TIP3   OH268476   2.899   2.478   1.298 -1.0255 -0.2462  0.3152
15662TIP3    H168477   2.897   2.457   1.391 -1.0278  0.9039  0.5878
15662TIP3    H268478   2.870   2.398   1.254 -1.9572 -0.4890  1.3489
15663TIP3   OH268479   3.396   0.942   2.085  0.0527  0.1315 -0.8858
15663TIP3    H168480   3.439   1.016   2.127  0.1048  0.0149 -0.7338
15663TIP3    H268481   3.463   0.874   2.082  0.2195  0.3264 -1.6578
15664TIP3   OH268482   5.782   5.807  13.809 -0.0188 -0.2492  0.3979
15664TIP3    H168483   5.704   5.752  13.794  2.3585 -3.4195 -1.0317
15664TIP3    H268484   5.807   5.789  13.899  0.5595 -1.3579  0.0358
15665TIP3   OH268485   0.957   0.041  16.084  0.9884 -0.4431 -0.3580
15665TIP3    H168486   0.908  -0.029  16.128  0.5160  0.2295  0.1995
15665TIP3    H268487   0.999   0.089  16.155 -2.5040  2.7327 -0.2840
15666TIP3   OH268488   2.364   5.130   1.449  0.3308 -0.4952  0.0828
15666TIP3    H168489   2.412   5.130   1.366  0.2214 -0.0232  0.0190
15666TIP3    H268490   2.273   5.146   1.425  0.0345 -1.9318  0.1529
15667TIP3   OH268491   2.503   3.047  10.860 -0.2533  0.3629 -0.3374
15667TIP3    H168492   2.536   2.989  10.791  2.0710  1.9566 -0.6117
15667TIP3    H268493   2.452   3.113  10.814  2.2649  2.1133 -0.7419
15668TIP3   OH268494   1.252   5.962   3.092 -0.3441 -0.4787 -0.8855
15668TIP3    H168495   1.270   6.056   3.095 -0.1578 -0.5810  1.6748
15668TIP3    H268496   1.173   5.951   3.144  1.1923 -2.0601  1.1933
15669TIP3   OH268497   6.155   6.800   5.169 -0.0517 -0.4347  0.2232
15669TIP3    H168498   6.141   6.880   5.119 -0.9271 -0.5585  0.2647
15669TIP3    H268499   6.089   6.803   5.238  0.3473 -0.8687  0.6239
15670TIP3   OH268500   0.679   6.233   5.424 -0.8133  0.0338 -0.6670
15670TIP3    H168501   0.637   6.188   5.350 -2.4785 -0.6744  0.6714
15670TIP3    H268502   0.719   6.162   5.475  0.5725  0.5492 -1.0213
15671TIP3   OH268503   2.275   5.313   0.223  0.2113 -0.7568 -0.1923
15671TIP3    H168504   2.282   5.226   0.262  1.1767 -0.5070  0.2049
15671TIP3    H268505   2.305   5.303   0.133  0.7166 -0.7527 -0.0244
15672TIP3   OH268506   1.082   5.493  16.375 -0.2829 -0.2491  0.3091
15672TIP3    H168507   1.035   5.512  16.457 -1.2820 -0.0856 -0.2974
15672TIP3    H268508   1.127   5.411  16.393 -0.4593 -0.1978  1.0430
15673TIP3   OH268509   3.473   3.739  12.387  1.4356 -0.7431  0.4738
15673TIP3    H168510   3.418   3.663  12.408  1.5057 -0.6118  1.1478
15673TIP3    H268511   3.440   3.770  12.302  0.9035 -1.0697  0.5581
15674TIP3   OH268512   0.328   5.233   6.649  0.1928  0.1323  0.2118
15674TIP3    H168513   0.296   5.160   6.701  2.1241 -1.4021 -0.7052
15674TIP3    H268514   0.249   5.278   6.620 -0.9799 -0.8524  1.8259
15675TIP3   OH268515   3.135   0.050  13.030  0.4914 -0.1593  0.6399
15675TIP3    H168516   3.041   0.046  13.045  0.3130 -0.3539 -0.4904
15675TIP3    H268517   3.148   0.006  12.946  1.1844  2.7619 -0.8577
15676TIP3   OH268518   3.450   4.072  14.192  0.0166  0.2053 -0.2789
15676TIP3    H168519   3.468   4.123  14.271 -1.0254  0.6856 -0.3461
15676TIP3    H268520   3.393   4.128  14.140  0.3963 -0.2635 -1.2116
15677TIP3   OH268521   3.700   5.088  11.331 -0.1579  0.1991  0.3474
15677TIP3    H168522   3.747   5.092  11.248 -1.6479  0.4355 -0.5102
15677TIP3    H268523   3.756   5.036  11.388  0.2872 -1.0856 -1.2155
15678TIP3   OH268524   3.960   2.710  13.833  0.0477  0.1970 -0.2478
15678TIP3    H168525   3.928   2.621  13.822  1.6135 -0.3341 -0.6632
15678TIP3    H268526   3.986   2.715  13.925  1.4827 -0.3082 -0.6128
15679TIP3   OH268527   2.284   4.944  13.449 -0.1268  0.0015 -0.8446
15679TIP3    H168528   2.357   4.909  13.398  1.8299  0.4017  1.5342
15679TIP3    H268529   2.219   4.875  13.449  0.5369 -0.6458 -2.4495
15680TIP3   OH268530   3.399   4.881  16.852  0.2073  0.6909  0.1781
15680TIP3    H168531   3.354   4.949  16.800  0.6028 -0.3684 -1.5970
15680TIP3    H268532   3.421   4.814  16.788  1.4158 -0.3024  1.6227
15681TIP3   OH268533   3.652   2.309   1.213  0.2421 -0.7699 -0.1629
15681TIP3    H168534   3.607   2.360   1.281 -0.0833 -1.9190  0.4926
15681TIP3    H268535   3.684   2.375   1.151 -1.1092  0.1685  0.1073
15682TIP3   OH268536   6.788   2.068   2.900 -0.1767 -0.0693 -0.2263
15682TIP3    H168537   6.790   2.005   2.828 -1.6878 -0.2299 -0.1371
15682TIP3    H268538   6.746   2.021   2.972  1.8624 -0.1218  1.0001
15683TIP3   OH268539   1.914   2.905   1.925  0.1558 -0.2971  0.0751
15683TIP3    H168540   2.002   2.930   1.894 -0.1155 -0.5731 -0.9504
15683TIP3    H268541   1.928   2.827   1.978  0.3745 -1.1989 -1.2850
15684TIP3   OH268542   5.316   3.698  15.557  0.0539  0.2392  0.6049
15684TIP3    H168543   5.345   3.677  15.468  1.1408  1.0937  0.7401
15684TIP3    H268544   5.274   3.784  15.549  0.1233  0.3025  0.9075
15685TIP3   OH268545   5.332   1.523   3.950  0.1655 -0.2003  0.2555
15685TIP3    H168546   5.375   1.557   4.029  1.3020 -0.1949 -0.3615
15685TIP3    H268547   5.252   1.481   3.983  1.2990 -1.3862  1.5682
15686TIP3   OH268548   2.106   3.233  13.203 -0.1665 -0.3688  0.0353
15686TIP3    H168549   2.033   3.293  13.217  1.9695  1.7824  2.4406
15686TIP3    H268550   2.139   3.256  13.116 -1.0672  0.0533 -0.2040
15687TIP3   OH268551   4.497   4.314   6.411 -0.0522  0.0165 -0.3624
15687TIP3    H168552   4.542   4.240   6.452  0.5868  0.2427 -0.6462
15687TIP3    H268553   4.414   4.277   6.380  1.3041 -1.2252 -2.7173
15688TIP3   OH268554   4.391   3.886   2.352 -0.5867 -0.6108  0.3771
15688TIP3    H168555   4.410   3.830   2.277 -1.5290 -0.4894  0.0373
15688TIP3    H268556   4.422   3.837   2.428 -0.3846 -1.0953 -0.0199
15689TIP3   OH268557   5.011   5.371   4.817  0.3904  0.1020  0.4764
15689TIP3    H168558   5.067   5.400   4.745  0.7042 -1.1836  0.1813
15689TIP3    H268559   5.054   5.404   4.896  0.1449  1.3515  0.0926
15690TIP3   OH268560   6.766   0.540   1.600  0.1395 -0.2239 -0.0463
15690TIP3    H168561   6.693   0.590   1.564  1.4291  1.1632 -0.7607
15690TIP3    H268562   6.844   0.591   1.579  1.6698 -3.2556 -2.1447
15691TIP3   OH268563   4.126   3.561   0.596 -0.1694 -0.0256 -0.4771
15691TIP3    H168564   4.069   3.490   0.626 -0.1286  0.5316  0.9261
15691TIP3    H268565   4.210   3.518   0.578  0.1548 -0.1784  1.3324
15692TIP3   OH268566   1.898   4.249   5.831 -0.2037  0.2902  0.0669
15692TIP3    H168567   1.893   4.170   5.777 -2.1601  0.8161 -0.5326
15692TIP3    H268568   1.967   4.301   5.790  0.4297 -0.6530 -0.1058
15693TIP3   OH268569   2.780   4.943  14.660 -0.7067  0.0634  0.0563
15693TIP3    H168570   2.816   4.969  14.745 -1.5685  1.4038  0.0403
15693TIP3    H268571   2.708   5.005  14.645 -1.1010 -0.6903 -1.2630
15694TIP3   OH268572   1.178   5.156   3.031  0.3371  0.3108  0.7894
15694TIP3    H168573   1.143   5.068   3.016 -0.8381  1.0178 -0.7011
15694TIP3    H268574   1.188   5.193   2.943  1.0685  1.5869  1.3992
15695TIP3   OH268575   6.633   4.620  12.040  0.6264 -0.2978 -0.5378
15695TIP3    H168576   6.604   4.529  12.051  1.2559 -0.7710 -2.6420
15695TIP3    H268577   6.717   4.613  11.996  1.1872  1.2897  0.2479
15696TIP3   OH268578   3.983   3.066  14.489  0.4728 -0.0198 -0.1061
15696TIP3    H168579   3.944   3.154  14.486  3.4546  1.5451  3.2582
15696TIP3    H268580   3.919   3.014  14.537 -1.5557  0.0852 -2.5487
15697TIP3   OH268581   6.135   1.194  17.180  0.5603  0.6525 -0.1032
15697TIP3    H168582   6.212   1.178  17.126  1.5187 -1.0261  1.6686
15697TIP3    H268583   6.158   1.271  17.232  0.9206  0.3749  0.1562
15698TIP3   OH268584   0.915   5.232   4.046  0.4925  0.5077  0.1555
15698TIP3    H168585   0.946   5.315   4.009  0.3256  0.5510  0.1130
15698TIP3    H268586   0.994   5.191   4.082  0.6930  0.3778 -0.4243
15699TIP3   OH268587   3.618   3.029  15.596 -0.1949  0.0171 -0.1723
15699TIP3    H168588   3.568   3.085  15.654  1.3960  0.7504  0.5389
15699TIP3    H268589   3.559   3.010  15.523 -1.2543  1.4009  0.3056
15700TIP3   OH268590   6.279   1.100   1.230 -0.4328 -0.2028 -0.3489
15700TIP3    H168591   6.204   1.044   1.211 -0.3148 -0.6634  0.5370
15700TIP3    H268592   6.271   1.173   1.168 -3.1585  1.2329  1.5918
15701TIP3   OH268593   3.570   1.301   4.947  0.0448 -0.3902 -0.4924
15701TIP3    H168594   3.659   1.298   4.983  0.2372  1.3546 -0.7511
15701TIP3    H268595   3.536   1.386   4.974 -0.3945  0.2901 -3.0024
15702TIP3   OH268596   3.737   4.404  11.093  0.3130  0.3092 -0.3043
15702TIP3    H168597   3.672   4.336  11.079 -0.5016  0.9723  0.1383
15702TIP3    H268598   3.783   4.412  11.010  1.2348 -1.6189  0.0186
15703TIP3   OH268599   0.141   1.167  10.824  0.4356  0.2097  0.2764
15703TIP3    H168600   0.079   1.239  10.831 -1.2071 -1.2580  1.2864
15703TIP3    H268601   0.167   1.166  10.732  0.5909  2.1612  0.2906
15704TIP3   OH268602   0.510   6.744  12.265 -0.2978  0.1655  0.7102
15704TIP3    H168603   0.504   6.727  12.359  1.4079  1.3547  1.0476
15704TIP3    H268604   0.422   6.775  12.241 -0.7450 -0.1330  1.9035
15705TIP3   OH268605   0.853   0.405   1.053  0.5551 -0.2917  0.1205
15705TIP3    H168606   0.886   0.494   1.062  0.5201 -0.1493 -1.0383
15705TIP3    H268607   0.927   0.349   1.077  0.3991  0.0508  1.3955
15706TIP3   OH268608   4.151   3.084   1.694  0.2531 -0.4647  0.2311
15706TIP3    H168609   4.143   3.171   1.653  4.3962 -0.6346 -1.2158
15706TIP3    H268610   4.156   3.103   1.788 -2.8548  0.4878  0.2433
15707TIP3   OH268611   5.658   3.919  11.764 -0.4197 -0.1912 -0.9600
15707TIP3    H168612   5.668   4.011  11.739 -1.3776  0.0116 -0.6450
15707TIP3    H268613   5.715   3.871  11.704 -1.1138  0.4726 -2.1724
15708TIP3   OH268614   2.630   5.167  14.228  0.0791 -0.5646  0.5498
15708TIP3    H168615   2.556   5.115  14.197 -0.7285 -0.1293  1.7117
15708TIP3    H268616   2.597   5.257  14.229  0.3332 -0.4773  1.9018
15709TIP3   OH268617   2.246   1.802   2.471 -0.5185 -0.5982 -0.0337
15709TIP3    H168618   2.199   1.873   2.426 -1.9881 -0.7611  1.2028
15709TIP3    H268619   2.285   1.844   2.548  0.1640 -0.7617 -0.2873
15710TIP3   OH268620   6.275   3.799   4.938  0.0836  0.3655 -0.1657
15710TIP3    H168621   6.341   3.760   4.880 -0.1677 -1.7407  0.9248
15710TIP3    H268622   6.199   3.741   4.930  0.1249 -0.0812  2.4303
15711TIP3   OH268623   2.429   3.153  14.722  0.0175 -0.2424 -0.6058
15711TIP3    H168624   2.335   3.160  14.706 -0.5668 -0.7885  2.3607
15711TIP3    H268625   2.449   3.226  14.780  1.6598  0.4916 -2.0471
15712TIP3   OH268626   1.728   0.894  15.571 -0.1359  0.2553 -0.0273
15712TIP3    H168627   1.739   0.858  15.483  2.7399  1.4335 -0.2177
15712TIP3    H268628   1.713   0.988  15.557 -2.1586  0.0584  0.6633
15713TIP3   OH268629   3.139   4.545  14.276 -0.2576  0.0598  0.0156
15713TIP3    H168630   3.192   4.546  14.355 -0.0522 -2.5231 -0.0524
15713TIP3    H268631   3.195   4.582  14.209  1.0198 -1.4077  0.2407
15714TIP3   OH268632   3.686   6.227   1.520  0.4254  0.8144  0.3500
15714TIP3    H168633   3.639   6.275   1.588 -2.0723 -0.8988 -0.1108
15714TIP3    H268634   3.742   6.166   1.568  1.2503  1.9479  0.8740
15715TIP3   OH268635   5.981   5.402   2.906  0.1059  0.1114  0.0402
15715TIP3    H168636   6.036   5.474   2.936  1.0755  0.3255 -2.1400
15715TIP3    H268637   5.953   5.358   2.986  1.9677  1.0925  1.2663
15716TIP3   OH268638   5.927   4.172  12.502 -0.1115  0.0135  0.1533
15716TIP3    H168639   5.918   4.267  12.507 -0.5519 -0.0376  0.3701
15716TIP3    H268640   5.992   4.157  12.433  1.4898  0.5396  1.5181
15717TIP3   OH268641   3.383   0.533  15.354  0.2755 -0.2658  0.0054
15717TIP3    H168642   3.424   0.458  15.310  0.6265  0.6193 -1.1828
15717TIP3    H268643   3.405   0.608  15.300 -1.1599  0.5279  0.4963
15718TIP3   OH268644   1.970   0.131   1.096 -0.2296  0.3450  0.0367
15718TIP3    H168645   1.971   0.073   1.020 -0.4290 -0.0938  0.3682
15718TIP3    H268646   1.905   0.198   1.073 -1.0528 -0.3740  0.2500
15719TIP3   OH268647   4.455   0.947   4.017  0.2255  0.0098 -0.0326
15719TIP3    H168648   4.373   0.903   3.999 -0.6446  1.6763 -0.2044
15719TIP3    H268649   4.445   0.981   4.106 -0.0761  1.9369 -0.7755
15720TIP3   OH268650   3.869   0.852  12.966  0.3798  0.3538  0.0222
15720TIP3    H168651   3.818   0.859  12.885 -0.1066 -1.0833  0.1910
15720TIP3    H268652   3.868   0.940  13.003 -1.6583  0.4334 -0.1745
15721TIP3   OH268653   3.893   5.533   4.435 -0.2928  0.5004  0.0194
15721TIP3    H168654   3.862   5.512   4.523 -0.2917  0.9309  0.1219
15721TIP3    H268655   3.826   5.589   4.398 -0.8601 -0.6317 -0.6909
15722TIP3   OH268656   6.323   5.830   3.909  0.4501  0.6453 -1.0122
15722TIP3    H168657   6.416   5.853   3.905  0.6474 -0.3204 -2.7668
15722TIP3    H268658   6.299   5.843   4.000  1.9290  2.3526 -0.8345
15723TIP3   OH268659   4.907   2.603  17.003 -0.3104  0.3329  0.4773
15723TIP3    H168660   4.940   2.693  16.996  0.6679 -0.0197  0.4977
15723TIP3    H268661   4.937   2.574  17.089 -0.5327 -0.0473  0.4248
15724TIP3   OH268662   1.975   5.727   2.293 -0.1519 -0.4756 -0.1773
15724TIP3    H168663   1.964   5.818   2.324 -2.2207 -0.6452 -0.3611
15724TIP3    H268664   2.042   5.691   2.351  1.3552  1.4281 -0.6676
15725TIP3   OH268665   0.091   0.672  16.007  0.2588 -0.0327 -0.9819
15725TIP3    H168666   0.125   0.630  16.086 -2.1903 -1.6586 -0.7331
15725TIP3    H268667   0.143   0.635  15.936  0.7546 -0.4833 -0.3879
15726TIP3   OH268668   3.796   2.940  14.628  0.3033  0.0274  0.7110
15726TIP3    H168669   3.708   2.903  14.619  0.5609 -0.3964 -0.1404
15726TIP3    H268670   3.854   2.863  14.625  0.6126  0.0964  3.1781
15727TIP3   OH268671   1.397   2.924   4.303 -0.2326  0.4890  0.0201
15727TIP3    H168672   1.402   2.829   4.311  0.7789  0.6309  1.3813
15727TIP3    H268673   1.304   2.944   4.316 -0.5243 -0.3379 -0.7130
15728TIP3   OH268674   3.407   1.515   4.394 -0.0442 -0.0347  0.1336
15728TIP3    H168675   3.434   1.500   4.484 -3.7845 -0.2947  1.3228
15728TIP3    H268676   3.392   1.609   4.388  0.2052 -0.0156 -0.2121
15729TIP3   OH268677   1.782   4.735   5.211  0.3305  0.0115 -0.0902
15729TIP3    H168678   1.777   4.831   5.219  0.5123 -0.0017  0.1872
15729TIP3    H268679   1.739   4.702   5.289 -1.9064 -0.1579 -1.3517
15730TIP3   OH268680   1.141   4.361  14.060 -0.2696 -0.3519  0.0898
15730TIP3    H168681   1.181   4.402  13.983  2.4477 -1.5445  0.7930
15730TIP3    H268682   1.145   4.267  14.042 -1.5008 -0.5496  0.8144
15731TIP3   OH268683   1.373   3.925  11.732  0.6191 -0.7588  0.0766
15731TIP3    H168684   1.305   3.862  11.709 -0.1009  0.4928 -1.3512
15731TIP3    H268685   1.436   3.919  11.660  2.3540 -2.3144  1.6624
15732TIP3   OH268686   0.387   1.142   4.465  0.0057 -0.3313  0.6999
15732TIP3    H168687   0.384   1.080   4.392 -0.7621 -0.5994  0.9508
15732TIP3    H268688   0.325   1.107   4.529  0.9962 -0.3274  1.6699
15733TIP3   OH268689   3.682   3.357   2.080 -0.0349 -0.3575 -0.0068
15733TIP3    H168690   3.689   3.332   1.988  2.1867  2.9341 -0.8257
15733TIP3    H268691   3.600   3.406   2.085  0.4201  0.4618 -0.5013
15734TIP3   OH268692   4.970   4.549   4.297  0.1283 -0.4783 -0.2667
15734TIP3    H168693   5.033   4.577   4.364 -1.7153  1.6244  0.6581
15734TIP3    H268694   4.890   4.598   4.317 -1.0493 -1.2192 -2.9083
15735TIP3   OH268695   2.791   0.877   0.291 -0.5912  0.3152 -0.4372
15735TIP3    H168696   2.706   0.896   0.252 -0.4697  0.8711 -0.4373
15735TIP3    H268697   2.773   0.859   0.383 -0.4296  2.9707  0.1510
15736TIP3   OH268698   4.935   3.685  14.451  0.2607 -0.1955 -0.7881
15736TIP3    H168699   4.916   3.678  14.357 -0.3544 -3.0488 -0.4850
15736TIP3    H268700   4.998   3.615  14.469  0.6829  0.5746  0.8717
15737TIP3   OH268701   2.800   4.257  14.960  0.1434  0.1196  0.6425
15737TIP3    H168702   2.705   4.267  14.964  0.2253  1.1250  0.2182
15737TIP3    H268703   2.814   4.182  14.902 -0.3757  0.2954  0.2854
15738TIP3   OH268704   4.924   3.134   2.428  0.5846 -0.4743  0.4263
15738TIP3    H168705   4.938   3.142   2.522  0.9136 -0.0350  0.3402
15738TIP3    H268706   4.921   3.224   2.396 -0.7490 -0.5891  0.1862
15739TIP3   OH268707   5.840   4.860  13.510 -0.0527  0.4616 -0.2930
15739TIP3    H168708   5.794   4.924  13.455 -0.7778  0.2377  0.0444
15739TIP3    H268709   5.927   4.897  13.522  0.1057  0.5291 -1.5744
15740TIP3   OH268710   0.727   0.938   6.522  0.6057  0.1524  0.5117
15740TIP3    H168711   0.697   1.012   6.470 -1.9274 -0.8405  0.4708
15740TIP3    H268712   0.673   0.941   6.601  0.3694 -1.7015  0.4548
15741TIP3   OH268713   1.716   5.766  13.923  0.0389  0.5830 -0.0617
15741TIP3    H168714   1.745   5.832  13.859  0.3745  0.3454 -0.1578
15741TIP3    H268715   1.767   5.688  13.902 -1.0711 -0.0139 -0.5657
15742TIP3   OH268716   4.694   2.543   5.525  0.6647  0.0277 -0.2412
15742TIP3    H168717   4.686   2.542   5.620  2.0981  2.5497 -0.0364
15742TIP3    H268718   4.767   2.484   5.506 -0.7268 -1.8105  0.0659
15743TIP3   OH268719   2.309   3.414  13.353  0.1254 -0.3879 -0.1749
15743TIP3    H168720   2.385   3.371  13.391  0.3249  1.4939  1.6441
15743TIP3    H268721   2.251   3.343  13.327  2.0954 -1.8231 -0.7744
15744TIP3   OH268722   4.712   2.350  13.858  0.4149  0.2635 -0.1211
15744TIP3    H168723   4.633   2.327  13.808 -0.3438 -0.9892  1.5812
15744TIP3    H268724   4.737   2.268  13.902  2.7556  0.6174 -0.7331
15745TIP3   OH268725   3.986   1.744  16.411  0.5789 -0.0339 -0.2226
15745TIP3    H168726   3.975   1.764  16.319 -1.0849 -0.3714 -0.1158
15745TIP3    H268727   3.980   1.648  16.416 -2.0218  0.1337  0.5365
15746TIP3   OH268728   3.384   6.298  17.126 -0.1868 -0.2677  0.4497
15746TIP3    H168729   3.326   6.243  17.074  0.4549 -0.8665  0.3518
15746TIP3    H268730   3.336   6.314  17.207 -0.8448 -0.0284  0.0083
15747TIP3   OH268731   6.246   5.874  16.749 -0.3484 -0.3676  0.2470
15747TIP3    H168732   6.335   5.842  16.767 -0.2889  0.6285  1.7562
15747TIP3    H268733   6.257   5.932  16.674  0.3729  0.1408  0.7318
15748TIP3   OH268734   6.715   1.514   2.746  0.0656  0.0334 -0.0939
15748TIP3    H168735   6.653   1.536   2.676  1.9245 -1.6325 -2.3038
15748TIP3    H268736   6.694   1.424   2.770 -0.4637  0.5452  1.4184
15749TIP3   OH268737   3.719   2.082  14.669 -0.4373  0.5950  0.2583
15749TIP3    H168738   3.684   2.138  14.738 -1.9463 -0.0873  0.0660
15749TIP3    H268739   3.729   1.996  14.710  0.5982  0.6671  0.1771
15750TIP3   OH268740   4.897   1.138  13.812  0.1466  0.4750  0.1558
15750TIP3    H168741   4.947   1.130  13.731 -0.1888  0.8938 -0.0915
15750TIP3    H268742   4.830   1.070  13.806  0.8327 -0.2504  0.6001
15751TIP3   OH268743   5.448   3.363   5.869  0.0984 -0.1041  0.3036
15751TIP3    H168744   5.442   3.325   5.782 -0.3323 -0.6548  0.5726
15751TIP3    H268745   5.367   3.413   5.880  0.2906  0.2176  0.2699
15752TIP3   OH268746   6.018   0.795   2.853 -0.8225  0.0133 -0.0676
15752TIP3    H168747   6.004   0.702   2.868 -1.3552 -0.0324 -0.8313
15752TIP3    H268748   6.002   0.807   2.759  3.1397  0.1512 -0.8170
15753TIP3   OH268749   5.182   6.704  11.609 -0.5740  0.8294 -0.4661
15753TIP3    H168750   5.139   6.732  11.690  0.2680  0.5096  0.0881
15753TIP3    H268751   5.208   6.786  11.567 -1.2340  1.0058 -0.5409
15754TIP3   OH268752   5.549   0.077  12.377 -0.2380  0.1122  0.0710
15754TIP3    H168753   5.592   0.100  12.459 -0.4126 -2.4353  0.9311
15754TIP3    H268754   5.476   0.138  12.369  0.8420  1.5203  0.9076
15755TIP3   OH268755   5.497   3.586   1.355  0.0480  0.1410 -0.0484
15755TIP3    H168756   5.489   3.662   1.412 -0.3485  1.0253 -1.2712
15755TIP3    H268757   5.439   3.605   1.280  1.4291 -0.4815 -1.3022
15756TIP3   OH268758   2.420   1.913  16.037  0.2557 -0.1223  0.2604
15756TIP3    H168759   2.351   1.978  16.022  0.0868 -0.5834 -1.0978
15756TIP3    H268760   2.481   1.955  16.098 -1.0711  0.4000  1.2471
15757TIP3   OH268761   1.376   3.802   0.219  0.4961 -0.4131 -0.1136
15757TIP3    H168762   1.384   3.708   0.203  1.5652 -0.5464  1.1186
15757TIP3    H268763   1.284   3.822   0.201  0.4694 -1.5203 -1.2594
15758TIP3   OH268764   2.282   5.623  13.307  0.3569 -0.3536 -0.8289
15758TIP3    H168765   2.199   5.606  13.351 -0.3976  2.1182 -1.1861
15758TIP3    H268766   2.289   5.555  13.241 -1.2504 -0.7665 -0.5927
15759TIP3   OH268767   2.863   0.082  10.354 -0.3837  0.4199 -0.6698
15759TIP3    H168768   2.805   0.105  10.427  0.6978 -1.6438  0.9291
15759TIP3    H268769   2.949   0.075  10.395  0.3155 -0.3299 -2.2589
15760TIP3   OH268770   0.980   3.430  14.772  0.0914 -0.2290  0.3010
15760TIP3    H168771   0.903   3.478  14.803  0.5608  1.1822 -0.6395
15760TIP3    H268772   1.054   3.481  14.803  0.6207 -0.7900 -0.0181
15761TIP3   OH268773   2.325   0.696   0.206  0.3199 -0.1158  0.1350
15761TIP3    H168774   2.402   0.672   0.257  1.3373 -0.1271 -1.3626
15761TIP3    H268775   2.274   0.615   0.201  0.8200 -0.4299  0.0926
15762TIP3   OH268776   4.214   0.967  14.231  0.3382 -0.0133 -0.3600
15762TIP3    H168777   4.181   0.910  14.161 -0.9389 -0.7375  0.7840
15762TIP3    H268778   4.194   1.056  14.202  0.7963 -0.2362 -1.3906
15763TIP3   OH268779   3.475   0.983   1.372 -0.1252 -0.1709 -0.1171
15763TIP3    H168780   3.508   0.913   1.429 -0.3573 -1.2008 -1.2288
15763TIP3    H268781   3.533   1.057   1.389  1.5264 -1.3343 -0.5759
15764TIP3   OH268782   5.475   5.538   3.137  0.4042  0.6350 -0.7101
15764TIP3    H168783   5.382   5.546   3.157  0.3127 -0.4680 -0.6341
15764TIP3    H268784   5.484   5.573   3.048 -0.7934 -2.8444 -2.2993
15765TIP3   OH268785   1.350   4.060  15.314 -0.1140  0.3130  0.0911
15765TIP3    H168786   1.283   4.000  15.346 -0.1877  0.3847  0.0723
15765TIP3    H268787   1.361   4.035  15.222 -0.6824  0.8206 -0.1145
15766TIP3   OH268788   6.238   2.687   5.250 -0.1404  0.9466  0.2535
15766TIP3    H168789   6.211   2.608   5.202  1.2615 -0.1088  1.1637
15766TIP3    H268790   6.182   2.757   5.215 -1.0662 -0.3525 -0.9097
15767TIP3   OH268791   0.260   4.983  12.553  0.1841 -0.1994  0.2717
15767TIP3    H168792   0.204   5.044  12.601 -1.6176 -1.1659 -0.5791
15767TIP3    H268793   0.283   4.917  12.618 -0.2051 -0.1575  0.4527
15768TIP3   OH268794   1.263   5.877  12.135 -0.1611 -0.2278 -0.0371
15768TIP3    H168795   1.252   5.804  12.197  0.6569 -0.7219 -0.4545
15768TIP3    H268796   1.174   5.910  12.120 -0.6337 -1.5953 -0.3666
15769TIP3   OH268797   1.473   0.649  12.365  0.3731  0.7817  0.1033
15769TIP3    H168798   1.405   0.702  12.321 -1.1102  0.2866  1.7622
15769TIP3    H268799   1.480   0.571  12.311 -0.8894  0.5255  0.2892
15770TIP3   OH268800   1.983   5.947   1.607 -0.2757 -0.1211 -0.1716
15770TIP3    H168801   1.991   5.853   1.591 -0.0773 -0.1432  0.0594
15770TIP3    H268802   1.938   5.953   1.691 -0.1671 -0.0100 -0.1226
15771TIP3   OH268803   2.709   1.720   4.613 -0.1313 -0.0180  0.4034
15771TIP3    H168804   2.676   1.804   4.644  1.3787  0.9120 -0.4640
15771TIP3    H268805   2.635   1.682   4.565 -0.5612  1.1735  0.1177
15772TIP3   OH268806   0.845   0.832  17.048  0.0824  0.3359  0.5234
15772TIP3    H168807   0.881   0.757  17.094 -3.5274 -0.1845  2.7221
15772TIP3    H268808   0.850   0.904  17.111 -1.2509  0.6183  0.3243
15773TIP3   OH268809   3.441   3.571   2.135 -0.0611 -0.0467 -0.1727
15773TIP3    H168810   3.438   3.582   2.040  0.3602  0.7601 -0.1006
15773TIP3    H268811   3.428   3.659   2.170 -0.4865 -0.3794  0.5290
15774TIP3   OH268812   2.455   1.536   5.207  0.5136 -0.1291 -0.0616
15774TIP3    H168813   2.435   1.627   5.184  0.0191 -0.2280 -0.0279
15774TIP3    H268814   2.447   1.533   5.303  1.8919  0.1191  0.0675
15775TIP3   OH268815   6.450   6.438   1.195 -0.0255 -0.7048 -0.0590
15775TIP3    H168816   6.525   6.469   1.246 -0.7140  2.3614 -0.7862
15775TIP3    H268817   6.376   6.443   1.257 -0.0527 -1.5296 -0.0142
15776TIP3   OH268818   4.628   0.424   0.204  0.3864 -0.2544 -0.4868
15776TIP3    H168819   4.547   0.383   0.235 -1.0264  2.4483 -0.4704
15776TIP3    H268820   4.692   0.403   0.272 -0.7423 -0.8838  0.4212
15777TIP3   OH268821   0.927   0.251   2.091 -0.0433  0.2514  0.6158
15777TIP3    H168822   0.985   0.200   2.148 -0.6709 -1.1183  0.0466
15777TIP3    H268823   0.983   0.277   2.018 -0.5795 -2.6973 -0.9020
15778TIP3   OH268824   2.176   0.458  13.445 -0.0011  0.3199  0.1216
15778TIP3    H168825   2.269   0.474  13.460  0.2179 -0.2506 -0.6351
15778TIP3    H268826   2.173   0.389  13.379 -0.9618  0.3851  0.0841
15779TIP3   OH268827   6.643   3.376   6.469  0.2412  0.3230  0.1361
15779TIP3    H168828   6.600   3.378   6.554 -0.5096 -1.4215 -0.1669
15779TIP3    H268829   6.673   3.285   6.459  1.8689  0.9318 -0.7096
15780TIP3   OH268830   3.892   2.153  15.047  0.2921  0.0212  0.6710
15780TIP3    H168831   3.880   2.195  15.132  0.1924 -0.9488  1.1404
15780TIP3    H268832   3.805   2.158  15.006  0.6208  1.5432  0.1278
15781TIP3   OH268833   1.869   5.219  12.156 -0.4701 -0.3225 -0.6144
15781TIP3    H168834   1.838   5.204  12.246 -1.8197  0.1137 -0.9895
15781TIP3    H268835   1.908   5.306  12.158  0.2903 -0.6717 -0.2468
15782TIP3   OH268836   0.141   2.613   5.424  0.2031  0.0846 -0.3769
15782TIP3    H168837   0.236   2.603   5.434 -0.1368 -2.6750  0.2968
15782TIP3    H268838   0.120   2.565   5.344 -0.6707  0.6251 -0.4804
15783TIP3   OH268839   1.842   0.965   3.606 -0.1262 -0.2413 -0.1103
15783TIP3    H168840   1.789   0.899   3.651  1.1011 -0.7839  0.5661
15783TIP3    H268841   1.911   0.987   3.669  0.1302  0.8595 -0.7684
15784TIP3   OH268842   4.085   4.337   1.101  0.3126 -0.0393  0.2814
15784TIP3    H168843   4.122   4.425   1.113 -0.2107  0.0237  1.4831
15784TIP3    H268844   3.990   4.351   1.103  0.2277 -0.5986  0.1649
15785TIP3   OH268845   4.238   5.338  13.812  0.1305 -0.2855 -0.0469
15785TIP3    H168846   4.210   5.282  13.884 -0.8091  0.4456  0.1705
15785TIP3    H268847   4.157   5.367  13.771  0.6357  0.0161 -0.8572
15786TIP3   OH268848   3.219   6.775   4.463  0.6558 -0.4359  0.0694
15786TIP3    H168849   3.290   6.779   4.527 -0.3647 -1.0260  1.2675
15786TIP3    H268850   3.168   6.855   4.479  0.2322 -0.7300  0.2049
15787TIP3   OH268851   1.226   4.530   5.497 -0.2473 -0.3600  0.0255
15787TIP3    H168852   1.145   4.569   5.530  0.9768  1.0799  1.3723
15787TIP3    H268853   1.258   4.593   5.432  0.4899 -0.2750  0.4687
15788TIP3   OH268854   5.031   0.244   0.902  0.0090 -0.3905  0.4186
15788TIP3    H168855   5.100   0.310   0.910 -0.2690 -0.0582  0.0999
15788TIP3    H268856   5.067   0.167   0.946  1.0088 -0.5638 -0.6647
15789TIP3   OH268857   4.959   4.408  11.932 -0.5414 -0.6268  0.5111
15789TIP3    H168858   4.949   4.461  11.854  2.6699  1.1181  1.2122
15789TIP3    H268859   4.892   4.441  11.992 -1.7250 -0.6563 -0.7819
15790TIP3   OH268860   0.814   4.353   2.899 -0.9029  0.4710 -0.3659
15790TIP3    H168861   0.743   4.342   2.962 -1.1097 -1.1858 -0.8644
15790TIP3    H268862   0.894   4.352   2.952 -1.0541 -1.2590 -0.1367
15791TIP3   OH268863   2.083   3.701   5.346 -0.4877 -0.0647 -0.0482
15791TIP3    H168864   2.009   3.677   5.402  0.9001  0.6499  2.1511
15791TIP3    H268865   2.154   3.644   5.374 -0.0647 -0.4601 -1.8616
15792TIP3   OH268866   0.834   5.532   6.386  0.0422  0.0303  0.1581
15792TIP3    H168867   0.762   5.563   6.331  1.2341  1.4756 -0.5895
15792TIP3    H268868   0.801   5.540   6.475 -1.6800 -1.7582 -0.2760
15793TIP3   OH268869   5.705   0.303  14.894 -0.4928 -0.1298  0.4089
15793TIP3    H168870   5.638   0.296  14.962  1.6481 -0.8880  2.4928
15793TIP3    H268871   5.735   0.213  14.881  2.5496  0.5963  2.0319
15794TIP3   OH268872   3.715   5.146  14.634 -0.4818  0.0906  0.0087
15794TIP3    H168873   3.809   5.127  14.633 -0.3880  0.4930  0.6687
15794TIP3    H268874   3.673   5.062  14.616  0.0196  0.0298 -0.8776
15795TIP3   OH268875   4.371   3.391   2.345 -0.1611 -0.5574  0.2942
15795TIP3    H168876   4.444   3.437   2.388  0.3003 -0.9017 -0.1145
15795TIP3    H268877   4.323   3.351   2.417 -0.7797  0.8597  0.6878
15796TIP3   OH268878   6.288   2.961  13.134 -0.0904 -0.1240  0.1028
15796TIP3    H168879   6.279   3.056  13.142  0.3485 -0.0162 -0.6852
15796TIP3    H268880   6.231   2.926  13.202 -0.7746  0.6914 -0.0487
15797TIP3   OH268881   5.997   1.006   1.699 -0.4601  0.4674 -0.1003
15797TIP3    H168882   5.984   1.071   1.630  2.1802  1.1199 -0.0329
15797TIP3    H268883   6.092   0.991   1.700 -0.7382 -1.3130  1.7633
15798TIP3   OH268884   2.389   6.236   3.032  0.3757  0.6453 -0.0430
15798TIP3    H168885   2.356   6.322   3.003 -1.6913  0.4006  1.5092
15798TIP3    H268886   2.471   6.256   3.078  0.7372  1.6060 -1.0790
15799TIP3   OH268887   4.368   3.790   5.007 -0.1483 -0.3271  0.6495
15799TIP3    H168888   4.376   3.718   4.944 -1.6172 -1.3913  1.6415
15799TIP3    H268889   4.421   3.763   5.081 -0.4343 -0.2434  0.8845
15800TIP3   OH268890   3.230   3.569  15.699 -0.5381  0.4683  0.2932
15800TIP3    H168891   3.314   3.598  15.663  0.0818 -0.4847  0.9616
15800TIP3    H268892   3.237   3.585  15.793 -0.4856 -1.0988  0.5679
15801TIP3   OH268893   5.136   4.788  15.636 -0.5840 -0.0863 -0.0261
15801TIP3    H168894   5.108   4.879  15.645 -1.6441 -0.2920 -1.0426
15801TIP3    H268895   5.082   4.754  15.564  0.0727 -1.4047  0.0956
15802TIP3   OH268896   0.178   2.591   6.325 -0.2457  0.5492  0.1744
15802TIP3    H168897   0.082   2.602   6.323 -0.4627 -1.3583 -2.2427
15802TIP3    H268898   0.212   2.680   6.319 -1.8294  1.4526  3.5013
15803TIP3   OH268899   3.212   3.070   3.289  0.1547 -0.2446 -0.4981
15803TIP3    H168900   3.151   3.078   3.215  0.7086 -1.0264 -1.0475
15803TIP3    H268901   3.169   3.007   3.348 -0.0459 -0.0105 -0.3909
15804TIP3   OH268902   0.085   6.804  10.703  0.2432  0.1985  0.0411
15804TIP3    H168903   0.177   6.787  10.683  0.3638 -0.8362  1.3615
15804TIP3    H268904   0.087   6.864  10.777 -0.0807 -1.9984  1.9020
15805TIP3   OH268905   6.011   5.294  15.752  0.5105 -0.6361 -0.2588
15805TIP3    H168906   5.989   5.260  15.839 -1.0786 -2.3377 -1.2927
15805TIP3    H268907   5.939   5.353  15.731  0.7239 -0.4804 -0.5533
15806TIP3   OH268908   5.223   3.859  14.551 -0.4322 -0.6997  0.4323
15806TIP3    H168909   5.292   3.810  14.508 -0.9018 -1.0389  0.0561
15806TIP3    H268910   5.211   3.815  14.636 -1.1028 -1.4744 -0.0512
15807TIP3   OH268911   2.363   1.500  11.599 -0.0844  0.4752 -0.1093
15807TIP3    H168912   2.406   1.493  11.684  1.1115 -0.5611 -0.7819
15807TIP3    H268913   2.270   1.486  11.617  0.7090 -4.9839  0.3652
15808TIP3   OH268914   5.531   5.428  14.151 -0.0971  0.2597  0.0020
15808TIP3    H168915   5.465   5.359  14.144 -0.1420  0.3210 -0.1742
15808TIP3    H268916   5.607   5.393  14.104  0.4955 -0.4138  1.4129
15809TIP3   OH268917   6.112   5.629   3.321  0.3763 -0.1361 -0.1516
15809TIP3    H168918   6.018   5.649   3.323 -0.0326 -1.9936  0.1200
15809TIP3    H268919   6.145   5.659   3.406 -0.2393 -0.6874  0.2849
15810TIP3   OH268920   1.279   0.944   5.200  0.2059  0.2473  0.6793
15810TIP3    H168921   1.344   0.936   5.270 -0.0271  1.2016  0.9962
15810TIP3    H268922   1.331   0.970   5.123  0.4067 -0.4441  0.5727
15811TIP3   OH268923   4.655   5.541  13.222  0.0492 -0.2589 -0.3775
15811TIP3    H168924   4.696   5.511  13.141 -1.0752 -1.5140 -0.4843
15811TIP3    H268925   4.701   5.493  13.291  0.6464  0.4152 -0.3022
15812TIP3   OH268926   4.248   1.345   3.642 -0.0462  0.0244 -0.1472
15812TIP3    H168927   4.201   1.380   3.566 -0.7160  1.3099  0.8333
15812TIP3    H268928   4.339   1.369   3.627 -0.1723  0.2547 -0.5500
15813TIP3   OH268929   0.547   3.502   3.483 -0.5143  0.6302  0.0643
15813TIP3    H168930   0.508   3.426   3.527 -2.3270 -0.3286 -3.0649
15813TIP3    H268931   0.627   3.520   3.533 -0.3859 -2.9060  1.3048
15814TIP3   OH268932   1.563   3.099  16.148 -0.3519  0.1264 -0.2122
15814TIP3    H168933   1.481   3.106  16.197  0.4310  3.2295  0.7644
15814TIP3    H268934   1.548   3.026  16.088 -2.1410 -2.3889  3.0634
15815TIP3   OH268935   5.204   6.134  16.517 -0.0271  0.0382 -0.1785
15815TIP3    H168936   5.169   6.114  16.431  1.5722 -1.3699 -0.5247
15815TIP3    H268937   5.281   6.077  16.526 -0.1590  0.1654  2.1589
15816TIP3   OH268938   1.678   4.751  12.268 -0.4111  0.1948 -0.0079
15816TIP3    H168939   1.617   4.698  12.319  3.0308 -1.6673  2.3818
15816TIP3    H268940   1.692   4.829  12.322 -0.0239  0.2126 -0.1347
15817TIP3   OH268941   2.223   5.127   5.118 -0.0661 -0.1116  0.0014
15817TIP3    H168942   2.171   5.202   5.089  1.3112  1.0579  0.4896
15817TIP3    H268943   2.303   5.132   5.066 -0.2613 -1.6388 -0.4401
15818TIP3   OH268944   4.771   1.316  14.043 -0.9811  0.5459  0.2796
15818TIP3    H168945   4.826   1.276  13.976 -1.7950 -0.1958  0.0526
15818TIP3    H268946   4.758   1.406  14.013 -1.9050  0.0298 -0.9198
15819TIP3   OH268947   4.449   4.995   1.709 -0.1211 -0.5309  0.7593
15819TIP3    H168948   4.519   5.058   1.726  0.8361 -1.6979  1.2576
15819TIP3    H268949   4.454   4.933   1.781 -0.7336 -1.4474  0.0339
15820TIP3   OH268950   0.814   6.402  12.749  0.0439  0.2054  0.3230
15820TIP3    H168951   0.901   6.440  12.765 -0.0244  0.5670 -0.1932
15820TIP3    H268952   0.819   6.366  12.661 -0.0705 -0.5035  0.5962
15821TIP3   OH268953   6.567   5.313   6.709  0.4855 -0.0264 -0.6207
15821TIP3    H168954   6.486   5.296   6.758  0.5198  2.3567  0.3195
15821TIP3    H268955   6.542   5.303   6.617 -0.7122  0.0561 -0.3100
15822TIP3   OH268956   3.506   1.899  17.096 -0.5340 -0.1369 -0.0183
15822TIP3    H168957   3.479   1.815  17.057 -1.5401  0.3548 -0.3938
15822TIP3    H268958   3.435   1.921  17.156 -0.6991  0.8868 -0.5820
15823TIP3   OH268959   0.471   2.735  13.553 -0.0614 -0.3404  0.3841
15823TIP3    H168960   0.379   2.758  13.540  0.1982  2.0494  2.3979
15823TIP3    H268961   0.512   2.750  13.468 -1.3536 -0.5742 -0.2899
15824TIP3   OH268962   5.473   3.093   0.431 -0.4443 -0.7155  0.1470
15824TIP3    H168963   5.420   3.143   0.493  0.9884 -0.6108  1.3027
15824TIP3    H268964   5.480   3.150   0.354 -1.1668 -0.3221  0.3731
15825TIP3   OH268965   4.530   6.738  15.547  0.1885  0.0128 -0.7028
15825TIP3    H168966   4.529   6.684  15.467  1.9251 -0.1743 -0.6096
15825TIP3    H268967   4.579   6.816  15.523  1.0167 -0.1981  0.2893
15826TIP3   OH268968   4.307   0.792  15.403 -0.0967 -0.7602  0.5705
15826TIP3    H168969   4.244   0.728  15.371 -0.5597  0.7284 -1.6132
15826TIP3    H268970   4.392   0.761  15.371 -0.4282  0.1501 -1.2255
15827TIP3   OH268971   5.823   0.968   0.241 -0.4935  0.6046  0.7951
15827TIP3    H168972   5.764   0.996   0.310  0.0521 -0.3378  1.6584
15827TIP3    H268973   5.882   0.906   0.284 -0.1969 -0.0459 -0.5253
15828TIP3   OH268974   6.228   6.769  11.051  0.4203 -0.0651 -0.0518
15828TIP3    H168975   6.277   6.801  11.127  1.1829 -0.6075 -0.3154
15828TIP3    H268976   6.291   6.719  11.001  0.4447  1.9188 -2.0851
15829TIP3   OH268977   0.754   4.541  12.025  0.1692 -0.3472  0.0470
15829TIP3    H168978   0.788   4.494  11.949  1.1607 -0.3659  0.4918
15829TIP3    H268979   0.715   4.621  11.989 -0.5944 -1.0029 -0.6061
15830TIP3   OH268980   2.466   0.743  14.021 -0.0937  0.2283 -0.2338
15830TIP3    H168981   2.499   0.696  13.944 -1.7471  0.2996 -1.0120
15830TIP3    H268982   2.429   0.675  14.076 -1.8664  0.5172 -1.0402
15831TIP3   OH268983   5.098   0.950  12.824 -0.2812  0.3246 -0.0807
15831TIP3    H168984   5.023   0.954  12.883 -0.3753 -0.2532 -0.1597
15831TIP3    H268985   5.123   0.858  12.823 -0.9897  0.1319 -1.8418
15832TIP3   OH268986   6.807   6.515  13.186 -0.0720  0.0228 -0.7843
15832TIP3    H168987   6.763   6.436  13.154 -0.1718  0.2634 -1.2512
15832TIP3    H268988   6.742   6.560  13.239 -0.6045  0.7048 -2.0031
15833TIP3   OH268989   2.502   3.595   5.652  0.4653 -0.1183  0.3942
15833TIP3    H168990   2.588   3.560   5.629  0.9429  1.3267 -0.0762
15833TIP3    H268991   2.446   3.518   5.662  1.4517 -0.9896 -0.7667
15834TIP3   OH268992   3.819   1.474   2.099 -0.1370  0.3147  0.1140
15834TIP3    H168993   3.828   1.423   2.018  1.2327 -0.1403  0.5415
15834TIP3    H268994   3.733   1.515   2.091  0.3607  1.0414 -2.0027
15835TIP3   OH268995   4.089   3.072  14.042 -0.5962 -0.3628 -0.2637
15835TIP3    H168996   4.053   2.987  14.069 -1.4035  0.2425  0.5497
15835TIP3    H268997   4.098   3.064  13.947 -2.1022 -0.8175 -0.3748
15836TIP3   OH268998   4.087   2.816  11.341  0.6208 -0.1993 -0.0631
15836TIP3    H168999   4.070   2.794  11.249  0.0622 -0.0383  0.0002
15836TIP3    H269000   4.183   2.812  11.349  0.5449 -2.5742 -0.0628
15837TIP3   OH269001   4.709   6.266   1.364  0.4933  0.1899  0.2965
15837TIP3    H169002   4.787   6.216   1.339  0.4830  0.5781 -0.5379
15837TIP3    H269003   4.722   6.286   1.457  0.7198 -0.9432  0.5175
15838TIP3   OH269004   6.216   5.426  14.414 -0.3086 -0.2071 -0.3089
15838TIP3    H169005   6.232   5.413  14.320 -0.0925 -1.1116 -0.1475
15838TIP3    H269006   6.298   5.401  14.456 -1.0459 -1.6653  0.2708
15839TIP3   OH269007   0.819   6.543   0.433  0.4013  0.2836 -0.0446
15839TIP3    H169008   0.914   6.527   0.431  0.4581  0.3201  1.7790
15839TIP3    H269009   0.810   6.638   0.423  0.4899  0.1776 -1.2710
15840TIP3   OH269010   6.667   4.564  13.859 -0.0939 -0.0317 -0.0013
15840TIP3    H169011   6.701   4.648  13.828  0.2030  0.4582  1.6359
15840TIP3    H269012   6.710   4.499  13.803 -0.4165  0.8854 -1.3601
15841TIP3   OH269013   3.190   1.830   5.133  0.3655 -0.8501  0.0967
15841TIP3    H169014   3.100   1.806   5.109 -0.5297  0.1775  2.3002
15841TIP3    H269015   3.236   1.746   5.141 -0.4943 -1.4014 -0.6735
15842TIP3   OH269016   1.783   2.975  16.831  0.3470 -0.3392  0.2214
15842TIP3    H169017   1.702   2.985  16.881 -0.5488  0.1305 -1.2646
15842TIP3    H269018   1.768   3.028  16.752  1.7342 -1.0004 -0.4913
15843TIP3   OH269019   0.235   2.040   0.383 -0.2242 -0.0417 -0.6596
15843TIP3    H169020   0.213   2.034   0.290 -0.5936 -1.9920 -0.4690
15843TIP3    H269021   0.152   2.055   0.427  0.4814  6.0615 -0.9749
15844TIP3   OH269022   6.157   4.852  16.018  0.3671  0.0959 -0.0676
15844TIP3    H169023   6.204   4.935  16.012 -0.0948  0.5511  2.4277
15844TIP3    H269024   6.224   4.788  16.040  0.3488  0.2042  0.3060
15845TIP3   OH269025   4.269   6.536  13.185  0.5453  0.0328  0.0589
15845TIP3    H169026   4.316   6.458  13.157  0.8001  0.0600  0.4042
15845TIP3    H269027   4.260   6.589  13.106 -0.1942 -0.6359 -0.3152
15846TIP3   OH269028   4.784   3.235   5.557  0.4579  0.2048 -0.7824
15846TIP3    H169029   4.792   3.284   5.476  1.2455 -0.5379 -1.1620
15846TIP3    H269030   4.690   3.233   5.575  0.4223  1.9564 -0.6848
15847TIP3   OH269031   1.754   3.784  13.106 -0.2451 -0.2339  0.0187
15847TIP3    H169032   1.832   3.765  13.054 -1.1367 -1.9299 -0.7234
15847TIP3    H269033   1.788   3.806  13.193  1.1007 -0.1019 -0.5287
15848TIP3   OH269034   0.439   5.138   0.721  0.3342  0.1930 -0.0143
15848TIP3    H169035   0.494   5.104   0.792 -1.2101 -2.1465  0.1269
15848TIP3    H269036   0.362   5.174   0.766  0.3632  0.7281 -0.3891
15849TIP3   OH269037   0.037   0.462   2.989 -0.1780  0.0319  0.0608
15849TIP3    H169038   0.027   0.418   2.904 -0.1987  1.3514 -0.6271
15849TIP3    H269039   0.123   0.435   3.019 -0.8424 -1.7850  0.4161
15850TIP3   OH269040   4.467   2.202   1.134 -0.1663  0.3572 -0.3057
15850TIP3    H169041   4.476   2.108   1.146 -0.0701  0.5741  1.4640
15850TIP3    H269042   4.378   2.214   1.101  0.6958 -0.5394 -3.1460
15851TIP3   OH269043   5.013   5.389   3.924 -0.1036  0.0428 -0.2699
15851TIP3    H169044   4.972   5.406   4.009  1.5888  2.0737  0.1805
15851TIP3    H269045   5.046   5.299   3.931  0.5450  0.4010  1.4242
15852TIP3   OH269046   2.950   1.434  11.238  0.5696  0.1067 -0.6749
15852TIP3    H169047   2.855   1.447  11.241  0.8494  2.2845 -1.0002
15852TIP3    H269048   2.972   1.403  11.326 -0.4075 -0.3222 -0.5652
15853TIP3   OH269049   3.786   5.802  13.880 -0.5997 -0.1382  0.5313
15853TIP3    H169050   3.791   5.736  13.949 -0.8411 -1.7851 -1.0035
15853TIP3    H269051   3.712   5.776  13.826  0.1664  0.5907 -0.9043
15854TIP3   OH269052   6.690   6.773   5.035 -0.1296  0.3867 -0.2577
15854TIP3    H169053   6.785   6.780   5.021 -0.2448 -0.8849 -1.8231
15854TIP3    H269054   6.676   6.806   5.123  1.7131  1.0982 -0.2153
15855TIP3   OH269055   2.984   1.390   5.412 -0.2414 -0.3046 -0.4350
15855TIP3    H169056   3.062   1.421   5.365  0.4971  0.3278  1.1491
15855TIP3    H269057   2.925   1.465   5.412 -0.3579 -0.3963 -0.5970
15856TIP3   OH269058   4.568   3.988  12.748 -0.1009 -0.0576  0.1685
15856TIP3    H169059   4.534   3.920  12.806 -0.6764  1.2379  1.3965
15856TIP3    H269060   4.523   3.973  12.664 -1.1484 -0.4316  0.7887
15857TIP3   OH269061   1.997   4.495  15.668 -0.0855  0.2330 -0.1618
15857TIP3    H169062   1.938   4.475  15.741  1.7715  0.3983  1.4303
15857TIP3    H269063   1.989   4.420  15.610 -0.7620 -0.4305  0.7530
15858TIP3   OH269064   6.141   2.445  14.883 -0.0156 -0.4642 -0.2121
15858TIP3    H169065   6.129   2.356  14.917 -0.3740  0.0835  1.1039
15858TIP3    H269066   6.236   2.454  14.873  0.2379  0.0044  2.3844
15859TIP3   OH269067   5.250   4.820   0.209  0.4477 -0.8295  0.1864
15859TIP3    H169068   5.160   4.792   0.223 -0.5121  0.2867 -3.3035
15859TIP3    H269069   5.293   4.744   0.168  0.0474 -0.0343 -1.7166
15860TIP3   OH269070   4.968   1.646   2.358  1.0926  0.2179  0.0168
15860TIP3    H169071   4.959   1.741   2.372 -1.9743 -0.2046  1.3697
15860TIP3    H269072   4.945   1.634   2.266 -1.6316  0.5213  0.5950
15861TIP3   OH269073   5.742   2.866  14.271 -0.6407  0.0831 -0.3810
15861TIP3    H169074   5.699   2.948  14.244 -0.9361  0.5072  1.3268
15861TIP3    H269075   5.678   2.824  14.328 -0.5202 -1.4114 -1.3280
15862TIP3   OH269076   1.838   4.524   3.349 -0.3944 -0.1754 -0.1792
15862TIP3    H169077   1.750   4.551   3.375  0.8323  3.1320  0.7877
15862TIP3    H269078   1.860   4.452   3.408 -1.1714  1.1865  1.8180
15863TIP3   OH269079   3.525   4.524  11.471 -0.2786 -0.0988 -0.0618
15863TIP3    H169080   3.515   4.619  11.467  0.4410 -0.0710 -1.4344
15863TIP3    H269081   3.534   4.505  11.564 -0.3563  1.1893  0.2167
15864TIP3   OH269082   1.911   6.186  15.552  0.0984  0.5095  0.1024
15864TIP3    H169083   1.900   6.127  15.626 -2.1733 -2.7937 -2.6613
15864TIP3    H269084   1.821   6.205  15.523  0.9143  1.2151 -2.1253
15865TIP3   OH269085   3.223   2.581  14.212 -0.3502  0.1031 -0.2436
15865TIP3    H169086   3.242   2.674  14.222  2.2337 -0.3255 -0.8403
15865TIP3    H269087   3.175   2.558  14.291 -0.5112  1.8141  0.1821
15866TIP3   OH269088   5.026   3.835  11.439 -0.0759 -0.6011  0.2237
15866TIP3    H169089   5.037   3.763  11.501 -0.4138  0.5404  1.6330
15866TIP3    H269090   4.971   3.898  11.486  1.8821  1.4808 -0.2557
15867TIP3   OH269091   3.804   1.400   4.463 -0.6498 -0.1616  0.0727
15867TIP3    H169092   3.771   1.479   4.507  0.2884 -0.4584  1.3568
15867TIP3    H269093   3.734   1.376   4.402 -1.1401  1.4027 -0.0256
15868TIP3   OH269094   2.847   2.911   0.718 -0.2666 -0.3644  0.4783
15868TIP3    H169095   2.824   2.974   0.650  0.6319 -0.4062  0.1350
15868TIP3    H269096   2.763   2.876   0.748 -0.5394 -2.4958 -2.6276
15869TIP3   OH269097   1.700   6.046   0.827 -0.3831 -0.4935  1.1157
15869TIP3    H169098   1.666   5.984   0.762 -0.1620 -0.7049  1.1975
15869TIP3    H269099   1.794   6.029   0.828 -0.3249 -0.1603  1.1467
15870TIP3   OH269100   6.334   4.329   3.121 -0.1893 -0.1472  0.5187
15870TIP3    H169101   6.341   4.322   3.217 -0.8982 -1.7657  0.4593
15870TIP3    H269102   6.239   4.327   3.104  0.0032 -3.3567 -0.4496
15871TIP3   OH269103   6.797   5.042   6.182  0.0280  0.0445 -0.3740
15871TIP3    H169104   6.720   5.071   6.133  0.9245  1.1502 -1.1516
15871TIP3    H269105   6.835   4.972   6.130 -1.5043 -1.8056  0.9489
15872TIP3   OH269106   2.370   2.402   5.363  0.1511  0.0650  0.0633
15872TIP3    H169107   2.374   2.381   5.270 -3.3604 -0.0490 -0.1527
15872TIP3    H269108   2.403   2.491   5.369  4.5700 -1.4228 -0.6002
15873TIP3   OH269109   6.032   4.538   5.766  0.3356  0.0181 -0.1959
15873TIP3    H169110   5.985   4.487   5.832  2.7453  0.0905  1.6560
15873TIP3    H269111   6.060   4.617   5.812  1.9977  0.0996 -1.3023
15874TIP3   OH269112   1.287   0.274   4.650  0.0911  0.1476 -0.1275
15874TIP3    H169113   1.350   0.265   4.578  0.3980  0.4698  0.1025
15874TIP3    H269114   1.202   0.258   4.609 -0.0172  3.0398 -1.1479
15875TIP3   OH269115   0.409   2.446   4.929 -0.1953  0.4894  0.1895
15875TIP3    H169116   0.455   2.504   4.868 -1.0792  1.3708  0.3475
15875TIP3    H269117   0.433   2.358   4.901  0.6348  0.9162 -0.4682
15876TIP3   OH269118   4.981   1.109  16.496  0.1908 -0.1032 -0.4072
15876TIP3    H169119   4.954   1.022  16.526  0.1169 -0.1961 -0.7416
15876TIP3    H269120   5.024   1.093  16.411  1.6998 -0.0114  0.3149
15877TIP3   OH269121   6.261   5.616   0.128 -0.6500  0.1210  0.3517
15877TIP3    H169122   6.242   5.701   0.167  0.6648  0.1734  0.8982
15877TIP3    H269123   6.301   5.636   0.044  0.6525  0.0578  0.9530
15878TIP3   OH269124   4.484   5.654  11.390 -0.1212 -0.4810  0.1625
15878TIP3    H169125   4.475   5.749  11.383 -0.5142 -0.5363 -0.0859
15878TIP3    H269126   4.500   5.638  11.483  1.8352 -0.0166 -0.0869
15879TIP3   OH269127   6.708   5.677   3.349  0.3792  0.0990  0.5493
15879TIP3    H169128   6.770   5.721   3.291 -0.4133  1.0996  0.4560
15879TIP3    H269129   6.700   5.589   3.313  2.2237 -0.2350  0.9320
15880TIP3   OH269130   4.733   1.539  14.697 -0.0389  0.1699 -0.2379
15880TIP3    H169131   4.689   1.466  14.654 -1.2503  1.0108 -0.4375
15880TIP3    H269132   4.679   1.615  14.677 -0.3086  0.6765  2.3059
15881TIP3   OH269133   5.110   2.745  11.036  0.4545 -0.3457  0.4234
15881TIP3    H169134   5.050   2.811  11.002  0.6004  0.5271  1.7900
15881TIP3    H269135   5.194   2.767  10.998  0.0977 -1.0066 -0.7602
15882TIP3   OH269136   4.667   3.507  13.108  0.5920  0.1724  0.6005
15882TIP3    H169137   4.621   3.435  13.065  0.5011  1.2221 -1.0886
15882TIP3    H269138   4.601   3.575  13.118  0.7098  0.0763  2.0776
15883TIP3   OH269139   0.650   5.601  16.887 -0.2654  0.5114  0.3899
15883TIP3    H169140   0.687   5.513  16.883 -0.3157  0.5196 -0.4167
15883TIP3    H269141   0.724   5.659  16.870 -0.4220  0.5831 -0.0449
15884TIP3   OH269142   5.817   4.459   4.516 -0.4082  0.2793  0.0028
15884TIP3    H169143   5.862   4.438   4.434 -1.0883  1.6760 -0.7567
15884TIP3    H269144   5.887   4.470   4.580  0.3171  1.7251 -1.0031
15885TIP3   OH269145   3.432   4.514  16.034  0.0484  0.0022 -0.2593
15885TIP3    H169146   3.364   4.454  16.063  0.2484  0.5085  1.2858
15885TIP3    H269147   3.510   4.458  16.023 -0.7016 -0.6495 -2.4419
15886TIP3   OH269148   3.303   4.708  12.522  0.1406  0.3168 -0.2787
15886TIP3    H169149   3.351   4.763  12.460 -0.0526  1.2835  0.4166
15886TIP3    H269150   3.241   4.768  12.564 -0.6779 -0.6159 -0.1394
15887TIP3   OH269151   0.102   5.055   1.048 -0.2425  0.1790 -0.5028
15887TIP3    H169152   0.064   5.031   1.133  0.9672  1.2211  0.3398
15887TIP3    H269153   0.026   5.070   0.992 -1.0512 -1.9848 -0.0448
15888TIP3   OH269154   2.947   4.281   5.835  0.4677 -0.3774  0.0368
15888TIP3    H169155   3.023   4.228   5.861  1.2454 -0.6995 -2.6361
15888TIP3    H269156   2.907   4.231   5.764 -1.5189  0.4296  0.5615
15889TIP3   OH269157   5.111   4.655   2.299 -0.0465 -0.0398 -0.4502
15889TIP3    H169158   5.107   4.595   2.374  0.2507 -1.7272 -1.7656
15889TIP3    H269159   5.019   4.671   2.277 -0.1307  0.1141  0.0095
15890TIP3   OH269160   4.014   1.230   2.111 -0.0826  0.1484 -0.3674
15890TIP3    H169161   4.103   1.196   2.120  0.0224  0.3530 -0.6431
15890TIP3    H269162   4.011   1.267   2.023 -0.4223  0.1977 -0.3354
15891TIP3   OH269163   1.032   4.006  13.348 -0.3649 -0.2977  0.0070
15891TIP3    H169164   1.047   4.095  13.380 -0.4951 -0.0863 -0.5198
15891TIP3    H269165   1.101   3.991  13.284  0.6497 -1.1769  1.2743
15892TIP3   OH269166   3.371   1.029   5.723 -0.3907 -0.1238  0.3963
15892TIP3    H169167   3.420   0.949   5.740  1.7605  0.8481 -1.0704
15892TIP3    H269168   3.409   1.094   5.782  0.0171  0.6055 -0.6589
15893TIP3   OH269169   5.452   1.613   5.650 -0.0314 -0.0557 -0.4282
15893TIP3    H169170   5.505   1.534   5.657  0.0069 -0.1477 -1.6657
15893TIP3    H269171   5.390   1.607   5.723  0.1829 -1.0559 -0.3246
15894TIP3   OH269172   6.550   4.688   3.122  0.6402  0.1194  0.3766
15894TIP3    H169173   6.525   4.747   3.193  0.8927  0.8326 -0.1200
15894TIP3    H269174   6.630   4.646   3.153  0.9588  0.7056  0.3734
15895TIP3   OH269175   2.804   3.481  16.582 -0.4260 -0.2136  0.6040
15895TIP3    H169176   2.833   3.431  16.506  1.0823 -1.6672  2.0998
15895TIP3    H269177   2.746   3.422  16.629 -0.4775  0.2772  1.1675
15896TIP3   OH269178   1.577   0.251   2.689 -1.2733 -0.4862  0.1418
15896TIP3    H169179   1.543   0.285   2.607 -1.4724 -1.8716 -0.3714
15896TIP3    H269180   1.568   0.156   2.681 -0.5385 -0.6811  1.4305
15897TIP3   OH269181   6.664   0.394   5.610 -0.6843  0.3327  0.0550
15897TIP3    H169182   6.687   0.434   5.693 -0.2506  1.5028 -0.6153
15897TIP3    H269183   6.733   0.421   5.550  0.3384 -2.4876 -0.1202
15898TIP3   OH269184   4.792   4.109   5.749 -0.1392  0.3106  0.6302
15898TIP3    H169185   4.818   4.172   5.682 -1.2879  1.4094  1.1809
15898TIP3    H269186   4.717   4.151   5.793 -1.3832 -1.7605  0.5437
15899TIP3   OH269187   2.535   1.691  13.149  0.6283 -0.1247  0.1805
15899TIP3    H169188   2.529   1.717  13.241  1.0529  1.3667 -0.2042
15899TIP3    H269189   2.445   1.673  13.123  0.4983 -0.4721  0.8505
15900TIP3   OH269190   1.321   0.141  12.917 -0.3427  0.2500 -0.3926
15900TIP3    H169191   1.232   0.163  12.888 -0.6447 -0.9827 -0.4339
15900TIP3    H269192   1.317   0.149  13.012 -0.0461  1.7656 -0.4834
15901TIP3   OH269193   3.468   0.149  16.309  0.4204  0.1388  0.2359
15901TIP3    H169194   3.522   0.143  16.230 -0.3918 -0.1830 -0.2998
15901TIP3    H269195   3.378   0.155  16.277  0.1270  0.6235  1.1215
15902TIP3   OH269196   4.954   5.443  14.428 -0.1126  0.1812  0.3855
15902TIP3    H169197   4.870   5.472  14.462 -0.3471  0.6870 -0.6337
15902TIP3    H269198   5.004   5.523  14.415  0.3757 -0.0897  0.5552
15903TIP3   OH269199   4.505   6.251  14.244 -0.1548 -0.0381  0.2774
15903TIP3    H169200   4.536   6.281  14.329 -1.2335  1.9401  0.0157
15903TIP3    H269201   4.564   6.293  14.181  0.1695 -0.8839  0.0089
15904TIP3   OH269202   1.352   5.943  15.895  0.1637 -0.5144 -0.3508
15904TIP3    H169203   1.431   5.905  15.932  0.9049  1.6485  0.3625
15904TIP3    H269204   1.284   5.927  15.961  0.3016 -1.1405 -0.3540
15905TIP3   OH269205   6.711   1.621  16.687 -0.4007  0.0498 -0.2729
15905TIP3    H169206   6.789   1.649  16.735  0.9486 -0.5316 -2.0654
15905TIP3    H269207   6.689   1.695  16.631 -0.7729 -0.0102 -0.2069
15906TIP3   OH269208   6.289   3.414   2.090  0.0273  0.1032  0.0313
15906TIP3    H169209   6.368   3.360   2.089 -0.3471 -0.4410 -0.7924
15906TIP3    H269210   6.244   3.391   2.008 -0.5528  1.0385  0.0895
15907TIP3   OH269211   3.394   4.882   1.179  0.4222  0.7329 -0.4140
15907TIP3    H169212   3.342   4.957   1.209 -0.7347 -0.5259  0.8124
15907TIP3    H269213   3.476   4.888   1.228  0.7371  1.7458 -1.0555
15908TIP3   OH269214   1.597   0.542   3.433  0.1938 -0.8602  0.1924
15908TIP3    H169215   1.564   0.492   3.357 -0.9934 -1.9401  1.3934
15908TIP3    H269216   1.674   0.587   3.400  0.1687 -1.9792 -1.4568
15909TIP3   OH269217   2.007   4.484  13.907 -0.5218  0.1909  0.1672
15909TIP3    H169218   2.008   4.403  13.958  0.9066 -0.0767 -0.2628
15909TIP3    H269219   2.010   4.456  13.816 -0.0676  0.7218  0.0146
15910TIP3   OH269220   3.483   0.736  15.189 -0.1393 -0.1700  0.2571
15910TIP3    H169221   3.454   0.819  15.226 -2.0534 -0.6266 -0.1787
15910TIP3    H269222   3.529   0.760  15.109 -0.6599  0.4698  0.1485
15911TIP3   OH269223   5.252   0.912   0.461 -0.1425  0.0966  0.2250
15911TIP3    H169224   5.189   0.942   0.527 -1.2080  0.9921 -1.1743
15911TIP3    H269225   5.237   0.818   0.455  0.5911 -0.1410  1.9138
15912TIP3   OH269226   2.901   4.066  12.599 -0.1908 -0.3610 -0.1245
15912TIP3    H169227   2.975   4.007  12.581  0.1830  0.0691 -0.0207
15912TIP3    H269228   2.916   4.140  12.540 -0.2910 -0.0616  0.2278
15913TIP3   OH269229   2.827   2.477   3.177 -0.3013 -0.3092  0.2760
15913TIP3    H169230   2.781   2.535   3.117 -0.1487  0.0266  0.4846
15913TIP3    H269231   2.902   2.528   3.207 -1.0782 -0.0089  1.7349
15914TIP3   OH269232   4.049   2.223  17.242 -0.0651  0.1491 -0.2518
15914TIP3    H169233   4.013   2.168  17.311  1.6752  0.1628  0.6809
15914TIP3    H269234   3.982   2.291  17.228 -0.4744  0.0994  1.3504
15915TIP3   OH269235   0.083   4.218  12.523  0.2448  0.6841 -0.2923
15915TIP3    H169236   0.085   4.314  12.532 -1.5968  0.6420  0.8509
15915TIP3    H269237  -0.010   4.197  12.514  0.7083 -0.9428 -1.4756
15916TIP3   OH269238   0.261   0.518  14.002  0.6339 -0.1155  0.3562
15916TIP3    H169239   0.271   0.468  14.083  1.1772 -1.4920 -0.5488
15916TIP3    H269240   0.349   0.524  13.966  0.6110  1.6802  0.5512
15917TIP3   OH269241   4.329   6.688  13.416 -0.2958  0.3858  0.0039
15917TIP3    H169242   4.304   6.640  13.337 -2.5842  0.2645  0.7731
15917TIP3    H269243   4.302   6.779  13.399  1.2704  0.8179 -0.2422
15918TIP3   OH269244   2.003   5.179  13.636 -0.1546  0.0660 -0.6922
15918TIP3    H169245   2.093   5.153  13.618 -0.0320 -0.1572  0.2443
15918TIP3    H269246   1.997   5.184  13.731 -1.2427 -0.3183 -0.7251
15919TIP3   OH269247   5.456   2.320   6.587 -0.3710 -0.3772  0.2916
15919TIP3    H169248   5.421   2.279   6.666  0.0577  0.1085  0.7341
15919TIP3    H269249   5.486   2.406   6.616  0.3054 -0.4171 -0.2874
15920TIP3   OH269250   2.886   0.632  12.763  1.2139 -0.1355 -0.4966
15920TIP3    H169251   2.808   0.684  12.786  1.1668  0.3470 -1.6704
15920TIP3    H269252   2.922   0.678  12.687  0.5354 -2.4434 -2.2735
15921TIP3   OH269253   4.745   4.983  15.392 -0.4312  0.3584 -0.7539
15921TIP3    H169254   4.778   5.027  15.314 -0.0584 -0.1047 -0.8631
15921TIP3    H269255   4.792   4.900  15.394 -0.3986  0.3917 -0.0027
15922TIP3   OH269256   1.588   1.495  13.615 -0.4534  0.0352 -0.4093
15922TIP3    H169257   1.609   1.433  13.546  0.1970 -0.2004 -0.0073
15922TIP3    H269258   1.496   1.477  13.636 -0.4786 -0.2986 -0.7990
15923TIP3   OH269259   0.946   5.222   5.755  0.4986  0.3451 -0.2371
15923TIP3    H169260   1.012   5.286   5.728 -0.0902  1.2315  0.3849
15923TIP3    H269261   0.878   5.275   5.797 -0.6176 -0.5488 -0.8867
15924TIP3   OH269262   2.747   0.554   4.993 -0.2384  0.1254  0.0309
15924TIP3    H169263   2.766   0.522   5.081  0.0699 -2.3137 -0.8791
15924TIP3    H269264   2.806   0.504   4.937 -0.7894  1.2916 -1.6147
15925TIP3   OH269265   4.483   3.149  11.664  0.3014 -0.2572 -0.5181
15925TIP3    H169266   4.552   3.213  11.681  0.1050  0.3790 -2.0679
15925TIP3    H269267   4.529   3.064  11.665  0.8615  0.0475 -0.1955
15926TIP3   OH269268   4.469   5.067   2.211  0.2058  0.2119  0.5282
15926TIP3    H169269   4.494   4.978   2.233  3.2949  0.6496 -0.9437
15926TIP3    H269270   4.476   5.115   2.294  1.5763 -0.2789  0.6996
15927TIP3   OH269271   0.888   0.550  15.976 -0.1244  0.4497  0.4851
15927TIP3    H169272   0.967   0.545  16.031 -2.2644  0.7334  3.7265
15927TIP3    H269273   0.876   0.461  15.943  1.3246  0.3278  0.2334
15928TIP3   OH269274   0.961   3.997  10.872  0.0169  0.1287 -0.0364
15928TIP3    H169275   0.938   3.918  10.823 -1.3028  0.8771 -0.6407
15928TIP3    H269276   0.967   4.066  10.805  2.0927  0.3690  0.3564
15929TIP3   OH269277   1.168   1.735  16.179  0.2354  0.5451  0.3269
15929TIP3    H169278   1.146   1.692  16.096  0.3426 -0.8428  1.0003
15929TIP3    H269279   1.085   1.769  16.211 -0.2398 -1.0137  0.8047
15930TIP3   OH269280   2.678   0.023  11.367  0.7020  0.3662 -0.6460
15930TIP3    H169281   2.769   0.048  11.348  0.8417  0.8790  0.6367
15930TIP3    H269282   2.677   0.011  11.462 -0.8797  1.5872 -0.4984
15931TIP3   OH269283   0.675   0.635  12.571 -0.2206 -0.3184 -0.1279
15931TIP3    H169284   0.603   0.687  12.535  0.0504  0.6690  0.7141
15931TIP3    H269285   0.679   0.661  12.663  1.5437  0.0353 -0.2838
15932TIP3   OH269286   1.728   5.815   6.559 -0.5682  0.3011 -0.4974
15932TIP3    H169287   1.805   5.781   6.605 -0.8738 -0.0617 -0.2497
15932TIP3    H269288   1.665   5.743   6.561 -1.1071  0.7756 -0.2426
15933TIP3   OH269289   5.286   0.729  13.352  0.1426 -1.6101  0.0657
15933TIP3    H169290   5.278   0.665  13.423  0.0196  0.7256  2.2881
15933TIP3    H269291   5.205   0.780  13.358 -0.0299 -1.6293 -2.0277
15934TIP3   OH269292   2.898   3.192  15.350 -0.5359 -0.3330  0.0385
15934TIP3    H169293   2.873   3.268  15.298  1.3397  0.5095  0.3030
15934TIP3    H269294   2.896   3.224  15.441  0.7163 -0.4411  0.1170
15935TIP3   OH269295   3.365   2.945  10.388  0.1722 -0.2617 -0.1565
15935TIP3    H169296   3.455   2.930  10.416 -0.4289 -0.7368  1.5852
15935TIP3    H269297   3.359   3.040  10.376  0.3412  0.0152  1.7748
15936TIP3   OH269298   3.287   0.084  12.583 -0.6682  0.3676  0.3864
15936TIP3    H169299   3.281   0.104  12.490  1.8064  0.0445  0.1066
15936TIP3    H269300   3.311   0.166  12.625 -1.1171  0.3646  0.6574
15937TIP3   OH269301   0.403   3.019  12.685 -0.5395  0.1163 -0.4118
15937TIP3    H169302   0.420   3.112  12.694  0.4329  0.1366 -2.1411
15937TIP3    H269303   0.459   2.991  12.612  0.3880 -2.1416  1.0828
15938TIP3   OH269304   4.441   2.144  14.202 -0.4741 -0.2426 -0.6287
15938TIP3    H169305   4.404   2.147  14.290 -0.0928 -0.2027 -0.4674
15938TIP3    H269306   4.423   2.055  14.171 -0.7262 -0.2131 -0.5614
15939TIP3   OH269307   4.211   5.649   4.009  0.5253 -0.2858  0.2537
15939TIP3    H169308   4.174   5.627   3.924  0.8099  1.7210 -0.3920
15939TIP3    H269309   4.261   5.729   3.995  0.3941  0.2066  2.3475
15940TIP3   OH269310   4.560   5.788  13.282 -0.1197  0.4606 -0.1958
15940TIP3    H169311   4.602   5.704  13.262 -0.3122  0.1889  0.5260
15940TIP3    H269312   4.489   5.765  13.343 -0.7199  1.0362 -0.6644
15941TIP3   OH269313   2.131   4.424  11.651 -0.1484  0.1215  0.4810
15941TIP3    H169314   2.208   4.471  11.683 -0.1436  0.3952  0.0794
15941TIP3    H269315   2.091   4.484  11.588  0.4486 -0.8286 -0.8449
15942TIP3   OH269316   2.813   5.491   1.500  0.5568  0.0480 -0.0246
15942TIP3    H169317   2.721   5.474   1.479  0.4229 -1.2797  1.4837
15942TIP3    H269318   2.814   5.498   1.596  2.2188 -1.2297  0.0689
15943TIP3   OH269319   2.756   2.789  16.180 -0.6965 -0.0077  0.0626
15943TIP3    H169320   2.756   2.801  16.275 -0.9434  1.3869 -0.1037
15943TIP3    H269321   2.758   2.877  16.144  0.5290 -0.5385 -1.2427
15944TIP3   OH269322   5.581   4.849   4.316  0.1593  0.3605 -0.0096
15944TIP3    H169323   5.646   4.826   4.382  1.8433  1.3206 -1.3083
15944TIP3    H269324   5.608   4.802   4.238 -0.4543  1.1273 -0.6901
15945TIP3   OH269325   3.956   0.371   5.044 -0.0773 -0.1440  0.7006
15945TIP3    H169326   3.919   0.411   4.965 -0.8207  0.0418  1.1452
15945TIP3    H269327   3.930   0.279   5.038  0.6097 -0.3158  0.2905
15946TIP3   OH269328   4.990   4.792   0.209 -0.3193  0.1463 -0.2239
15946TIP3    H169329   4.925   4.824   0.147 -0.0467  0.3130 -0.4229
15946TIP3    H269330   4.939   4.767   0.286 -0.7378 -0.6593 -0.7430
15947TIP3   OH269331   2.948   6.612  10.761 -0.4011 -0.2955 -0.0297
15947TIP3    H169332   3.037   6.613  10.728 -0.2035  1.8729  0.5149
15947TIP3    H269333   2.911   6.696  10.732 -1.1898  0.2860  2.5896
15948TIP3   OH269334   0.886   5.742  11.749  0.3723 -0.1187 -0.0590
15948TIP3    H169335   0.968   5.785  11.728  0.0353  0.4637 -0.1815
15948TIP3    H269336   0.881   5.747  11.845  0.1352  0.4780 -0.1023
15949TIP3   OH269337   0.280   4.165   1.749 -0.0165  0.1146 -0.6097
15949TIP3    H169338   0.293   4.078   1.712 -0.7576  0.6202 -2.0758
15949TIP3    H269339   0.357   4.215   1.723  0.9374 -0.3731  1.1443
15950TIP3   OH269340   4.278   4.203   1.266 -0.5323 -0.1230  0.4026
15950TIP3    H169341   4.203   4.248   1.226 -0.6604  0.6487  1.5192
15950TIP3    H269342   4.312   4.264   1.330  1.8473  0.0178 -0.9479
15951TIP3   OH269343   0.159   2.090  12.465  0.4997 -0.2152 -0.4897
15951TIP3    H169344   0.112   2.006  12.466  1.8878 -1.0317  2.3589
15951TIP3    H269345   0.107   2.147  12.522  1.0961 -0.0503 -0.1091
15952TIP3   OH269346   1.400   1.104   0.235 -0.1586  0.4348  0.2767
15952TIP3    H169347   1.474   1.097   0.295  0.2182 -3.1105 -0.4727
15952TIP3    H269348   1.327   1.064   0.282 -0.8596  1.2390 -0.1206
15953TIP3   OH269349   3.414   0.098  15.925  0.5527 -0.6877 -0.0101
15953TIP3    H169350   3.490   0.060  15.969  1.3629 -1.4836 -2.0243
15953TIP3    H269351   3.443   0.110  15.834 -0.8186  1.5851 -0.1810
15954TIP3   OH269352   6.635   6.606   3.163  0.1331  0.5328  0.1677
15954TIP3    H169353   6.565   6.560   3.211 -0.8750  2.0107  0.1716
15954TIP3    H269354   6.714   6.556   3.181 -0.6771 -0.3346  1.3940
15955TIP3   OH269355   5.476   4.010  12.212 -0.0142 -0.0711  0.3353
15955TIP3    H169356   5.481   3.917  12.191  0.1667  0.0099  0.0058
15955TIP3    H269357   5.474   4.014  12.307 -2.9812 -0.5565  0.3316
15956TIP3   OH269358   3.848   1.569  14.286  0.0703  0.5384  0.5175
15956TIP3    H169359   3.791   1.499  14.254 -0.4506  2.0268 -1.9483
15956TIP3    H269360   3.851   1.557  14.381 -4.2223  0.3371  0.7030
15957TIP3   OH269361   6.505   5.814  12.980 -0.3386 -0.2383 -0.3978
15957TIP3    H169362   6.423   5.798  13.026 -0.2044 -0.8095 -0.3519
15957TIP3    H269363   6.524   5.906  12.996 -1.6961  0.2736 -1.5857
15958TIP3   OH269364   4.601   3.449  16.852 -0.3646 -0.2487  0.1035
15958TIP3    H169365   4.695   3.435  16.842 -0.4415  0.5093 -1.8520
15958TIP3    H269366   4.562   3.362  16.840 -0.1128 -0.0882 -2.1331
15959TIP3   OH269367   2.963   2.587  12.548  0.1881  0.1855 -0.0001
15959TIP3    H169368   3.050   2.572  12.512 -0.0979 -0.6235 -0.3516
15959TIP3    H269369   2.970   2.563  12.640  1.1991  3.2440  0.7743
15960TIP3   OH269370   5.533   1.191   1.453  0.2505 -0.1322 -0.3256
15960TIP3    H169371   5.546   1.160   1.542  0.2811  0.5323 -0.0924
15960TIP3    H269372   5.554   1.116   1.398  0.9839 -0.3171  0.1934
15961TIP3   OH269373   3.154   6.015   3.081 -0.1104  0.3995 -0.6064
15961TIP3    H169374   3.235   6.024   3.030 -0.7836  0.1718 -1.7214
15961TIP3    H269375   3.102   5.950   3.033 -0.6193 -0.0643  0.5482
15962TIP3   OH269376   1.762   3.808   3.141 -0.1938  0.2673  0.5672
15962TIP3    H169377   1.678   3.804   3.096 -0.1729  1.4810  0.4042
15962TIP3    H269378   1.800   3.892   3.114  1.6498 -0.8242 -0.3992
15963TIP3   OH269379   0.472   3.209  12.408 -0.2415  0.4242 -0.0915
15963TIP3    H169380   0.507   3.131  12.366 -1.0634 -0.8782  1.6017
15963TIP3    H269381   0.386   3.223  12.367 -1.3715 -1.2792  1.6106
15964TIP3   OH269382   1.138   0.005   5.614 -0.3049  0.2848 -0.0466
15964TIP3    H169383   1.195  -0.055   5.566 -0.2037 -0.0555  0.4984
15964TIP3    H269384   1.195   0.079   5.635 -0.4334  0.5898 -0.7296
15965TIP3   OH269385   2.840   5.573  16.757  0.0553 -0.0223 -0.2080
15965TIP3    H169386   2.915   5.627  16.783  0.7782 -0.1698 -1.9438
15965TIP3    H269387   2.786   5.568  16.836  1.3166  1.0078  0.7442
15966TIP3   OH269388   1.517   1.835   4.012  0.1294 -0.1342  0.6350
15966TIP3    H169389   1.434   1.881   4.029 -0.7090 -1.3695  0.0147
15966TIP3    H269390   1.507   1.802   3.923  2.2454  1.6453 -0.2832
15967TIP3   OH269391   1.184   1.697  17.024 -0.2825 -0.1115 -0.5467
15967TIP3    H169392   1.255   1.658  17.075  0.0926  0.1133 -0.8899
15967TIP3    H269393   1.158   1.629  16.962 -0.0584 -0.0384 -0.7221
15968TIP3   OH269394   4.687   5.565   1.171 -0.0780 -0.3660 -0.3915
15968TIP3    H169395   4.721   5.550   1.259 -2.3731 -2.1953  0.2407
15968TIP3    H269396   4.595   5.589   1.185 -0.2646  0.0786 -2.2500
15969TIP3   OH269397   2.379   1.151  14.843 -0.7367 -0.5277  0.6929
15969TIP3    H169398   2.289   1.155  14.874 -0.5000  1.2914  1.2414
15969TIP3    H269399   2.381   1.078  14.782 -2.1024 -1.8112  2.1669
15970TIP3   OH269400   3.138   4.096   1.339 -0.1365  0.3191 -0.5031
15970TIP3    H169401   3.051   4.130   1.322  0.1457  1.1914 -0.2033
15970TIP3    H269402   3.159   4.125   1.428  1.5972  2.5213 -1.5955
15971TIP3   OH269403   5.277   5.931   1.432 -0.3676  0.0617  0.5876
15971TIP3    H169404   5.186   5.954   1.453 -0.1306  1.8938 -0.3150
15971TIP3    H269405   5.270   5.873   1.356 -0.8680 -1.3123  1.6570
15972TIP3   OH269406   6.533   1.804   0.831  0.5474  0.1780 -0.2775
15972TIP3    H169407   6.551   1.833   0.921 -0.3866  2.7437 -0.8645
15972TIP3    H269408   6.616   1.767   0.801  0.4129 -2.2982  2.1794
15973TIP3   OH269409   4.771   4.269   2.854 -0.1892 -0.0033 -0.2154
15973TIP3    H169410   4.707   4.206   2.888 -0.0403  1.1225  2.2683
15973TIP3    H269411   4.718   4.335   2.809 -0.5245 -0.6423 -0.7672
15974TIP3   OH269412   5.322   5.822  13.444  0.2735  0.1012  0.3402
15974TIP3    H169413   5.326   5.913  13.414 -0.0433  0.2728  0.8083
15974TIP3    H269414   5.241   5.788  13.405  0.6203 -0.1126 -0.1960
15975TIP3   OH269415   6.210   3.675  13.045 -0.3772  0.1246 -0.0803
15975TIP3    H169416   6.286   3.731  13.062  0.6058 -1.1776 -0.0873
15975TIP3    H269417   6.136   3.736  13.042  0.5888  1.3635  0.4112
15976TIP3   OH269418   0.136   0.230   3.787 -0.1454  0.1351 -0.6486
15976TIP3    H169419   0.217   0.269   3.819  1.7519 -1.4221 -3.3261
15976TIP3    H269420   0.075   0.304   3.780  0.6181  1.1184  2.5581
15977TIP3   OH269421   6.406   4.297  14.368 -0.0340  0.0799  0.2720
15977TIP3    H169422   6.410   4.379  14.319 -0.8971 -0.6859 -1.1473
15977TIP3    H269423   6.389   4.323  14.458 -0.7438  1.4396 -0.2413
15978TIP3   OH269424   5.578   2.322  11.783 -0.4089  0.2803 -0.2973
15978TIP3    H169425   5.551   2.371  11.861  1.1498  0.3168  0.2375
15978TIP3    H269426   5.588   2.388  11.715  0.4451  0.5585  0.0872
15979TIP3   OH269427   6.322   3.469  16.603  0.1151 -0.4561 -0.2411
15979TIP3    H169428   6.316   3.386  16.557 -0.5356 -0.4743 -0.1339
15979TIP3    H269429   6.286   3.451  16.690 -2.0127  0.4330 -0.9089
15980TIP3   OH269430   3.899   5.454   5.516  0.0501  0.6698 -0.2026
15980TIP3    H169431   3.855   5.438   5.433  1.7229  1.4959 -1.2784
15980TIP3    H269432   3.973   5.394   5.517  0.7685  1.5367  0.1031
15981TIP3   OH269433   6.774   5.604   0.813 -0.2760 -0.0032 -0.0540
15981TIP3    H169434   6.678   5.610   0.818 -0.4549 -0.0289 -2.9450
15981TIP3    H269435   6.804   5.694   0.822 -0.3972 -0.2153  3.1134
15982TIP3   OH269436   3.181   3.975   0.294 -0.0762 -0.1742  0.1562
15982TIP3    H169437   3.201   3.923   0.217 -1.2692 -1.2322  0.5310
15982TIP3    H269438   3.209   4.064   0.272 -0.7768 -0.3862 -1.6383
15983TIP3   OH269439   2.479   2.574  15.881 -0.4453  0.1868  0.3974
15983TIP3    H169440   2.412   2.615  15.826 -0.6502 -1.6007 -0.7077
15983TIP3    H269441   2.441   2.490  15.907  1.0533 -0.5123  0.3858
15984TIP3   OH269442   2.950   4.105   3.160 -0.2917 -0.4436  0.1585
15984TIP3    H169443   2.958   4.079   3.252 -0.4337  0.5219  0.4521
15984TIP3    H269444   2.867   4.152   3.155 -0.1007 -0.1491 -0.3724
15985TIP3   OH269445   2.014   1.334  17.004 -0.4008  0.4844 -0.3343
15985TIP3    H169446   1.967   1.416  16.993  1.1937  1.2586 -1.6498
15985TIP3    H269447   2.085   1.339  16.940  1.0535 -0.9334  1.1285
15986TIP3   OH269448   1.746   5.457   3.061 -0.6030  0.5293  0.5622
15986TIP3    H169449   1.798   5.537   3.053  0.0855  0.1213  0.9015
15986TIP3    H269450   1.757   5.412   2.977 -0.8415  0.6970  0.4395
15987TIP3   OH269451   4.928   3.080  12.435 -0.2315  0.0861  0.8157
15987TIP3    H169452   4.956   2.991  12.456 -0.4877 -0.6836 -1.8547
15987TIP3    H269453   5.007   3.133  12.448  1.0618 -1.2026 -1.3537
15988TIP3   OH269454   3.143   3.121   0.921  0.2155  0.1909  0.1543
15988TIP3    H169455   3.225   3.089   0.959 -0.3054  0.4788  1.5468
15988TIP3    H269456   3.143   3.215   0.938  0.4747  0.5207 -1.5462
15989TIP3   OH269457   5.628   3.431  15.507 -0.7659 -0.0134 -0.1690
15989TIP3    H169458   5.687   3.470  15.443 -1.3799 -0.1499 -0.8166
15989TIP3    H269459   5.556   3.493  15.515  0.2037  0.9260  1.8030
15990TIP3   OH269460   3.988   3.189   0.015 -0.8051 -0.2684  0.4730
15990TIP3    H169461   3.914   3.202   0.073 -1.6483  0.0681 -0.6606
15990TIP3    H269462   4.016   3.099   0.031 -0.0464  0.2944  2.4923
15991TIP3   OH269463   6.056   5.849  12.837 -0.0445  0.4276  0.5213
15991TIP3    H169464   6.115   5.818  12.905  0.0985  0.1386  0.2654
15991TIP3    H269465   6.062   5.944  12.841 -0.5778  0.4276  1.3917
15992TIP3   OH269466   1.731   1.858   2.644  0.7074 -0.1210 -0.2501
15992TIP3    H169467   1.757   1.935   2.694  1.5921 -0.4183 -0.2399
15992TIP3    H269468   1.670   1.812   2.702  1.3210 -0.1934  0.3564
15993TIP3   OH269469   5.690   2.273  15.991 -0.0871 -0.6078  0.1890
15993TIP3    H169470   5.659   2.227  16.069 -0.3430  1.0092  1.0816
15993TIP3    H269471   5.784   2.285  16.006 -0.1962  0.0060  0.4396
15994TIP3   OH269472   5.579   5.288   2.810 -0.4709  0.2424 -0.1576
15994TIP3    H169473   5.490   5.323   2.804 -1.0085 -0.5766  2.2546
15994TIP3    H269474   5.636   5.364   2.803 -1.4576  1.0331  0.3397
15995TIP3   OH269475   4.913   2.128   0.963 -0.3403  0.4406 -0.0730
15995TIP3    H169476   4.968   2.204   0.943 -2.1690  1.5615 -0.8796
15995TIP3    H269477   4.846   2.162   1.022 -0.0853 -0.9750  1.0711
15996TIP3   OH269478   0.958   0.887  16.805  0.2968 -0.3339  0.1356
15996TIP3    H169479   1.052   0.892  16.820  0.5628 -1.3721 -1.0804
15996TIP3    H269480   0.921   0.870  16.891  1.1789  0.4811  0.6880
15997TIP3   OH269481   6.103   4.244   2.840 -0.1539 -0.2631  0.1827
15997TIP3    H169482   6.099   4.242   2.935  1.3238 -3.2835  0.2439
15997TIP3    H269483   6.022   4.287   2.813  0.0292  1.8660  2.7883
15998TIP3   OH269484   2.225   2.828   1.905 -0.6034  0.0981  0.2016
15998TIP3    H169485   2.219   2.798   1.815 -1.9343 -0.7178  0.5475
15998TIP3    H269486   2.241   2.923   1.898 -0.2436 -0.0381 -0.8812
15999TIP3   OH269487   5.878   5.376   6.698  0.1848 -0.2753 -0.1977
15999TIP3    H169488   5.973   5.370   6.704  0.1979 -0.0408 -0.1632
15999TIP3    H269489   5.856   5.457   6.744  0.1051  0.4455 -1.4783
16000TIP3   OH269490   2.036   6.524   1.941 -0.1686 -1.2341 -0.3404
16000TIP3    H169491   2.117   6.503   1.894 -0.0195  1.8996 -1.6177
16000TIP3    H269492   1.968   6.522   1.874 -0.6861 -1.1464  0.1787
16001TIP3   OH269493   4.839   0.989   2.504 -0.4384 -0.3270 -0.0896
16001TIP3    H169494   4.857   0.896   2.504 -0.3880 -0.3242  0.8473
16001TIP3    H269495   4.925   1.031   2.516 -0.2535 -0.1043 -2.0955
16002TIP3   OH269496   1.749   5.293   5.823  0.1640 -0.1635  0.2513
16002TIP3    H169497   1.820   5.347   5.857  0.0323  1.7209 -2.3305
16002TIP3    H269498   1.787   5.206   5.814  1.3785  0.2561  1.3310
16003TIP3   OH269499   2.879   3.365  14.763  0.1184 -0.0863 -0.0911
16003TIP3    H169500   2.887   3.311  14.842  1.3570  0.0944 -0.0834
16003TIP3    H269501   2.809   3.323  14.713  0.1283 -0.8964  0.5560
16004TIP3   OH269502   4.465   0.932   2.229  0.0411 -0.2167  0.0845
16004TIP3    H169503   4.429   1.020   2.220  0.4830 -0.0311  0.1362
16004TIP3    H269504   4.391   0.874   2.211  0.2483  0.1516 -2.2260
16005TIP3   OH269505   4.910   2.940   5.979  0.0442 -0.4937  0.2825
16005TIP3    H169506   4.914   2.846   5.995 -0.7741 -1.0487 -2.4724
16005TIP3    H269507   4.833   2.951   5.922 -0.0117  1.8619  0.7947
16006TIP3   OH269508   4.603   0.013  16.609 -0.3286  0.1306 -0.7047
16006TIP3    H169509   4.574   0.104  16.617 -1.1557 -0.2518  0.8454
16006TIP3    H269510   4.522  -0.036  16.594  0.0070 -0.4627 -0.5922
16007TIP3   OH269511   4.387   1.369  16.072 -0.4886 -0.4120  0.9251
16007TIP3    H169512   4.367   1.333  16.158  1.7636 -0.5747  1.4268
16007TIP3    H269513   4.421   1.295  16.022 -0.7046 -0.0825  0.2899
16008TIP3   OH269514   1.110   4.665   2.109 -0.4416  0.4499 -0.0640
16008TIP3    H169515   1.079   4.754   2.091 -1.4733  0.1025 -0.0017
16008TIP3    H269516   1.039   4.608   2.082 -0.2879 -0.2952  1.0661
16009TIP3   OH269517   2.716   4.106  16.360  0.3902  0.5771 -0.5084
16009TIP3    H169518   2.752   4.178  16.411 -1.2042  0.8923  0.2114
16009TIP3    H269519   2.650   4.067  16.417 -0.0907 -0.2532 -1.6126
16010TIP3   OH269520   3.862   3.867   0.575 -0.1919  0.4823 -0.3842
16010TIP3    H169521   3.822   3.801   0.518 -0.4931  2.2238 -2.2456
16010TIP3    H269522   3.789   3.906   0.622 -0.0426 -0.2787  0.4992
16011TIP3   OH269523   5.586   3.521   3.184  0.0582 -0.1969  0.1681
16011TIP3    H169524   5.604   3.576   3.260  0.8311  0.2104 -0.3116
16011TIP3    H269525   5.497   3.490   3.198  0.9526 -1.9016  2.3450
16012TIP3   OH269526   6.423   5.882  12.561  0.2729  0.7319 -0.4521
16012TIP3    H169527   6.342   5.872  12.511  1.4185 -0.5514 -2.0874
16012TIP3    H269528   6.395   5.920  12.645 -2.1303 -0.6238 -0.6167
16013TIP3   OH269529   5.531   6.253   2.993 -0.5144  0.3872  0.0508
16013TIP3    H169530   5.548   6.340   2.956  1.2025 -0.1573 -0.4941
16013TIP3    H269531   5.594   6.244   3.064 -0.2929 -0.6529 -0.2764
16014TIP3   OH269532   4.918   6.571   0.748 -0.1579 -0.2681  0.1101
16014TIP3    H169533   4.829   6.542   0.729 -0.2135 -2.2862  3.1462
16014TIP3    H269534   4.971   6.535   0.677 -1.6886  0.6582 -1.5232
16015TIP3   OH269535   5.309   3.789   3.333 -0.1330  0.3751 -0.3509
16015TIP3    H169536   5.358   3.781   3.415 -1.6384  0.3376  0.5773
16015TIP3    H269537   5.376   3.796   3.265  1.1607 -1.9620  0.6365
16016TIP3   OH269538   6.479   4.960   2.810 -0.0911  0.2382  0.6986
16016TIP3    H169539   6.413   4.978   2.877 -0.2967 -0.0268  0.5706
16016TIP3    H269540   6.526   4.884   2.844 -0.7410 -0.4175  0.1537
16017TIP3   OH269541   0.216   2.228  14.737  0.2853 -0.0871  0.4373
16017TIP3    H169542   0.294   2.186  14.773 -0.6666 -1.3082  1.0942
16017TIP3    H269543   0.153   2.227  14.809 -0.8778 -0.5306 -0.5741
16018TIP3   OH269544   6.251   3.584   5.685 -0.0800  0.2764  0.7887
16018TIP3    H169545   6.240   3.491   5.664  1.1935  0.1034  0.8315
16018TIP3    H269546   6.268   3.626   5.601  0.1448  0.3382  0.8630
16019TIP3   OH269547   1.600   3.445  17.092 -0.4391  0.1612  0.7177
16019TIP3    H169548   1.566   3.529  17.123 -0.2232  0.1153  1.0779
16019TIP3    H269549   1.522   3.396  17.066 -0.5616  0.4904  0.4643
16020TIP3   OH269550   2.788   2.942  15.657  0.0417  0.1241  0.1588
16020TIP3    H169551   2.831   3.022  15.687 -2.4278  1.0772  1.3092
16020TIP3    H269552   2.706   2.972  15.617 -1.1175 -1.8381  0.9822
16021TIP3   OH269553   2.687   2.448  12.778 -0.2079  0.6323 -0.2159
16021TIP3    H169554   2.778   2.477  12.782 -0.2316  0.4795  1.8062
16021TIP3    H269555   2.636   2.522  12.812 -0.9080  0.9753 -1.9740
16022TIP3   OH269556   2.623   6.452   1.083 -0.1867  0.7214 -0.0969
16022TIP3    H169557   2.677   6.527   1.105  0.5966  0.5764 -1.4849
16022TIP3    H269558   2.647   6.385   1.148  0.6057  0.9810 -0.1200
16023TIP3   OH269559   4.699   4.223  15.030 -1.0470 -0.1594  0.4235
16023TIP3    H169560   4.624   4.164  15.037 -0.7901 -0.4916  0.3268
16023TIP3    H269561   4.738   4.203  14.945  1.1777 -2.3533  1.8916
16024TIP3   OH269562   4.943   6.554   5.604 -0.2058  0.0253  0.0704
16024TIP3    H169563   4.965   6.609   5.529 -0.3788 -0.7477 -0.5502
16024TIP3    H269564   4.880   6.606   5.654 -0.7707  0.1704 -0.7874
16025TIP3   OH269565   3.696   2.117   2.511 -0.3731 -0.1413 -1.0710
16025TIP3    H169566   3.701   2.023   2.496 -1.4199 -0.4562  0.4233
16025TIP3    H269567   3.603   2.133   2.529 -0.0270  0.9901 -0.2231
16026TIP3   OH269568   0.607   0.649   4.973  0.2475  0.4276  0.2670
16026TIP3    H169569   0.520   0.638   5.012 -0.9344  1.2741 -2.0314
16026TIP3    H269570   0.640   0.560   4.964 -0.6038  0.0627  0.6524
16027TIP3   OH269571   6.531   5.740   3.722 -0.7544 -0.0140 -0.5301
16027TIP3    H169572   6.454   5.708   3.674 -1.5129  0.3137  0.4397
16027TIP3    H269573   6.521   5.703   3.810 -0.6944  1.4124  0.0893
16028TIP3   OH269574   0.135   1.917   6.396 -0.3302 -0.1943 -0.2370
16028TIP3    H169575   0.173   1.976   6.331 -0.0872 -0.9428 -0.7833
16028TIP3    H269576   0.106   1.975   6.467  3.5409  0.2571  1.0968
16029TIP3   OH269577   6.796   3.066  12.751 -0.3308  0.1556  0.0503
16029TIP3    H169578   6.810   3.096  12.841 -1.9086 -0.0023  0.3578
16029TIP3    H269579   6.857   2.993  12.741  1.4798  1.6143  0.2384
16030TIP3   OH269580   3.054   0.485  11.042  0.4897  0.1029 -0.0624
16030TIP3    H169581   2.973   0.506  10.996  0.4244 -0.2214 -0.0966
16030TIP3    H269582   3.067   0.557  11.104  0.5237  0.4918 -0.5194
16031TIP3   OH269583   4.239   2.838  15.467  0.6450 -0.6804  0.2231
16031TIP3    H169584   4.199   2.784  15.399  0.3107 -1.7321  1.2307
16031TIP3    H269585   4.250   2.924  15.427 -0.0405 -1.1451 -0.9765
16032TIP3   OH269586   0.343   5.501   5.131 -0.0380  0.0772  0.0799
16032TIP3    H169587   0.364   5.419   5.177  1.9492  0.2147 -0.5374
16032TIP3    H269588   0.265   5.534   5.176  1.1687 -0.3993  2.5848
16033TIP3   OH269589   2.284   5.525   3.263 -0.0260  0.4191  0.2204
16033TIP3    H169590   2.340   5.511   3.340  0.2829  1.2622  0.1549
16033TIP3    H269591   2.275   5.620   3.257 -1.3425  0.2946  0.1324
16034TIP3   OH269592   5.301   6.745  15.442 -0.0907 -0.4901  0.0923
16034TIP3    H169593   5.223   6.726  15.495 -0.2917 -1.4666 -0.5464
16034TIP3    H269594   5.327   6.834  15.469 -1.4868 -0.1045  0.2203
16035TIP3   OH269595   3.602   6.107  11.582  0.6060  0.3106 -0.4076
16035TIP3    H169596   3.613   6.077  11.492 -1.9616 -0.5750 -0.4621
16035TIP3    H269597   3.552   6.189  11.574  1.0271  0.6297  0.1736
16036TIP3   OH269598   5.277   5.112   5.730 -0.8989 -0.3315 -0.0205
16036TIP3    H169599   5.298   5.205   5.737 -0.6416 -0.4136  0.3276
16036TIP3    H269600   5.253   5.086   5.819 -0.3874 -0.7344  0.0061
16037TIP3   OH269601   0.760   4.364  17.272  0.0181  0.1605  0.7020
16037TIP3    H169602   0.849   4.389  17.299  1.0483 -1.6236 -0.9062
16037TIP3    H269603   0.773   4.291  17.212 -2.4889  0.6886 -0.5611
16038TIP3   OH269604   1.265   0.686  14.126  0.2819  0.1012  0.3294
16038TIP3    H169605   1.328   0.701  14.196 -0.1857 -1.9530  1.2310
16038TIP3    H269606   1.318   0.685  14.046  0.9025  1.8316  0.7050
16039TIP3   OH269607   1.767   2.319  10.832 -0.7814  0.2684  0.2877
16039TIP3    H169608   1.844   2.322  10.889  0.2080 -2.2940 -0.8205
16039TIP3    H269609   1.789   2.376  10.759  0.0493 -0.3601  0.0335
16040TIP3   OH269610   2.108   6.458  14.498 -0.3764 -0.7024  0.4820
16040TIP3    H169611   2.092   6.368  14.468 -1.4717 -0.3558  0.0109
16040TIP3    H269612   2.171   6.448  14.570 -0.2446 -1.8197  0.2264
16041TIP3   OH269613   6.728   1.448  17.019  0.0841  0.0922  0.3684
16041TIP3    H169614   6.779   1.497  16.954  1.7708 -2.2091 -0.0710
16041TIP3    H269615   6.702   1.368  16.974 -0.4662 -0.6101  1.9121
16042TIP3   OH269616   5.716   3.692  14.189  0.0677  0.0835 -0.1913
16042TIP3    H169617   5.752   3.676  14.102  0.5291  1.8640 -0.3514
16042TIP3    H269618   5.787   3.734  14.237 -0.5249  0.0494  0.7247
16043TIP3   OH269619   2.521   6.426   5.334  0.4788  0.3834 -0.0504
16043TIP3    H169620   2.485   6.351   5.287 -1.8808  1.6210 -0.2612
16043TIP3    H269621   2.546   6.390   5.419  0.1325 -0.8136 -0.4353
16044TIP3   OH269622   0.911   5.432  14.340  0.0780  0.2029 -0.2037
16044TIP3    H169623   0.906   5.467  14.430  0.7851  1.1609 -0.5280
16044TIP3    H269624   0.997   5.390  14.336  0.7606  1.6274 -0.9361
16045TIP3   OH269625   5.312   5.332   2.891 -0.3979  0.3916  0.4275
16045TIP3    H169626   5.233   5.383   2.909 -2.4114 -2.7364  0.7109
16045TIP3    H269627   5.295   5.247   2.930  2.5244 -0.8022 -0.8103
16046TIP3   OH269628   5.580   5.725  12.797  0.3127 -0.0258  0.1750
16046TIP3    H169629   5.516   5.721  12.725  1.5402 -0.8971 -0.9012
16046TIP3    H269630   5.658   5.763  12.757  0.8396 -0.0229  1.1967
16047TIP3   OH269631   3.956   2.093   3.393 -0.2768 -0.2174  0.4801
16047TIP3    H169632   4.028   2.051   3.440 -1.5867 -2.1993  0.7521
16047TIP3    H269633   3.894   2.118   3.462 -0.2686  0.6928  0.1660
16048TIP3   OH269634   6.689   6.476  14.911  0.4155  0.0429  0.0926
16048TIP3    H169635   6.735   6.457  14.993 -1.1722  1.2092  1.2953
16048TIP3    H269636   6.621   6.409  14.906 -2.5042  2.6702  2.2015
16049TIP3   OH269637   3.236   0.096   2.533 -0.5742  0.5006 -0.6578
16049TIP3    H169638   3.284   0.149   2.596  0.6809 -1.0079 -0.3367
16049TIP3    H269639   3.224   0.154   2.457  0.3201  1.4081 -0.1073
16050TIP3   OH269640   4.298   2.843  16.119  0.1974  0.3540  0.2264
16050TIP3    H169641   4.297   2.910  16.188 -0.8321  1.8107 -1.1679
16050TIP3    H269642   4.283   2.761  16.165  4.0454  0.7015  2.3227
16051TIP3   OH269643   4.941   4.824   5.263  0.1907 -0.0346 -0.0682
16051TIP3    H169644   4.868   4.838   5.323  0.5590  2.7961 -0.1963
16051TIP3    H269645   4.903   4.838   5.176  0.3492 -1.0424 -0.3076
16052TIP3   OH269646   5.843   6.130  15.649  0.2033  0.3304 -0.6321
16052TIP3    H169647   5.844   6.068  15.577 -0.7965 -2.4996  1.6948
16052TIP3    H269648   5.935   6.142  15.671  0.3332 -2.2735  0.4394
16053TIP3   OH269649   4.318   2.496   6.094  0.4948 -0.4880 -0.0244
16053TIP3    H169650   4.292   2.410   6.062 -0.1078  0.4439 -2.1774
16053TIP3    H269651   4.238   2.548   6.092  0.9441  0.2492  0.7904
16054TIP3   OH269652   4.354   0.291  11.762 -0.6058 -0.2116  0.4126
16054TIP3    H169653   4.387   0.242  11.837 -0.1165  0.5701  0.7142
16054TIP3    H269654   4.420   0.359  11.746 -1.6675  0.8705  0.5191
16055TIP3   OH269655   4.276   5.535   1.459 -0.2994 -0.0444  0.4657
16055TIP3    H169656   4.198   5.505   1.508  0.2981 -0.3297  1.2576
16055TIP3    H269657   4.304   5.614   1.506  1.2612 -1.2532  1.6194
16056TIP3   OH269658   5.477   2.392  16.516 -0.0277  0.2377 -0.1196
16056TIP3    H169659   5.493   2.405  16.423 -1.0129 -1.1295 -0.4888
16056TIP3    H269660   5.491   2.298  16.530  2.7025  0.8585  1.6254
16057TIP3   OH269661   3.163   5.539  13.093 -0.1640 -0.1675 -0.0221
16057TIP3    H169662   3.146   5.496  13.177  1.3502  0.1828  0.4765
16057TIP3    H269663   3.258   5.532  13.081 -0.1708  1.1214 -0.9690
16058TIP3   OH269664   6.153   6.111  17.274  0.1758  0.3881  0.0531
16058TIP3    H169665   6.159   6.206  17.276 -1.9635  0.5673 -0.2609
16058TIP3    H269666   6.140   6.089  17.182  1.1827 -0.2526  0.0545
16059TIP3   OH269667   3.129   3.755  14.021  0.3955 -0.5809  0.0509
16059TIP3    H169668   3.142   3.708  13.939 -2.8906 -2.7674  0.7068
16059TIP3    H269669   3.148   3.846  14.000 -0.5576 -1.0802 -3.1852
16060TIP3   OH269670   4.895   0.951   0.885 -0.3070 -0.4351  0.5279
16060TIP3    H169671   4.852   0.981   0.805 -0.4461  1.4659  1.2930
16060TIP3    H269672   4.824   0.947   0.950  0.0675 -0.5843  0.9285
16061TIP3   OH269673   1.485   5.931  12.314 -0.1951 -0.4906  0.2617
16061TIP3    H169674   1.480   5.903  12.406  0.0924 -0.8692  0.1625
16061TIP3    H269675   1.402   5.902  12.276 -0.4371 -0.0800  0.4692
16062TIP3   OH269676   3.625   2.261   2.159  0.2737  0.0728  0.0833
16062TIP3    H169677   3.556   2.317   2.193 -0.6081 -0.5024 -0.7223
16062TIP3    H269678   3.706   2.304   2.185 -0.3847  1.1600  0.3694
16063TIP3   OH269679   1.897   6.710   3.961  0.3430  0.6809  0.6678
16063TIP3    H169680   1.906   6.683   4.052 -0.3085  0.9542  0.8140
16063TIP3    H269681   1.981   6.752   3.940  1.1137 -0.8260  0.6352
16064TIP3   OH269682   1.216   6.804  16.277 -0.1228 -0.0655  0.0931
16064TIP3    H169683   1.204   6.720  16.232 -0.0096  0.8943 -1.7484
16064TIP3    H269684   1.310   6.810  16.292 -0.0115  0.2175 -0.7192
16065TIP3   OH269685   5.788   1.405   2.563 -0.0002  0.1622 -0.0277
16065TIP3    H169686   5.772   1.325   2.512  0.7208  0.1164 -0.1919
16065TIP3    H269687   5.830   1.374   2.643 -0.5477  0.2943  0.3091
16066TIP3   OH269688   1.518   4.746   1.023  0.7240  0.1966 -0.0244
16066TIP3    H169689   1.462   4.724   1.098  1.1614  1.1056  0.5761
16066TIP3    H269690   1.456   4.777   0.956  0.2634 -1.2903 -0.3054
16067TIP3   OH269691   6.300   2.394  10.843  0.1837  1.0712 -0.3981
16067TIP3    H169692   6.328   2.303  10.845  0.7466  1.2651  1.1558
16067TIP3    H269693   6.206   2.390  10.823 -0.0335  0.0867  0.7653
16068TIP3   OH269694   5.883   2.308  15.459  0.5746  0.5044 -0.0302
16068TIP3    H169695   5.903   2.397  15.429 -0.1156 -0.4385 -3.5461
16068TIP3    H269696   5.818   2.320  15.528 -0.4716  2.7104 -1.3334
16069TIP3   OH269697   1.572   6.548  11.656 -0.4551 -0.0938 -0.0288
16069TIP3    H169698   1.570   6.614  11.587  1.2760  0.8132  0.7531
16069TIP3    H269699   1.518   6.476  11.623 -0.1671  0.6007 -2.0321
16070TIP3   OH269700   6.095   0.603   4.530  0.0612  0.0823  0.3028
16070TIP3    H169701   6.036   0.530   4.511 -2.6889  2.2190  0.2316
16070TIP3    H269702   6.077   0.624   4.622 -0.2401  1.5638 -0.0852
16071TIP3   OH269703   4.926   1.369  17.168  0.1933 -0.1808  0.3598
16071TIP3    H169704   5.010   1.332  17.139 -1.1475 -1.3395 -2.1438
16071TIP3    H269705   4.891   1.303  17.228  1.3723  0.6318  1.9812
16072TIP3   OH269706   4.106   6.115   4.440  0.1873 -0.3508 -0.5345
16072TIP3    H169707   4.068   6.028   4.454  0.3215 -0.1422  1.3803
16072TIP3    H269708   4.086   6.137   4.349 -3.7481 -0.5237  0.2142
16073TIP3   OH269709   2.228   1.702   0.685  0.0425  0.6181  0.0901
16073TIP3    H169710   2.251   1.773   0.624 -1.2238  1.5059  0.6381
16073TIP3    H269711   2.285   1.629   0.658 -0.7121  0.8782 -2.3566
16074TIP3   OH269712   6.436   0.712  11.927  0.8539 -0.2728 -0.4208
16074TIP3    H169713   6.379   0.685  11.855 -0.9797 -1.5456  1.4323
16074TIP3    H269714   6.376   0.726  12.001  2.4597  2.7073  0.4298
16075TIP3   OH269715   2.413   1.994  15.198  0.0088  0.5310 -0.2803
16075TIP3    H169716   2.372   1.910  15.216  0.0834  0.6300  0.3710
16075TIP3    H269717   2.363   2.030  15.125 -0.3620  0.1547 -0.2148
16076TIP3   OH269718   3.872   5.008   6.204 -0.3281 -0.2329 -0.7622
16076TIP3    H169719   3.929   4.980   6.275  0.4000  0.6446 -0.9934
16076TIP3    H269720   3.838   4.927   6.166 -1.3443 -0.7011  1.0805
16077TIP3   OH269721   2.684   6.294  17.154 -0.3100 -0.4072  0.1996
16077TIP3    H169722   2.677   6.325  17.244  0.8870 -1.1060  0.5395
16077TIP3    H269723   2.660   6.201  17.158  2.6270 -1.2210  0.3392
16078TIP3   OH269724   5.280   2.322   0.378  0.1138  0.0275 -0.1769
16078TIP3    H169725   5.278   2.229   0.355  0.6364  0.0211 -0.1959
16078TIP3    H269726   5.300   2.323   0.472 -0.6466  0.0985 -0.0102
16079TIP3   OH269727   2.254   6.312  14.904  0.3473 -0.5073 -0.1623
16079TIP3    H169728   2.288   6.382  14.848 -3.8214  0.9411 -1.1122
16079TIP3    H269729   2.271   6.232  14.856 -3.1804  0.7140 -3.6670
16080TIP3   OH269730   6.478   1.149   0.005 -0.2329 -0.3643 -0.5442
16080TIP3    H169731   6.438   1.147  -0.082 -0.0520 -1.0954 -0.6121
16080TIP3    H269732   6.572   1.152  -0.012 -0.2467  1.2757 -0.3838
16081TIP3   OH269733   0.775   6.622  13.301 -0.1102 -0.3457 -0.0225
16081TIP3    H169734   0.853   6.573  13.327  0.6332  0.4639 -0.7318
16081TIP3    H269735   0.707   6.555  13.294  1.5910 -1.7803 -3.9053
16082TIP3   OH269736   3.510   2.180   0.319  0.3403 -0.1547  0.2314
16082TIP3    H169737   3.483   2.263   0.359 -1.3132 -0.7693  0.4305
16082TIP3    H269738   3.596   2.163   0.355  0.8881  1.6986 -0.1487
16083TIP3   OH269739   1.460   1.900  14.848  0.4415 -0.0953  0.2242
16083TIP3    H169740   1.372   1.925  14.878 -0.5798 -3.6744  0.5047
16083TIP3    H269741   1.452   1.890  14.754  0.2872 -1.2883  0.3547
16084TIP3   OH269742   3.966   2.130   4.178 -0.2444 -0.0137 -0.3233
16084TIP3    H169743   3.947   2.187   4.103 -1.4161 -0.8194 -0.6314
16084TIP3    H269744   4.043   2.080   4.151 -0.9242 -0.6094 -1.1534
16085TIP3   OH269745   2.720   3.991  16.993 -0.4004 -0.1590  0.2127
16085TIP3    H169746   2.669   3.914  17.020  0.0009 -0.5598 -0.1655
16085TIP3    H269747   2.760   4.023  17.074 -0.6919 -0.2570  0.3945
16086TIP3   OH269748   3.410   2.582   6.199 -0.0848 -0.1800 -0.3310
16086TIP3    H169749   3.494   2.596   6.154  0.4204  1.7267  1.1249
16086TIP3    H269750   3.435   2.546   6.284 -0.4094  3.7694  1.5503
16087TIP3   OH269751   1.535   2.940   0.074 -0.2229  0.0499  0.4921
16087TIP3    H169752   1.471   2.925   0.004  0.6086  0.7994 -0.4349
16087TIP3    H269753   1.517   3.029   0.104  1.3179  0.7944 -0.7563
16088TIP3   OH269754   1.217   3.809   5.871  0.5729 -0.0642  0.0476
16088TIP3    H169755   1.179   3.734   5.916 -0.9994  0.4648 -0.3643
16088TIP3    H269756   1.234   3.778   5.782 -0.7551  0.2655 -0.3303
16089TIP3   OH269757   0.535   5.941  14.273 -0.6549 -0.4054 -0.5154
16089TIP3    H169758   0.498   5.922  14.360 -1.4572  0.5132 -0.6564
16089TIP3    H269759   0.473   5.900  14.212 -1.2328  0.7957 -0.7351
16090TIP3   OH269760   2.789   0.853   4.972 -0.0119 -0.1359  0.4605
16090TIP3    H169761   2.747   0.768   4.963 -2.2510  0.9353  0.5063
16090TIP3    H269762   2.737   0.912   4.917  0.8226  1.4355  1.3053
16091TIP3   OH269763   4.873   6.192   4.542  0.1992 -0.4947 -0.1033
16091TIP3    H169764   4.880   6.098   4.525  2.0521 -0.6433  1.2576
16091TIP3    H269765   4.823   6.199   4.623 -0.1460 -0.3002 -0.3340
16092TIP3   OH269766   3.281   6.407   5.278 -0.1493 -0.4576 -0.8704
16092TIP3    H169767   3.320   6.321   5.264 -2.1405 -1.2250 -1.7635
16092TIP3    H269768   3.293   6.423   5.372  0.3177 -1.6478 -0.7140
16093TIP3   OH269769   6.241   4.508  14.235  0.1451 -0.1083  0.0334
16093TIP3    H169770   6.158   4.531  14.277 -0.5107  0.2109 -1.4381
16093TIP3    H269771   6.246   4.564  14.158  2.0739  0.3763  0.4939
16094TIP3   OH269772   2.061   5.406   1.855 -0.1325 -0.3298 -0.5730
16094TIP3    H169773   2.049   5.379   1.946 -0.6968  0.3746 -0.4374
16094TIP3    H269774   2.152   5.385   1.836 -0.3102 -1.4899 -0.1855
16095TIP3   OH269775   0.221   5.205  13.107 -0.4287 -0.6653  0.0713
16095TIP3    H169776   0.204   5.125  13.058 -0.5233 -1.2308  1.0200
16095TIP3    H269777   0.218   5.274  13.041 -1.3032 -1.3329 -0.6067
16096TIP3   OH269778   3.618   3.625   2.955  0.1631 -0.0477 -0.1489
16096TIP3    H169779   3.703   3.617   2.998  0.6181  1.5164 -0.7503
16096TIP3    H269780   3.567   3.681   3.012  0.1423  0.4978 -0.6971
16097TIP3   OH269781   4.862   2.085   4.736  0.0592 -0.0679 -0.3784
16097TIP3    H169782   4.774   2.051   4.749 -0.4340  1.0493 -0.7851
16097TIP3    H269783   4.911   2.011   4.698 -0.7398 -0.6278 -0.3208
16098TIP3   OH269784   3.185   5.592  14.826 -0.0070 -0.1914 -0.6617
16098TIP3    H169785   3.194   5.613  14.919 -1.2710  0.8315 -0.7674
16098TIP3    H269786   3.275   5.574  14.797  0.5538  0.7131  0.4730
16099TIP3   OH269787   5.105   1.209   3.566 -0.0682 -0.3293  0.6685
16099TIP3    H169788   5.164   1.236   3.637 -0.4311 -0.7602  1.1357
16099TIP3    H269789   5.077   1.121   3.590 -0.7686 -0.1960  0.3668
16100TIP3   OH269790   1.583   0.284   6.501  0.5590 -0.2026  0.3907
16100TIP3    H169791   1.499   0.326   6.481  0.3851 -1.1272 -0.8281
16100TIP3    H269792   1.648   0.334   6.452  0.6790  0.2366  0.9862
16101TIP3   OH269793   4.459   5.388  13.538 -0.0516  0.1192 -0.3076
16101TIP3    H169794   4.551   5.384  13.565  0.6810 -2.4682 -3.0016
16101TIP3    H269795   4.434   5.479  13.553  2.7487  0.7251  1.0321
16102TIP3   OH269796   4.264   5.706   3.561  0.2094 -0.1340  0.1588
16102TIP3    H169797   4.302   5.680   3.477  1.5063 -0.7270  0.9104
16102TIP3    H269798   4.273   5.801   3.563 -1.5766  0.0951 -1.1905
16103TIP3   OH269799   5.037   0.592  14.004  0.3600  0.2146 -0.6883
16103TIP3    H169800   5.089   0.652  14.056  0.0251  1.0912 -1.3618
16103TIP3    H269801   4.947   0.623  14.014  0.3380  0.6706 -2.1441
16104TIP3   OH269802   6.288   0.477  17.177 -0.4742  0.4934  0.4282
16104TIP3    H169803   6.231   0.552  17.159 -0.9779  0.2385  0.9433
16104TIP3    H269804   6.267   0.452  17.267 -0.8206 -0.7158  0.0209
16105TIP3   OH269805   3.496   3.242   3.276  0.0646  0.3862 -0.3284
16105TIP3    H169806   3.542   3.320   3.245  0.8979  0.9437  2.2052
16105TIP3    H269807   3.417   3.276   3.319  0.3650 -0.1607  0.6708
16106TIP3   OH269808   6.662   4.464   5.140  0.1961  0.2192 -0.1372
16106TIP3    H169809   6.581   4.509   5.164  0.7396  1.3072 -0.3132
16106TIP3    H269810   6.722   4.534   5.115  0.7793 -0.6576 -1.2660
16107TIP3   OH269811   5.450   3.273   5.197 -0.4938  0.4849 -0.4187
16107TIP3    H169812   5.468   3.335   5.268  0.7226  0.5497 -0.7704
16107TIP3    H269813   5.412   3.328   5.128 -1.7073  0.4159  0.1870
16108TIP3   OH269814   3.297   3.958   1.175  0.1447  0.4517 -0.1940
16108TIP3    H169815   3.221   3.990   1.223  0.2494 -0.5324  0.6495
16108TIP3    H269816   3.314   4.025   1.109 -0.8035  1.1858  0.2971
16109TIP3   OH269817   4.497   5.519   2.300  0.4815 -0.0273  0.0063
16109TIP3    H169818   4.471   5.604   2.266  0.6952  0.3101  0.6792
16109TIP3    H269819   4.591   5.528   2.319  0.3993 -0.2519  0.5469
16110TIP3   OH269820   4.120   5.871   0.582  0.3097  0.5528 -0.6580
16110TIP3    H169821   4.055   5.805   0.606 -0.1461  0.0945 -3.0251
16110TIP3    H269822   4.195   5.852   0.638 -0.2158 -1.2914 -0.5370
16111TIP3   OH269823   0.520   6.160   3.290 -0.2261 -0.1308  0.0481
16111TIP3    H169824   0.463   6.147   3.214  1.4626  1.3060 -1.5151
16111TIP3    H269825   0.537   6.254   3.292 -0.2469 -0.1535  2.2371
16112TIP3   OH269826   2.940   5.498  14.319 -0.2769 -0.1446  0.1950
16112TIP3    H169827   2.881   5.547  14.262  1.5360 -0.4142 -1.9939
16112TIP3    H269828   2.947   5.412  14.278  0.5270 -0.5644  1.2067
16113TIP3   OH269829   4.769   1.580   2.533 -0.1709 -0.5688  0.1831
16113TIP3    H169830   4.692   1.612   2.485  0.5699  2.0969  0.6980
16113TIP3    H269831   4.838   1.575   2.468 -0.8027 -3.3531 -0.3668
16114TIP3   OH269832   5.522   2.466  12.209  0.1887 -0.1719 -0.2942
16114TIP3    H169833   5.439   2.502  12.238  0.2136  0.4346 -0.9437
16114TIP3    H269834   5.501   2.420  12.127  0.3094 -0.8929  0.0784
16115TIP3   OH269835   0.941   3.592  16.297 -0.5762  0.6334  0.0601
16115TIP3    H169836   0.953   3.668  16.241  1.3645  0.9110  0.7917
16115TIP3    H269837   0.909   3.523  16.239 -2.4622  2.0055 -0.5868
16116TIP3   OH269838   4.846   6.793   2.465 -0.1088 -0.1424 -0.7345
16116TIP3    H169839   4.814   6.806   2.554  1.9441  1.1410 -0.1582
16116TIP3    H269840   4.782   6.839   2.410 -0.9434 -0.2453  0.1196
16117TIP3   OH269841   6.808   5.435   3.540 -0.1361 -0.4010  0.0990
16117TIP3    H169842   6.784   5.527   3.552 -0.4224 -0.2745 -1.3261
16117TIP3    H269843   6.902   5.432   3.554  0.1295  0.4084 -1.4249
16118TIP3   OH269844   5.746   2.106  14.126  0.2051 -0.2549 -0.7479
16118TIP3    H169845   5.739   2.042  14.055  0.7239 -1.4273  0.2172
16118TIP3    H269846   5.774   2.187  14.084 -2.1358 -0.1971 -2.2324
16119TIP3   OH269847   5.259   1.832   2.816  0.2839 -0.2651  0.4069
16119TIP3    H169848   5.354   1.847   2.817  0.3118 -0.3807 -0.2988
16119TIP3    H269849   5.246   1.764   2.749 -0.3872  0.4171 -0.1680
16120TIP3   OH269850   5.244   2.420   4.820  0.3200 -1.0211  0.2639
16120TIP3    H169851   5.195   2.472   4.883  0.7907  0.5414 -0.6441
16120TIP3    H269852   5.325   2.398   4.866  0.4258 -0.3561  0.3992
16121TIP3   OH269853   0.602   2.970  12.508  0.1435  0.4240 -0.7591
16121TIP3    H169854   0.588   2.880  12.537 -0.8205  1.1240  0.9883
16121TIP3    H269855   0.649   2.961  12.425  0.4567 -1.6769 -0.3848
16122TIP3   OH269856   6.569   6.740  12.828  0.8986 -0.2556 -0.5998
16122TIP3    H169857   6.642   6.681  12.808  1.3587 -0.0756  0.4852
16122TIP3    H269858   6.592   6.777  12.914 -0.6618 -0.5061 -0.0644
16123TIP3   OH269859   2.266   1.405  16.109 -0.3296 -0.3780  0.0110
16123TIP3    H169860   2.178   1.415  16.073  1.3589 -0.0444 -4.2345
16123TIP3    H269861   2.313   1.484  16.081  1.7402 -1.2436  0.9205
16124TIP3   OH269862   4.968   2.397   1.110 -0.0722 -0.4918 -0.1306
16124TIP3    H169863   4.883   2.358   1.131  1.3390 -2.4895  2.2121
16124TIP3    H269864   4.974   2.473   1.168  0.3287 -1.1822  0.7404
16125TIP3   OH269865   6.691   6.401  11.565 -0.7421 -0.1601  0.1375
16125TIP3    H169866   6.718   6.487  11.532 -0.5423  0.3364  1.5224
16125TIP3    H269867   6.616   6.421  11.622 -1.5845 -1.0776 -0.6423
16126TIP3   OH269868   0.872   1.926   4.255  0.1554 -0.3539  0.0906
16126TIP3    H169869   0.939   1.889   4.197  1.7839  0.9575  1.0840
16126TIP3    H269870   0.903   1.906   4.343 -0.1931  1.1837  0.5885
16127TIP3   OH269871   2.987   5.278  14.932 -0.2194 -0.1476 -0.6067
16127TIP3    H169872   2.986   5.344  14.862 -0.8928 -0.0062 -0.4637
16127TIP3    H269873   2.965   5.326  15.011  2.7137  0.1285  0.1116
16128TIP3   OH269874   2.769   1.874  12.364 -0.4233 -0.3229 -0.8234
16128TIP3    H169875   2.701   1.936  12.338  0.2302  1.3587  1.2944
16128TIP3    H269876   2.780   1.889  12.458  1.8172 -1.6189 -0.8413
16129TIP3   OH269877   4.324   0.017   0.704 -0.0187  0.2548  0.6341
16129TIP3    H169878   4.273  -0.004   0.626  0.9292 -1.2992  0.4089
16129TIP3    H269879   4.413  -0.009   0.682  0.4646  0.8564  1.8382
16130TIP3   OH269880   4.397   1.809   5.530  0.0336  0.1151 -0.1929
16130TIP3    H169881   4.380   1.855   5.447  0.2321 -0.7545 -0.7209
16130TIP3    H269882   4.313   1.812   5.577 -0.8604 -1.7490 -1.5967
16131TIP3   OH269883   4.553   3.248  14.334 -0.6022  0.2633  0.4266
16131TIP3    H169884   4.524   3.184  14.399 -3.1068 -0.6582 -1.5226
16131TIP3    H269885   4.484   3.314  14.333 -0.5719  0.2861 -1.2627
16132TIP3   OH269886   4.562   3.752  11.816 -0.8889 -0.3690  0.5073
16132TIP3    H169887   4.566   3.827  11.757  1.2220  0.2304  1.3740
16132TIP3    H269888   4.537   3.789  11.901  0.1065 -0.6360  0.9256
16133TIP3   OH269889   5.055   2.216  12.698  0.0099 -0.3406  0.3740
16133TIP3    H169890   4.973   2.232  12.652 -1.2299  2.4419  3.3752
16133TIP3    H269891   5.028   2.187  12.785  2.2496 -1.7642  0.6175
16134TIP3   OH269892   5.831   5.016   3.858 -0.2696 -0.0211 -0.3417
16134TIP3    H169893   5.891   5.087   3.836 -1.0091  1.1024  1.1114
16134TIP3    H269894   5.778   5.004   3.779  0.3636  0.5435 -0.8553
16135TIP3   OH269895   3.518   0.232  12.085  0.2952 -0.6458 -0.3936
16135TIP3    H169896   3.497   0.225  11.992 -0.4160 -1.6115 -0.1743
16135TIP3    H269897   3.447   0.285  12.122 -1.7141 -3.6697  0.2964
16136TIP3   OH269898   0.907   5.055   4.696 -0.2755  0.2400  0.0083
16136TIP3    H169899   0.963   5.028   4.624  0.9514  1.1418  0.6039
16136TIP3    H269900   0.963   5.048   4.774 -1.4451 -0.3043  0.8270
16137TIP3   OH269901   3.645   5.543  15.270  0.6958  0.0594 -0.1991
16137TIP3    H169902   3.594   5.624  15.262 -0.4196 -0.8985 -3.4351
16137TIP3    H269903   3.608   5.499  15.346 -1.4144  0.7176 -0.8124
16138TIP3   OH269904   3.996   0.162  15.758 -0.5848  0.0384 -0.4752
16138TIP3    H169905   3.924   0.112  15.719 -2.0719  2.9040 -1.5273
16138TIP3    H269906   4.049   0.189  15.683 -1.6199  2.7815 -0.2664
16139TIP3   OH269907   2.362   5.313  17.245 -0.9912  0.3719 -0.0346
16139TIP3    H169908   2.394   5.298  17.156  0.5440  0.6770  0.4499
16139TIP3    H269909   2.274   5.276  17.245  0.2313 -2.6979 -0.7437
16140TIP3   OH269910   1.176   2.504   0.622  0.5647 -0.1097 -0.2310
16140TIP3    H169911   1.102   2.443   0.627  0.3182  0.3077  1.8140
16140TIP3    H269912   1.245   2.461   0.673  0.8993  0.6158 -0.0738
16141TIP3   OH269913   4.568   2.290   2.474  0.0335  0.8243 -0.0022
16141TIP3    H169914   4.631   2.222   2.496  0.9640  2.5428  2.8542
16141TIP3    H269915   4.599   2.325   2.390  0.9516 -0.5665 -0.2612
16142TIP3   OH269916   1.565   3.985   3.006  0.2682  0.0555 -0.5650
16142TIP3    H169917   1.472   4.004   2.994  0.8918  3.2755 -0.5559
16142TIP3    H269918   1.592   3.947   2.922 -0.9747 -0.7430 -0.6222
16143TIP3   OH269919   2.669   0.965   6.107  0.7884 -0.5612 -0.4790
16143TIP3    H169920   2.607   0.929   6.044  0.4105 -0.9254  0.0988
16143TIP3    H269921   2.680   0.896   6.172  0.2510  0.2704  0.5005
16144TIP3   OH269922   6.681   2.010  13.352  0.1440  0.5909 -0.2078
16144TIP3    H169923   6.615   1.999  13.420  1.3803 -0.5947  0.8129
16144TIP3    H269924   6.730   2.089  13.377 -0.6766  1.3089 -0.8172
16145TIP3   OH269925   0.752   3.923   0.153  0.2095 -0.0144 -0.3828
16145TIP3    H169926   0.673   3.970   0.124 -0.9691 -1.7841 -0.1044
16145TIP3    H269927   0.809   3.992   0.188 -0.7310  1.4254 -1.6349
16146TIP3   OH269928   1.459   5.163   2.814 -0.0127  0.7274  0.1624
16146TIP3    H169929   1.481   5.173   2.722  2.4203 -0.3747  0.5908
16146TIP3    H269930   1.528   5.106   2.850 -2.4308 -1.1298  2.0563
16147TIP3   OH269931   6.615   1.575   4.342 -0.4209  0.3248 -0.6022
16147TIP3    H169932   6.652   1.570   4.430  2.2374 -2.2420 -1.7929
16147TIP3    H269933   6.546   1.509   4.340  0.4011 -0.5277 -0.8383
16148TIP3   OH269934   4.833   3.013   1.964 -0.4429 -0.3367 -0.6217
16148TIP3    H169935   4.796   3.064   2.037  0.4315 -1.2735  0.4797
16148TIP3    H269936   4.804   3.060   1.886 -1.7118  0.4689  0.3093
16149TIP3   OH269937   5.319   2.015   0.008 -0.1792  0.3586  0.4364
16149TIP3    H169938   5.330   2.040  -0.084 -2.1222  1.6107  0.5133
16149TIP3    H269939   5.238   1.965   0.010  0.7148 -1.1057  1.2300
16150TIP3   OH269940   3.586   3.434  14.361 -0.1239 -0.3499  0.2073
16150TIP3    H169941   3.619   3.523  14.372 -0.5027 -0.5078  2.7294
16150TIP3    H269942   3.491   3.444  14.355 -0.2320 -0.6690  1.3813
16151TIP3   OH269943   2.134   1.028  14.447 -0.5676  0.1443 -0.4378
16151TIP3    H169944   2.091   0.958  14.496  1.0585  0.2666  1.1833
16151TIP3    H269945   2.193   0.983  14.387 -0.5552  0.0868 -0.3815
16152TIP3   OH269946   5.312   1.435  17.246 -0.4080 -0.3078 -0.3886
16152TIP3    H169947   5.380   1.389  17.294 -1.8222 -0.1366  1.8495
16152TIP3    H269948   5.271   1.367  17.192 -0.4521 -1.0299  0.5556
16153TIP3   OH269949   3.954   5.753  14.256 -0.0645  0.3095  0.1963
16153TIP3    H169950   3.988   5.664  14.253 -1.1920 -0.2009  2.0757
16153TIP3    H269951   4.017   5.804  14.205  1.0037 -1.4189 -0.2492
16154TIP3   OH269952   2.997   1.050  13.461 -0.7071  0.2405 -0.4874
16154TIP3    H169953   3.025   1.141  13.465  1.3052 -0.3958  0.4629
16154TIP3    H269954   3.065   1.006  13.409 -2.0865 -0.5804 -1.6594
16155TIP3   OH269955   2.440   2.775   3.873 -0.6600  0.2867  0.0620
16155TIP3    H169956   2.396   2.842   3.926 -0.5386  0.3955  0.0261
16155TIP3    H269957   2.530   2.773   3.907 -0.3897  0.8482 -0.6010
16156TIP3   OH269958   1.165   1.213  16.630 -0.2385 -0.3922 -0.6677
16156TIP3    H169959   1.073   1.234  16.641  0.2746  0.9244  1.5627
16156TIP3    H269960   1.176   1.197  16.537 -2.7946 -0.9918 -0.8920
16157TIP3   OH269961   3.515   3.624  14.085  0.3621  0.2833 -0.1229
16157TIP3    H169962   3.450   3.577  14.138  0.8066  0.9541  1.0489
16157TIP3    H269963   3.525   3.570  14.007 -0.6661 -0.4908  0.2539
16158TIP3   OH269964   4.775   5.405   1.697 -0.0183  0.2522  0.1251
16158TIP3    H169965   4.795   5.443   1.782 -2.0307  0.8724  0.3734
16158TIP3    H269966   4.739   5.319   1.716  0.3666  0.0278 -0.1554
16159TIP3   OH269967   2.528   5.767   3.028  0.1797  0.2197  0.0123
16159TIP3    H169968   2.551   5.843   2.974  1.0542  0.7496  1.0727
16159TIP3    H269969   2.503   5.806   3.112  1.3681 -0.6890  0.8073
16160TIP3   OH269970   5.895   6.280  16.057  0.2451  0.4352  0.0600
16160TIP3    H169971   5.847   6.197  16.057 -1.7099  1.5324  0.3803
16160TIP3    H269972   5.839   6.340  16.107  1.5994  1.9680 -0.2211
16161TIP3   OH269973   2.330   3.060  17.244  0.1609 -0.6889 -0.1445
16161TIP3    H169974   2.264   3.130  17.242 -1.5462 -2.2786 -0.5158
16161TIP3    H269975   2.330   3.025  17.155  1.1561 -1.0402 -0.0093
16162TIP3   OH269976   4.136   5.368  16.979  0.3685 -0.9635  0.2080
16162TIP3    H169977   4.197   5.441  16.989 -2.4096  1.3020  1.3388
16162TIP3    H269978   4.084   5.390  16.902 -2.4111 -0.1851  2.1964
16163TIP3   OH269979   0.195   5.009   4.053  0.1961 -0.2245 -0.5201
16163TIP3    H169980   0.145   4.990   3.974 -0.5965  2.7609 -0.7964
16163TIP3    H269981   0.149   5.083   4.093  2.4189  0.3580  1.0345
16164TIP3   OH269982   3.521   4.356  11.906  0.0435  0.0822 -0.2668
16164TIP3    H169983   3.603   4.386  11.867  0.3667  0.0797  0.4099
16164TIP3    H269984   3.521   4.261  11.892  1.4032 -0.2888  2.0499
16165TIP3   OH269985   4.664   1.888   4.935  0.3787  0.1181 -0.4817
16165TIP3    H169986   4.725   1.823   4.971 -0.6739 -0.1587  0.8371
16165TIP3    H269987   4.651   1.950   5.007  1.0395  1.5553 -1.5893
16166TIP3   OH269988   6.490   0.108  14.723 -0.4417 -0.1707 -0.4384
16166TIP3    H169989   6.411   0.132  14.676 -0.2899  1.2826  0.0015
16166TIP3    H269990   6.491   0.167  14.799  0.3560 -1.0924  0.2799
16167TIP3   OH269991   2.963   1.282  15.948  0.0541  0.1552  0.1699
16167TIP3    H169992   2.899   1.289  15.877 -0.8423 -1.4284  0.7929
16167TIP3    H269993   2.968   1.188  15.966  1.3416  0.4124  1.2375
16168TIP3   OH269994   1.590   6.550   5.133  0.0381 -0.0591 -0.2764
16168TIP3    H169995   1.570   6.540   5.226  0.1140 -1.1087 -0.3619
16168TIP3    H269996   1.513   6.594   5.096  0.2435  0.8620  0.3747
16169TIP3   OH269997   6.088   1.010   5.007  0.0095  0.4631  0.1980
16169TIP3    H169998   6.059   1.003   4.916  0.5286  3.0765 -0.2081
16169TIP3    H269999   6.018   0.972   5.058  0.1676 -2.0152 -1.3530
16170TIP3   OH270000   4.690   3.823  11.429  0.0597  0.0114 -0.3944
16170TIP3    H170001   4.750   3.871  11.485 -1.7425  1.1542  0.5952
16170TIP3    H270002   4.686   3.874  11.348  0.8919 -0.4050 -0.7022
16171TIP3   OH270003   1.403   0.021  13.812 -0.1548 -0.6020 -0.1689
16171TIP3    H170004   1.455   0.086  13.766 -0.4331 -1.2105 -1.3464
16171TIP3    H270005   1.312   0.042  13.790 -0.4670  0.5286  1.9720
16172TIP3   OH270006   5.119   2.107  16.594 -0.3690  0.1617  0.3093
16172TIP3    H170007   5.119   2.102  16.689  1.0196  1.4292  0.3894
16172TIP3    H270008   5.089   2.021  16.565 -0.5012 -0.3220  1.8848
16173TIP3   OH270009   6.449   6.623   2.314 -0.2511  0.6191  0.4300
16173TIP3    H170010   6.527   6.573   2.289 -0.3525  0.5322  0.2807
16173TIP3    H270011   6.375   6.566   2.292 -0.4266  1.4014 -1.0943
16174TIP3   OH270012   4.935   0.119  15.735  0.1969 -0.3770 -0.0694
16174TIP3    H170013   4.848   0.099  15.769 -0.9344  4.0018 -0.0533
16174TIP3    H270014   4.988   0.135  15.813 -0.0551  0.8683 -0.1446
16175TIP3   OH270015   5.507   0.398  11.931  0.0835 -0.4129 -0.1878
16175TIP3    H170016   5.513   0.404  11.836  0.2163 -0.5963 -0.1891
16175TIP3    H270017   5.460   0.478  11.957 -0.8709 -0.8643 -0.4932
16176TIP3   OH270018   3.168   4.204   1.594 -0.1105 -0.0916 -0.6575
16176TIP3    H170019   3.115   4.283   1.583  0.2620 -0.1345 -3.1050
16176TIP3    H270020   3.245   4.234   1.642 -0.4149  0.8218 -0.7154
16177TIP3   OH270021   0.273   1.357   0.366  0.0382  0.6694  0.2189
16177TIP3    H170022   0.244   1.396   0.283  0.3155  3.0070  1.1984
16177TIP3    H270023   0.199   1.302   0.393 -0.3208  0.3943 -1.2364
16178TIP3   OH270024   5.473   3.254  16.807  0.1060  0.3417  0.1652
16178TIP3    H170025   5.386   3.213  16.809 -0.2465  1.0904  0.6054
16178TIP3    H270026   5.454   3.347  16.801  0.8812  0.5195  0.5258
16179TIP3   OH270027   2.502   0.804  16.179 -0.1412  0.0278 -0.4114
16179TIP3    H170028   2.583   0.833  16.220  0.5691 -1.6165 -0.6328
16179TIP3    H270029   2.449   0.884  16.172  1.2934  1.0422  0.0787
16180TIP3   OH270030   6.450   2.259  16.905 -0.0080 -0.5885  0.4542
16180TIP3    H170031   6.371   2.206  16.918  0.8553 -2.2882 -1.0214
16180TIP3    H270032   6.450   2.280  16.812  0.4466  0.7839  0.7562
16181TIP3   OH270033   1.334   1.381   2.468  0.3099 -0.3478 -0.2432
16181TIP3    H170034   1.426   1.386   2.443  0.2618  2.0558 -0.0660
16181TIP3    H270035   1.334   1.378   2.563  0.2452 -1.6938 -0.2837
16182TIP3   OH270036   3.598   1.347   5.294 -0.0067  0.0614 -0.1104
16182TIP3    H170037   3.567   1.417   5.352 -2.9001 -1.0244 -0.2349
16182TIP3    H270038   3.521   1.323   5.242  0.8832 -3.1968 -0.0796
16183TIP3   OH270039   3.740   6.763  14.387 -0.0977  0.1806  0.0354
16183TIP3    H170040   3.729   6.699  14.316 -0.9692  1.2796 -0.8654
16183TIP3    H270041   3.771   6.842  14.342  0.6975  0.4746  1.0901
16184TIP3   OH270042   5.158   1.290  17.076  0.4364  0.4746 -0.0790
16184TIP3    H170043   5.217   1.215  17.071 -0.3611 -0.1600  0.1350
16184TIP3    H270044   5.142   1.314  16.985  1.0615  0.6929 -0.1404
16185TIP3   OH270045   4.513   0.885  12.883  0.0893  0.0862  0.2816
16185TIP3    H170046   4.525   0.955  12.819 -1.2622 -0.5315 -0.6625
16185TIP3    H270047   4.428   0.847  12.861 -0.3406 -0.2150  2.3660
16186TIP3   OH270048   2.352   6.087  12.422  0.1593  0.1321 -0.2263
16186TIP3    H170049   2.373   6.002  12.460 -1.7971 -0.1064  0.4232
16186TIP3    H270050   2.288   6.125  12.483 -1.2674  0.7678 -2.0558
16187TIP3   OH270051   1.967   5.623   5.029  0.0289  0.4240  0.3422
16187TIP3    H170052   2.057   5.627   5.062 -0.5642  0.7205  1.9963
16187TIP3    H270053   1.968   5.674   4.948  1.5877 -0.4978 -0.2509
16188TIP3   OH270054   1.631   4.195  13.800 -0.1120  0.6566  0.0702
16188TIP3    H170055   1.714   4.149  13.816 -1.9953 -2.7201  0.5942
16188TIP3    H270056   1.570   4.156  13.863 -2.8447  0.9482 -2.3023
16189TIP3   OH270057   4.682   2.292   5.766  0.4971 -0.3759  0.5408
16189TIP3    H170058   4.745   2.314   5.698  1.1862 -0.1689  1.2372
16189TIP3    H270059   4.701   2.201   5.788 -1.7612 -1.4389 -1.7064
16190TIP3   OH270060   6.049   1.730  13.842  0.9387  0.3450 -0.2320
16190TIP3    H170061   6.122   1.741  13.781  0.3342  0.4559 -0.9453
16190TIP3    H270062   5.978   1.697  13.787  0.1479  1.2345  0.2595
16191TIP3   OH270063   1.712   1.746   1.775  0.1339 -0.2619 -0.1423
16191TIP3    H170064   1.746   1.813   1.834  0.8325 -1.3366  0.6785
16191TIP3    H270065   1.753   1.665   1.804 -1.2253 -1.1697 -0.6887
16192TIP3   OH270066   6.096   2.574   3.549 -0.8715 -0.2467 -0.2318
16192TIP3    H170067   6.063   2.516   3.480 -0.9719 -0.8899  0.3473
16192TIP3    H270068   6.181   2.536   3.573  0.0437  1.0655 -1.3193
16193TIP3   OH270069   0.951   2.000  15.988 -0.3109  0.2107  0.0251
16193TIP3    H170070   1.044   1.988  15.965 -0.0176  0.8592  0.8354
16193TIP3    H270071   0.943   2.095  16.001 -0.8771  0.0473  0.8597
16194TIP3   OH270072   4.834   0.137   3.254 -0.0333  0.2672 -0.2066
16194TIP3    H170073   4.922   0.146   3.215 -0.6790  0.3184 -1.6929
16194TIP3    H270074   4.836   0.196   3.329  2.1624 -1.9083  1.5308
16195TIP3   OH270075   2.838   2.544  14.807 -0.2091  0.7474  0.2814
16195TIP3    H170076   2.841   2.580  14.718 -1.1228  0.1054 -0.0157
16195TIP3    H270077   2.928   2.514  14.824 -0.4827 -1.0029 -1.2088
16196TIP3   OH270078   1.008   4.227  15.663  0.2363 -0.4434 -0.2113
16196TIP3    H170079   0.920   4.204  15.635  0.0222  0.4937 -0.3187
16196TIP3    H270080   1.045   4.275  15.589  0.0937  0.9849  0.6322
16197TIP3   OH270081   3.364   6.049   6.135  0.1982 -0.2999  0.2615
16197TIP3    H170082   3.375   6.133   6.090 -0.0615 -0.3523  0.0982
16197TIP3    H270083   3.437   5.996   6.105  2.3526  0.9929  2.9916
16198TIP3   OH270084   1.108   4.386   0.324 -0.4256  0.7223 -0.2802
16198TIP3    H170085   1.057   4.418   0.399 -0.6514  0.5642 -0.3661
16198TIP3    H270086   1.134   4.466   0.277  0.0065  0.8428  0.1529
16199TIP3   OH270087   5.079   1.097   0.594  0.3828 -0.2137  0.2168
16199TIP3    H170088   5.115   1.131   0.512  1.9254 -1.5574  0.3247
16199TIP3    H270089   5.016   1.030   0.566 -0.2245  0.4022  0.0964
16200TIP3   OH270090   4.919   2.606   2.261 -0.1680  0.0827  0.2822
16200TIP3    H170091   4.873   2.528   2.289  1.1590 -0.7470  0.2167
16200TIP3    H270092   4.864   2.644   2.193 -0.4154 -1.2631 -0.2844
16201TIP3   OH270093   1.211   6.634   2.717  0.2729  0.5430 -0.5719
16201TIP3    H170094   1.246   6.704   2.663  2.2730  1.1323  1.4056
16201TIP3    H270095   1.287   6.578   2.735 -0.7684 -0.7131 -0.0125
16202TIP3   OH270096   6.034   1.679   1.862  0.0136 -0.2016  0.7204
16202TIP3    H170097   5.969   1.730   1.910 -0.1091  0.4342 -0.1207
16202TIP3    H270098   5.984   1.635   1.793  0.6554  1.3156 -0.7467
16203TIP3   OH270099   4.627   5.176   5.091  0.0299  0.3801  0.2159
16203TIP3    H170100   4.706   5.213   5.131  0.3535  0.8431 -0.8230
16203TIP3    H270101   4.648   5.082   5.082 -0.0999  0.2545  1.2475
16204TIP3   OH270102   5.842   1.465   0.197  0.1456 -0.2662  0.1062
16204TIP3    H170103   5.761   1.512   0.175  1.0698  0.8098 -1.0904
16204TIP3    H270104   5.833   1.379   0.156 -1.6270 -1.2440  2.4285
16205TIP3   OH270105   0.830   1.160  16.838  0.0618  0.0699 -0.0214
16205TIP3    H170106   0.889   1.188  16.908  0.4242 -0.8966  0.0714
16205TIP3    H270107   0.859   1.071  16.817  0.1632  0.4647 -1.6182
16206TIP3   OH270108   3.502   2.262  15.148  0.1639 -0.3173  0.0709
16206TIP3    H170109   3.418   2.307  15.144 -0.3310 -1.3434 -3.4300
16206TIP3    H270110   3.557   2.317  15.203 -2.4872  0.8857  1.5777
16207TIP3   OH270111   0.861   0.388   5.121 -0.1344 -0.2416 -0.4605
16207TIP3    H170112   0.926   0.411   5.055 -0.0898  0.6171 -0.1233
16207TIP3    H270113   0.798   0.333   5.074  1.8872 -2.7757 -0.3068
16208TIP3   OH270114   2.025   2.857  16.129  0.5332 -0.5210 -0.1004
16208TIP3    H170115   1.944   2.904  16.151  1.0420 -0.1367  0.9677
16208TIP3    H270116   2.095   2.908  16.170  1.4407 -0.2777 -1.8551
16209TIP3   OH270117   0.439   6.524  13.992 -0.0396  0.5900  0.4334
16209TIP3    H170118   0.404   6.439  14.017 -1.7586  1.1480 -0.0009
16209TIP3    H270119   0.519   6.504  13.943  0.0333 -0.7259  1.0744
16210TIP3   OH270120   6.570   4.678  11.193 -0.5193 -0.1129  0.2372
16210TIP3    H170121   6.504   4.660  11.261 -1.2624 -0.1367 -0.4795
16210TIP3    H270122   6.548   4.766  11.162  1.1917  0.8090  1.5704
16211TIP3   OH270123   3.215   0.284  11.332  0.1003  0.6727  0.1683
16211TIP3    H170124   3.192   0.223  11.262 -0.9925 -0.4008  1.4251
16211TIP3    H270125   3.275   0.347  11.292 -0.3458 -0.0612 -1.6573
16212TIP3   OH270126   1.833   2.781   3.350 -0.3810 -0.6015 -0.4131
16212TIP3    H170127   1.908   2.773   3.290 -0.9548  0.0538 -1.2250
16212TIP3    H270128   1.836   2.700   3.401 -0.0577 -1.3220 -1.5314
16213TIP3   OH270129   1.718   1.455   4.562  0.7045  0.4510 -0.0007
16213TIP3    H170130   1.656   1.528   4.560  0.7397  0.6015  2.2964
16213TIP3    H270131   1.773   1.467   4.485 -1.7813  0.6094 -1.7883
16214TIP3   OH270132   3.669   3.791   0.212  0.1387  0.1159  0.4246
16214TIP3    H170133   3.650   3.790   0.306 -0.2623 -2.4969  0.3340
16214TIP3    H270134   3.759   3.758   0.205 -0.1154 -0.4545 -0.1760
16215TIP3   OH270135   2.264   1.748  14.400 -0.3060  0.1613 -0.2009
16215TIP3    H170136   2.224   1.751  14.487  2.0108  0.9463  0.8770
16215TIP3    H270137   2.268   1.655  14.379  0.7912 -0.1546  1.3444
16216TIP3   OH270138   5.400   1.710   0.433 -0.4995  0.8142 -0.5018
16216TIP3    H170139   5.315   1.726   0.473 -1.2902 -0.2132 -1.7440
16216TIP3    H270140   5.383   1.709   0.339  0.6126 -0.8425 -0.7125
16217TIP3   OH270141   6.394   5.583   4.753 -0.6472 -0.1447 -0.3243
16217TIP3    H170142   6.486   5.573   4.730 -0.8105 -0.5417 -0.8130
16217TIP3    H270143   6.383   5.529   4.831 -0.3722  0.2437 -0.0107
16218TIP3   OH270144   5.555   0.647  13.081  0.6016  0.1541  0.2603
16218TIP3    H170145   5.497   0.699  13.025  1.4549  0.7759 -0.0549
16218TIP3    H270146   5.510   0.563  13.090 -0.2235  0.5406 -0.1990
16219TIP3   OH270147   0.736   1.981   1.231 -0.2529 -0.1548  0.3500
16219TIP3    H170148   0.689   1.901   1.253 -2.6279  1.2739  0.7256
16219TIP3    H270149   0.670   2.038   1.192  1.2423  1.8182  0.5806
16220TIP3   OH270150   1.824   2.055   3.195 -0.1956 -0.1744  0.3036
16220TIP3    H170151   1.869   2.088   3.117 -0.0507 -0.5066  0.2444
16220TIP3    H270152   1.895   2.022   3.250 -0.4830 -2.3015 -0.5456
16221TIP3   OH270153   0.993   6.333  13.800 -0.4771 -0.4397 -0.3230
16221TIP3    H170154   0.978   6.242  13.774 -0.8396 -0.6726  0.7099
16221TIP3    H270155   1.082   6.333  13.836 -1.4356 -0.9433  2.1429
16222TIP3   OH270156   6.518   4.382   5.704  0.0286 -0.1000  0.1811
16222TIP3    H170157   6.450   4.441   5.737  0.3445  0.5111 -0.2418
16222TIP3    H270158   6.488   4.294   5.727  0.4116  0.3285  2.3888
16223TIP3   OH270159   0.542   1.820  17.230  0.4075  0.6918 -0.0328
16223TIP3    H170160   0.616   1.802  17.172  1.5805  0.5655  1.4653
16223TIP3    H270161   0.538   1.915  17.236  0.8492  0.6867  0.3780
16224TIP3   OH270162   0.263   4.750   0.070 -0.3714 -0.0967 -0.1245
16224TIP3    H170163   0.216   4.765   0.152  0.4345  0.3370  0.2665
16224TIP3    H270164   0.293   4.660   0.076 -0.4017 -0.0979  0.0115
16225TIP3   OH270165   2.212   5.715   2.588  0.2524 -0.0972 -0.1234
16225TIP3    H170166   2.146   5.682   2.648 -0.1757  1.4126  0.2741
16225TIP3    H270167   2.276   5.644   2.580 -1.7110 -1.7861 -0.9808
16226TIP3   OH270168   1.564   6.662  12.529  0.4653  0.2329  0.0749
16226TIP3    H170169   1.522   6.611  12.459  0.2779 -0.3324  0.5928
16226TIP3    H270170   1.656   6.665  12.504  0.0646  1.9797 -1.3813
16227TIP3   OH270171   3.411   6.649  14.567  0.7997 -0.0269  0.4711
16227TIP3    H170172   3.319   6.653  14.595  1.1028  0.9284  1.3845
16227TIP3    H270173   3.413   6.697  14.484  0.5730  0.4835  0.7550
16228TIP3   OH270174   5.534   4.788  11.755  0.8194  0.1898 -0.1887
16228TIP3    H170175   5.590   4.757  11.684  0.4288 -1.2791  0.1216
16228TIP3    H270176   5.592   4.792  11.832  0.5267 -1.3734  0.1433
16229TIP3   OH270177   0.169   6.420   0.945 -0.1395  0.3192 -0.5144
16229TIP3    H170178   0.263   6.417   0.925 -0.2145 -1.2380 -0.7267
16229TIP3    H270179   0.158   6.352   1.011 -0.8682  1.5518  0.6471
16230TIP3   OH270180   0.112   3.714  11.125  0.0323  1.2030 -0.2321
16230TIP3    H170181   0.115   3.736  11.032 -1.3649  1.5891 -0.1956
16230TIP3    H270182   0.170   3.638  11.134 -1.1897  0.0647 -1.7342
16231TIP3   OH270183   6.050   0.315   2.095 -0.0504 -0.3928  0.1616
16231TIP3    H170184   5.955   0.328   2.096  0.3098  2.6097  1.0031
16231TIP3    H270185   6.068   0.271   2.012 -2.2154 -1.4442  0.2216
16232TIP3   OH270186   5.936   5.930   1.639 -0.0067 -0.2810  0.9782
16232TIP3    H170187   6.013   5.873   1.639 -0.6260 -1.1525 -0.0258
16232TIP3    H270188   5.866   5.875   1.602 -0.8731  0.7951  0.9926
16233TIP3   OH270189   3.525   0.590  12.964  0.4613  0.1922 -0.3972
16233TIP3    H170190   3.571   0.548  12.892  0.8376 -1.8401  0.9985
16233TIP3    H270191   3.545   0.536  13.040  0.2812  2.4453  1.2892
16234TIP3   OH270192   0.209   2.871  13.896 -0.3991 -0.3722  0.0874
16234TIP3    H170193   0.195   2.884  13.990 -0.2963  1.4203 -0.1275
16234TIP3    H270194   0.229   2.778  13.888 -0.3050 -0.5313  1.8534
16235TIP3   OH270195   5.531   6.685   2.048 -0.8981  0.7465  0.3221
16235TIP3    H170196   5.464   6.620   2.066 -0.4843 -0.6326 -2.7856
16235TIP3    H270197   5.585   6.687   2.127 -1.7611 -1.6312  1.0088
16236TIP3   OH270198   3.650   0.930   5.037  0.0082 -0.1074  0.5291
16236TIP3    H170199   3.694   0.980   4.968 -0.2959  1.4426  1.4227
16236TIP3    H270200   3.714   0.865   5.064  1.3707  1.3991  1.0423
16237TIP3   OH270201   3.808   3.176  11.525 -0.7023  0.2339  0.2530
16237TIP3    H170202   3.877   3.126  11.570 -0.0595  1.7018  0.9612
16237TIP3    H270203   3.825   3.161  11.432  1.8651  2.1693  0.3394
16238TIP3   OH270204   0.302   5.713   3.104  0.0477  0.4203  0.1718
16238TIP3    H170205   0.386   5.713   3.057  0.4495  0.3149  0.8897
16238TIP3    H270206   0.320   5.666   3.185 -1.0029 -0.6761 -0.2012
16239TIP3   OH270207   2.559   1.035  17.160 -0.4958 -0.0475 -0.0651
16239TIP3    H170208   2.572   1.044  17.066 -1.7507 -0.0463 -0.2561
16239TIP3    H270209   2.580   0.943  17.178  0.7231  0.2097 -0.1710
16240TIP3   OH270210   3.196   0.361  13.253  0.3006  0.5807 -0.3010
16240TIP3    H170211   3.105   0.335  13.240  0.9695 -1.6617 -0.7549
16240TIP3    H270212   3.192   0.453  13.280 -2.2503 -0.2366  2.2316
16241TIP3   OH270213   4.423   4.558   4.772  0.8126 -0.2161 -0.2132
16241TIP3    H170214   4.389   4.599   4.851  1.4577  0.5180 -0.3073
16241TIP3    H270215   4.416   4.464   4.788  1.1766 -0.0709  0.8162
16242TIP3   OH270216   3.909   2.188   5.550 -0.0828 -0.0006  0.8765
16242TIP3    H170217   3.908   2.162   5.642  1.6449 -0.2793  0.8431
16242TIP3    H270218   3.947   2.276   5.550 -2.3954  1.0264  0.6418
16243TIP3   OH270219   2.137   6.409  15.988  0.0219 -0.0365  0.0748
16243TIP3    H170220   2.222   6.396  15.946 -0.3395 -1.5730 -0.1931
16243TIP3    H270221   2.085   6.457  15.923  0.9338  1.6293  0.5563
16244TIP3   OH270222   0.751   1.093   5.314 -0.3323  0.2301 -1.2757
16244TIP3    H170223   0.773   1.182   5.339 -0.0821 -0.1026 -0.2809
16244TIP3    H270224   0.661   1.081   5.343  0.3648 -0.5640  0.6290
16245TIP3   OH270225   5.066   5.410  13.201  0.2623 -0.0143 -0.2981
16245TIP3    H170226   5.080   5.335  13.259  2.6958 -0.6593 -1.6191
16245TIP3    H270227   4.974   5.406  13.178 -0.2417 -1.0310  1.7688
16246TIP3   OH270228   3.039   5.853   3.352  0.9381  0.1881 -0.1669
16246TIP3    H170229   3.075   5.785   3.407  0.8124 -1.0433 -1.5708
16246TIP3    H270230   2.999   5.806   3.278 -1.5658  1.6180  0.2161
16247TIP3   OH270231   6.488   3.545   1.809  0.3475  0.0926  0.3168
16247TIP3    H170232   6.492   3.636   1.837  0.2355  0.3003 -0.3246
16247TIP3    H270233   6.399   3.517   1.829 -0.3216  0.8110 -1.5322
16248TIP3   OH270234   2.339   1.354  11.386 -0.1090 -0.3928 -0.5267
16248TIP3    H170235   2.394   1.403  11.447  0.7557 -2.0738  0.0512
16248TIP3    H270236   2.360   1.262  11.403 -2.6255 -1.0314 -0.7434
16249TIP3   OH270237   1.757   5.825   2.549  0.2086  0.2001 -0.5286
16249TIP3    H170238   1.716   5.861   2.628  1.4714 -0.6689  0.5303
16249TIP3    H270239   1.711   5.868   2.477 -0.7769  1.2029  0.6790
16250TIP3   OH270240   2.069   4.094   1.415 -0.3355 -0.1736 -0.0629
16250TIP3    H170241   2.139   4.160   1.409  0.1429 -0.4832  1.7052
16250TIP3    H270242   2.116   4.012   1.433 -1.0305 -0.7617 -0.8940
16251TIP3   OH270243   6.136   6.214   2.751 -0.4447  0.5078  0.0283
16251TIP3    H170244   6.091   6.298   2.742 -2.8079 -0.6767  0.2711
16251TIP3    H270245   6.099   6.175   2.830 -0.8381 -1.5800 -1.1308
16252TIP3   OH270246   1.640   1.876   0.232 -0.1113 -0.0370  0.1835
16252TIP3    H170247   1.712   1.926   0.270 -1.1451  0.1979  1.9157
16252TIP3    H270248   1.682   1.809   0.178  1.3176  2.0786 -1.3956
16253TIP3   OH270249   4.162   0.922   4.198  0.6634  0.1978  0.3280
16253TIP3    H170250   4.103   0.908   4.272 -0.5427 -0.7602 -0.7900
16253TIP3    H270251   4.235   0.971   4.235 -0.3100  0.4563  1.9765
16254TIP3   OH270252   4.403   4.886   3.633  0.1312 -0.2743 -0.2518
16254TIP3    H170253   4.383   4.837   3.712 -0.6840  0.1015 -0.2245
16254TIP3    H270254   4.480   4.939   3.656 -0.3897  0.1882  0.4345
16255TIP3   OH270255   2.236   3.362  11.928 -0.0044  0.0023 -0.3218
16255TIP3    H170256   2.327   3.361  11.897 -0.1291 -0.5284 -0.6789
16255TIP3    H270257   2.193   3.293  11.878 -0.1455 -1.0589  1.2319
16256TIP3   OH270258   1.092   0.346  11.974  0.4129  0.3681 -0.3548
16256TIP3    H170259   1.039   0.388  11.907  0.2251  1.3116  0.3762
16256TIP3    H270260   1.029   0.320  12.042  0.7226  0.3516 -0.0697
16257TIP3   OH270261   1.911   5.261   4.717  0.4848  0.1454  0.0198
16257TIP3    H170262   1.960   5.232   4.794 -2.3775  2.6505  2.9181
16257TIP3    H270263   1.837   5.201   4.711  1.0121 -0.4053 -1.1772
16258TIP3   OH270264   3.285   1.368  14.511 -0.2473  0.0515  0.2994
16258TIP3    H170265   3.286   1.342  14.419  0.2213 -0.9856  0.5817
16258TIP3    H270266   3.194   1.391  14.529 -0.9189 -2.4600  0.2996
16259TIP3   OH270267   3.570   4.917  11.892  0.1572 -0.9005  0.4319
16259TIP3    H170268   3.493   4.921  11.835  1.2162  0.3753 -0.9685
16259TIP3    H270269   3.544   4.965  11.971 -0.3261 -0.0376 -0.2420
16260TIP3   OH270270   2.128   3.040   2.129 -0.1112  0.4814 -0.0050
16260TIP3    H170271   2.214   3.082   2.131  0.2976 -0.2535 -1.5911
16260TIP3    H270272   2.112   3.020   2.037 -0.4882 -2.4464  0.6314
16261TIP3   OH270273   1.850   2.466   5.149  0.2689 -0.1390 -0.5942
16261TIP3    H170274   1.910   2.461   5.224  0.0322  1.3535 -0.3065
16261TIP3    H270275   1.777   2.519   5.180 -0.4924 -0.6861 -1.4388
16262TIP3   OH270276   0.809   2.347  11.941  0.2487  0.4422  0.8395
16262TIP3    H170277   0.810   2.272  11.882  2.0729  0.7193  0.4975
16262TIP3    H270278   0.800   2.423  11.884 -1.1832  0.5204  1.1568
16263TIP3   OH270279   2.337   4.136  15.768  0.1793  0.6832 -0.0477
16263TIP3    H170280   2.352   4.227  15.743 -2.4509  0.7232 -1.7051
16263TIP3    H270281   2.249   4.116  15.734  0.7298 -2.4678  0.2287
16264TIP3   OH270282   6.345   6.471   5.524  0.2906  0.2324  0.4775
16264TIP3    H170283   6.392   6.419   5.460  1.0226 -0.0948  1.2670
16264TIP3    H270284   6.265   6.500   5.479  0.5710 -0.3793 -0.4108
16265TIP3   OH270285   3.488   6.778   3.650 -0.2284 -0.6499  0.3535
16265TIP3    H170286   3.514   6.870   3.652 -0.2848 -0.6015 -0.9285
16265TIP3    H270287   3.502   6.748   3.740  1.7411  0.0669  0.3202
16266TIP3   OH270288   0.310   5.667   2.663 -0.2551 -0.0991 -0.2186
16266TIP3    H170289   0.338   5.652   2.753  0.1444 -2.9266 -0.7838
16266TIP3    H270290   0.389   5.656   2.611 -1.1708 -2.1361 -1.2422
16267TIP3   OH270291   4.750   1.897  15.964 -0.2959  0.8598 -0.3490
16267TIP3    H170292   4.715   1.921  16.050  2.0573  0.7051  0.7022
16267TIP3    H270293   4.845   1.904  15.974  0.1998 -2.6047 -1.8965
16268TIP3   OH270294   4.243   2.371   4.968 -0.6476  0.6255  0.7150
16268TIP3    H170295   4.195   2.451   4.988 -2.0696  0.2278 -0.9272
16268TIP3    H270296   4.323   2.401   4.925 -1.2702  1.1781 -0.0820
16269TIP3   OH270297   6.735   0.479  16.338 -0.1238 -0.0238 -0.1533
16269TIP3    H170298   6.738   0.384  16.325 -0.1513 -0.0800  0.2504
16269TIP3    H270299   6.740   0.490  16.432  0.7835  0.4204 -0.2576
16270TIP3   OH270300   3.781   2.219   1.518 -0.1399  0.3055 -0.5839
16270TIP3    H170301   3.848   2.285   1.535 -1.1094  1.2867 -0.4905
16270TIP3    H270302   3.713   2.238   1.582 -0.8509 -0.1912 -1.1887
16271TIP3   OH270303   3.418   2.698   2.928  0.4747  0.1676 -0.3333
16271TIP3    H170304   3.403   2.730   3.017 -0.8954  0.2773 -0.5977
16271TIP3    H270305   3.513   2.704   2.917  0.3751  3.3510 -0.0695
16272TIP3   OH270306   0.061   3.806  15.560  0.8148 -0.4978 -0.2532
16272TIP3    H170307   0.018   3.807  15.474  0.7369 -0.7426 -0.2167
16272TIP3    H270308   0.058   3.715  15.588  1.0123 -0.4503 -0.0745
16273TIP3   OH270309   0.770   6.378  11.198  0.2717 -0.2637  0.3370
16273TIP3    H170310   0.732   6.433  11.129  2.8725  2.0386  0.6745
16273TIP3    H270311   0.837   6.327  11.153  0.9339  0.1324  0.8744
16274TIP3   OH270312   3.587   5.427   2.814 -0.4808  0.6415  0.0336
16274TIP3    H170313   3.651   5.408   2.883 -0.9187 -2.9900 -0.4253
16274TIP3    H270314   3.605   5.360   2.747 -2.6864  1.5804 -1.5418
16275TIP3   OH270315   5.716   5.117  12.046  0.1460  0.0364  0.4424
16275TIP3    H170316   5.663   5.059  12.099 -1.5897 -0.5721 -1.8634
16275TIP3    H270317   5.801   5.073  12.039 -0.3006 -0.9003  0.9479
16276TIP3   OH270318   1.524   3.105   4.520  0.0052  0.5039 -0.3587
16276TIP3    H170319   1.495   3.035   4.461 -0.5048  0.8574 -0.5303
16276TIP3    H270320   1.533   3.182   4.464  0.8817  0.5013 -0.2295
16277TIP3   OH270321   4.849   4.251   5.310  0.1301  0.2071 -0.0647
16277TIP3    H170322   4.872   4.162   5.338 -2.5050 -1.2049 -2.1127
16277TIP3    H270323   4.906   4.268   5.236  0.6559  0.2332  0.3428
16278TIP3   OH270324   1.693   1.315   4.063  0.2095 -0.1569  0.5316
16278TIP3    H170325   1.781   1.291   4.035  0.2358 -0.1299  0.5901
16278TIP3    H270326   1.644   1.328   3.982  0.2818 -0.0909  0.4988
16279TIP3   OH270327   0.340   6.115   4.027  0.2656 -0.3080 -0.1335
16279TIP3    H170328   0.306   6.197   4.061  2.5569 -0.2748  2.2314
16279TIP3    H270329   0.423   6.138   3.985 -0.5816 -0.9643 -2.2090
16280TIP3   OH270330   6.598   0.590   5.412  0.0498 -0.0234  0.4200
16280TIP3    H170331   6.577   0.603   5.505 -1.3924  0.8428 -0.0072
16280TIP3    H270332   6.654   0.663   5.389  1.3509 -0.8646  0.8895
16281TIP3   OH270333   3.158   4.116  11.478 -0.1013 -0.3318  0.2879
16281TIP3    H170334   3.064   4.113  11.495 -0.0640 -1.8696  0.3329
16281TIP3    H270335   3.182   4.208  11.489 -2.1232  0.6096 -2.6236
16282TIP3   OH270336   3.226   5.140  13.254  0.5087 -0.2542 -0.0124
16282TIP3    H170337   3.140   5.104  13.235 -0.4411  1.6235  0.6089
16282TIP3    H270338   3.284   5.102  13.188 -0.9620 -0.8620 -0.9545
16283TIP3   OH270339   1.140   0.648  17.127 -0.5725  0.3151  0.4712
16283TIP3    H170340   1.087   0.596  17.068  0.7021  1.4929 -1.7743
16283TIP3    H270341   1.225   0.604  17.130  0.1148  1.5429 -0.4578
16284TIP3   OH270342   4.535   1.926  14.762 -0.5553 -0.0161  0.3199
16284TIP3    H170343   4.442   1.949  14.774 -1.3559 -1.5077 -2.5798
16284TIP3    H270344   4.533   1.839  14.722  2.1973 -1.1211  2.4843
16285TIP3   OH270345   4.948   1.240   0.816 -0.2655  0.0449  0.2581
16285TIP3    H170346   4.947   1.285   0.732  0.1139 -1.5161 -0.6114
16285TIP3    H270347   4.865   1.262   0.857 -0.9958 -0.1963 -1.0790
16286TIP3   OH270348   3.526   0.197   5.370  0.7653 -0.5730 -0.0169
16286TIP3    H170349   3.610   0.223   5.332  0.4946 -1.2959 -1.1234
16286TIP3    H270350   3.516   0.106   5.345 -1.4048  0.1409 -1.8167
16287TIP3   OH270351   1.739   6.614  13.618 -0.0897  0.1960  0.1418
16287TIP3    H170352   1.806   6.556  13.655  0.2923 -0.4554 -1.5426
16287TIP3    H270353   1.782   6.658  13.545 -1.4802 -0.2767 -1.0022
16288TIP3   OH270354   2.428   6.255  13.492  0.6269 -0.9605 -0.1228
16288TIP3    H170355   2.492   6.219  13.430  0.2736 -0.5977 -0.6936
16288TIP3    H270356   2.481   6.302  13.556  0.8208  0.9878 -1.6736
16289TIP3   OH270357   5.138   6.322   1.483 -0.1453  0.0231  0.0290
16289TIP3    H170358   5.142   6.288   1.393  0.9040  0.5947 -0.1466
16289TIP3    H270359   5.202   6.393   1.484 -0.8849  0.6757  0.9563
16290TIP3   OH270360   3.112   2.039  10.915 -0.3575  0.2968 -0.4205
16290TIP3    H170361   3.178   2.028  10.846 -0.8881  1.2125 -1.0761
16290TIP3    H270362   3.112   1.955  10.961  0.4015 -0.1292 -1.1836
16291TIP3   OH270363   3.113   1.745  12.732 -0.3857 -0.1351  0.0191
16291TIP3    H170364   3.122   1.837  12.706 -1.4587 -0.7187 -2.6365
16291TIP3    H270365   3.034   1.743  12.787 -1.1971  0.3354 -1.0973
16292TIP3   OH270366   4.558   5.706   1.892  0.0243 -0.0562  0.2737
16292TIP3    H170367   4.617   5.631   1.903 -0.7875 -1.0050 -1.6357
16292TIP3    H270368   4.529   5.701   1.801 -0.8606  1.9927  0.4073
16293TIP3   OH270369   0.501   2.449  15.083 -0.9052 -0.2570 -0.2765
16293TIP3    H170370   0.582   2.450  15.135 -0.7424 -0.4598 -0.5263
16293TIP3    H270371   0.454   2.371  15.112 -1.3475  0.2534  0.3824
16294TIP3   OH270372   4.481   5.189   2.462 -0.2698  1.2549  0.2847
16294TIP3    H170373   4.507   5.223   2.547 -1.2663  2.1388  0.2387
16294TIP3    H270374   4.390   5.161   2.473  0.1297 -0.2537 -0.0192
16295TIP3   OH270375   5.081   3.899   6.101 -0.3614  0.1735  0.4194
16295TIP3    H170376   5.039   3.846   6.169  0.7544  0.5968  1.4667
16295TIP3    H270377   5.154   3.845   6.070  0.2399  0.7101  0.8650
16296TIP3   OH270378   1.145   3.763  12.766  0.0525  0.3819  0.4872
16296TIP3    H170379   1.221   3.710  12.742 -0.6385 -0.2697 -0.3362
16296TIP3    H270380   1.097   3.774  12.684 -0.8442  0.6058  1.0307
16297TIP3   OH270381   4.449   1.811   3.568  0.0818  0.3899  0.0771
16297TIP3    H170382   4.491   1.755   3.503  1.1325  0.5320  0.6174
16297TIP3    H270383   4.395   1.751   3.620  1.3596 -0.1716  0.7819
16298TIP3   OH270384   2.453   2.659   5.365 -0.1125 -0.6624  0.3346
16298TIP3    H170385   2.391   2.723   5.329 -1.8198 -1.3277  2.0142
16298TIP3    H270386   2.499   2.706   5.433  1.8320  0.0589 -1.4242
16299TIP3   OH270387   6.642   0.887   0.692  0.6225 -0.0290 -0.5565
16299TIP3    H170388   6.568   0.846   0.647  1.6003 -1.0682 -1.2376
16299TIP3    H270389   6.696   0.924   0.622  0.8356  0.5915 -0.0766
16300TIP3   OH270390   6.467   5.473  13.663  0.2746 -0.2252  0.8834
16300TIP3    H170391   6.532   5.473  13.734  0.5843 -2.1709  0.6426
16300TIP3    H270392   6.511   5.427  13.591 -1.0525 -0.7603  0.3987
16301TIP3   OH270393   2.887   3.285  14.166  0.2549  0.1700 -0.1556
16301TIP3    H170394   2.858   3.213  14.221 -0.2357 -0.0124 -0.6467
16301TIP3    H270395   2.832   3.359  14.190 -1.0148 -0.3245 -1.4769
16302TIP3   OH270396   2.630   4.442   4.324 -0.2523 -0.4802  0.3886
16302TIP3    H170397   2.610   4.404   4.238 -1.9391  2.1557 -0.4296
16302TIP3    H270398   2.691   4.514   4.305 -0.5478  0.0418  1.4096
16303TIP3   OH270399   4.958   6.578   2.661 -0.1832  0.2873 -0.3707
16303TIP3    H170400   4.939   6.573   2.567  1.3654 -0.2575 -0.6850
16303TIP3    H270401   4.885   6.626   2.698 -0.4824  1.1228 -1.9770
16304TIP3   OH270402   6.109   5.398  17.145  0.3032 -0.2345  0.5301
16304TIP3    H170403   6.038   5.404  17.208 -0.3110 -0.1535 -0.1654
16304TIP3    H270404   6.094   5.471  17.085  0.9866 -0.2041  0.3925
16305TIP3   OH270405   1.921   1.348  11.518 -0.2511  0.3410 -0.0183
16305TIP3    H170406   1.858   1.282  11.490  0.9227 -0.2035 -1.4044
16305TIP3    H270407   1.972   1.368  11.439 -1.8604  4.3383 -0.1916
16306TIP3   OH270408   4.477   0.958  17.136  0.0712 -0.1211  0.0164
16306TIP3    H170409   4.543   0.934  17.202 -1.0093  0.7303  1.4426
16306TIP3    H270410   4.464   0.879  17.085  1.5058 -0.5739  0.3319
16307TIP3   OH270411   4.898   5.621   3.822  0.1618  0.0426 -0.2234
16307TIP3    H170412   4.958   5.556   3.860 -0.0803  0.3353  0.6882
16307TIP3    H270413   4.818   5.572   3.804  1.0818 -0.6321 -2.6234
16308TIP3   OH270414   0.978   2.013  12.747  0.3035 -0.1437  0.4236
16308TIP3    H170415   0.962   2.107  12.741  1.0512 -0.0732 -0.7468
16308TIP3    H270416   0.909   1.973  12.695  1.4684 -0.0719 -1.2335
16309TIP3   OH270417   6.445   0.710  15.606 -0.7044  0.2979  0.2080
16309TIP3    H170418   6.487   0.757  15.679 -1.5608  0.8357  0.3553
16309TIP3    H270419   6.518   0.672  15.558 -0.0053  1.6681  0.1639
16310TIP3   OH270420   0.668   5.105   6.321  0.2922 -0.1332  0.4033
16310TIP3    H170421   0.597   5.113   6.385 -0.2480  2.5724 -0.4347
16310TIP3    H270422   0.625   5.069   6.243 -0.4022  2.2753 -0.3754
16311TIP3   OH270423   2.483   2.373   4.718  0.2083  0.0672 -0.3452
16311TIP3    H170424   2.545   2.368   4.645  0.4520  2.9942 -0.3895
16311TIP3    H270425   2.538   2.375   4.796  0.1675  2.0611 -0.3554
16312TIP3   OH270426   6.695   4.317  14.124 -0.1348 -0.7384 -0.4622
16312TIP3    H170427   6.691   4.275  14.210  0.0270 -1.0193 -0.5921
16312TIP3    H270428   6.603   4.336  14.103  0.1139  3.4409  1.7758
16313TIP3   OH270429   3.698   5.179   4.836  0.2659  0.3108  0.3113
16313TIP3    H170430   3.717   5.129   4.915  0.3743  0.9592  0.6988
16313TIP3    H270431   3.780   5.178   4.787  0.2487  0.0571  0.2872
16314TIP3   OH270432   0.463   5.177  11.414 -0.1292  0.2706  0.1020
16314TIP3    H170433   0.395   5.111  11.423  0.3854 -0.1507  1.0098
16314TIP3    H270434   0.492   5.194  11.504 -1.5775  3.1464  0.0973
16315TIP3   OH270435   4.720   5.177   5.457  0.1018 -0.1547 -0.2150
16315TIP3    H170436   4.794   5.191   5.399  0.4953  0.5673  0.4606
16315TIP3    H270437   4.759   5.149   5.540 -0.4899 -1.9377 -0.5067
16316TIP3   OH270438   2.952   4.817   4.693  0.4099  0.2391 -0.1082
16316TIP3    H170439   3.010   4.880   4.648  0.8840 -0.3991 -0.4010
16316TIP3    H270440   2.889   4.790   4.626  1.3567 -1.0094 -0.5159
16317TIP3   OH270441   2.089   2.747   3.721 -0.1507 -0.2588  0.5663
16317TIP3    H170442   2.026   2.685   3.685 -0.7042  1.2538 -1.1750
16317TIP3    H270443   2.040   2.829   3.727  1.1608  0.5194  0.8269
16318TIP3   OH270444   4.154   6.566  16.932  0.5717 -0.2111  0.0979
16318TIP3    H170445   4.217   6.541  17.000 -0.0790 -1.1412  0.3763
16318TIP3    H270446   4.069   6.540  16.968  0.1465 -0.0003 -0.7461
16319TIP3   OH270447   6.246   0.123   4.047 -0.4251 -0.3951 -0.9715
16319TIP3    H170448   6.184   0.132   3.975 -0.7024 -0.3105 -0.7207
16319TIP3    H270449   6.211   0.179   4.116 -0.6919 -1.2632 -0.4075
16320TIP3   OH270450   1.918   5.732  13.521 -0.4381  0.7872 -0.9169
16320TIP3    H170451   1.879   5.745  13.435  1.1992  1.6654 -1.5445
16320TIP3    H270452   1.966   5.649  13.513  0.2899  1.2272 -1.0505
16321TIP3   OH270453   5.854   4.957  17.140  0.0279 -0.3332  0.0141
16321TIP3    H170454   5.909   5.035  17.135  0.8146 -0.9362 -0.9306
16321TIP3    H270455   5.791   4.967  17.069  0.2115 -0.6236 -0.1914
16322TIP3   OH270456   6.358   5.512  16.309  0.2062  0.3456  0.4175
16322TIP3    H170457   6.320   5.599  16.304  0.8919  0.6560  0.4959
16322TIP3    H270458   6.411   5.504  16.230 -1.2482 -0.6852 -0.4855
16323TIP3   OH270459   2.540   3.493  11.367 -0.8231 -0.4841 -0.2234
16323TIP3    H170460   2.586   3.456  11.291 -0.0813  2.1850 -1.1734
16323TIP3    H270461   2.468   3.543  11.329  0.4258  2.1046  0.6652
16324TIP3   OH270462   6.063   4.333   3.112 -1.1684 -0.3389  0.3857
16324TIP3    H170463   5.969   4.334   3.092 -1.0889  0.9041  0.0083
16324TIP3    H270464   6.070   4.374   3.198 -0.9152  0.2533  0.0909
16325TIP3   OH270465   0.688   0.403   2.992  0.0540 -0.1554 -0.2348
16325TIP3    H170466   0.616   0.397   3.056 -0.4828  0.6659 -0.7511
16325TIP3    H270467   0.761   0.439   3.043 -1.1824  3.1930 -0.6776
16326TIP3   OH270468   2.399   4.169  14.204 -0.1806  0.6518  0.3212
16326TIP3    H170469   2.401   4.076  14.183  1.0721  0.3135  1.7861
16326TIP3    H270470   2.313   4.199  14.174 -0.0420 -0.6450 -1.4448
16327TIP3   OH270471   3.821   5.070   4.062  0.6219  0.7243 -0.3066
16327TIP3    H170472   3.735   5.072   4.104  0.2116  0.4873 -1.1167
16327TIP3    H270473   3.878   5.026   4.125  0.2064  1.0944  0.3301
16328TIP3   OH270474   1.625   2.415   3.948  0.1699 -0.8611 -0.8240
16328TIP3    H170475   1.703   2.361   3.964  1.2655  1.6319  2.9691
16328TIP3    H270476   1.559   2.379   4.007 -0.3789 -0.6022 -1.2815
16329TIP3   OH270477   2.027   0.154   2.484  0.0657  0.1324 -0.0910
16329TIP3    H170478   2.023   0.098   2.561  0.7245 -0.7984 -0.7089
16329TIP3    H270479   1.936   0.181   2.468 -0.0743  0.2733  0.9593
16330TIP3   OH270480   0.183   3.533  13.549 -0.4013 -0.0105 -0.4901
16330TIP3    H170481   0.107   3.583  13.521 -2.8686 -2.8438  0.8691
16330TIP3    H270482   0.173   3.527  13.644  0.5169 -1.9620 -0.4955
16331TIP3   OH270483   2.493   2.519   3.743 -0.0007 -0.0827  0.6392
16331TIP3    H170484   2.574   2.498   3.790 -1.3265 -1.6782  2.2834
16331TIP3    H270485   2.485   2.614   3.749  0.6363 -0.1311  2.3703
16332TIP3   OH270486   5.854   3.528  13.042 -0.6068  0.0892 -0.2080
16332TIP3    H170487   5.808   3.528  12.958 -1.8168 -0.7856  0.4393
16332TIP3    H270488   5.872   3.620  13.060  1.1475  0.1799 -2.2144
16333TIP3   OH270489   5.983   4.622  13.074 -0.0302 -0.2073 -0.4312
16333TIP3    H170490   6.011   4.703  13.031 -0.0001 -0.7801 -1.5272
16333TIP3    H270491   5.979   4.644  13.167  1.2168  0.6901 -0.5789
16334TIP3   OH270492   1.383   4.674  11.686  0.3157  0.0849 -0.4549
16334TIP3    H170493   1.294   4.707  11.688 -0.3268 -1.4123 -2.8802
16334TIP3    H270494   1.382   4.597  11.742  0.1821  0.2592 -0.2158
16335TIP3   OH270495   5.597   0.654  11.064  0.0953  0.0432  0.4054
16335TIP3    H170496   5.520   0.625  11.015  1.2491 -0.2880 -1.2412
16335TIP3    H270497   5.572   0.740  11.099 -1.9440 -1.1931  2.1048
16336TIP3   OH270498   1.104   3.797   2.991  0.1715  0.6752  0.4219
16336TIP3    H170499   1.059   3.880   2.973 -0.4422  0.3817  0.5925
16336TIP3    H270500   1.038   3.730   2.975 -0.1420  0.3533  2.8781
16337TIP3   OH270501   4.969   4.109   1.411 -0.4376 -0.0355 -0.2279
16337TIP3    H170502   4.964   4.021   1.450  0.9561  0.0369  0.1389
16337TIP3    H270503   5.049   4.108   1.359  0.2536  1.3998  0.7692
16338TIP3   OH270504   2.364   3.102  13.314  0.4480 -0.1960 -0.8935
16338TIP3    H170505   2.290   3.078  13.259  0.6793 -0.7036 -0.9861
16338TIP3    H270506   2.344   3.063  13.399  0.2930  0.2295 -0.7319
16339TIP3   OH270507   0.114   3.060  16.889  0.3483  0.9822 -0.1017
16339TIP3    H170508   0.059   3.016  16.954 -1.6796  2.9163 -0.4354
16339TIP3    H270509   0.203   3.030  16.909 -0.5010 -0.2507  2.0806
16340TIP3   OH270510   5.863   2.451   0.430 -0.0508 -0.5467 -0.0255
16340TIP3    H170511   5.918   2.446   0.508  0.1034  0.9433 -0.0150
16340TIP3    H270512   5.777   2.477   0.463 -0.1622 -0.5928 -0.2729
16341TIP3   OH270513   6.115   2.214  14.162 -0.3158 -0.2451 -0.1942
16341TIP3    H170514   6.208   2.221  14.140 -0.6243 -1.4696 -1.9685
16341TIP3    H270515   6.083   2.141  14.109 -1.8002 -1.2918  2.0816
16342TIP3   OH270516   1.090   5.111   1.551  0.0880 -0.6812 -0.4495
16342TIP3    H170517   1.136   5.178   1.600  0.8571 -1.3876 -0.1930
16342TIP3    H270518   1.104   5.134   1.459 -1.6359  0.8282 -0.3600
16343TIP3   OH270519   4.914   4.144  15.952 -0.2897 -0.1869  1.1318
16343TIP3    H170520   4.986   4.166  16.011  0.7414  0.9605 -0.4945
16343TIP3    H270521   4.911   4.049  15.951  1.6043 -0.2544  0.7723
16344TIP3   OH270522   5.944   1.631   3.401  0.2790  0.1528  0.3543
16344TIP3    H170523   5.869   1.657   3.456 -1.2022 -1.0845 -1.0136
16344TIP3    H270524   5.935   1.536   3.394 -1.0974  0.5377 -4.1693
16345TIP3   OH270525   3.457   2.940  15.080 -0.5127  0.1998  0.6255
16345TIP3    H170526   3.430   2.966  14.991  0.7845  0.7462  0.3731
16345TIP3    H270527   3.400   2.867  15.102 -1.8653  1.0139 -0.0664
16346TIP3   OH270528   4.449   1.308  12.513 -0.1876 -0.4794  0.1775
16346TIP3    H170529   4.445   1.239  12.447 -0.6523 -0.1383 -0.1540
16346TIP3    H270530   4.358   1.336  12.525 -0.2905 -1.4682  1.9612
16347TIP3   OH270531   6.449   4.059  14.179 -0.3390 -0.0622  0.0442
16347TIP3    H170532   6.521   4.082  14.238 -0.4494 -0.4756  0.3405
16347TIP3    H270533   6.404   4.142  14.163  2.0303  0.8068 -2.6311
16348TIP3   OH270534   4.094   4.877  12.789 -0.0156  0.0940  0.0322
16348TIP3    H170535   4.171   4.822  12.771  0.0648 -0.2356  1.3369
16348TIP3    H270536   4.082   4.871  12.884 -2.6808 -1.2649 -0.3252
16349TIP3   OH270537   6.769   1.819  15.514  0.2258  0.0868 -0.0321
16349TIP3    H170538   6.798   1.828  15.423  1.0375 -1.1787  0.0938
16349TIP3    H270539   6.724   1.735  15.516 -0.7750  0.6365  0.4846
16350TIP3   OH270540   4.992   4.248   0.971  0.1290  0.4560  0.0438
16350TIP3    H170541   5.040   4.285   1.046  1.3536  2.1065 -1.5035
16350TIP3    H270542   5.040   4.169   0.948  0.7877  0.8912 -0.0865
16351TIP3   OH270543   5.441   0.372   2.968  0.6218  0.9213  0.6456
16351TIP3    H170544   5.515   0.383   2.909 -0.9102  2.1192 -1.1101
16351TIP3    H270545   5.430   0.457   3.010 -0.1490  0.9498  0.4022
16352TIP3   OH270546   0.492   3.972  14.690  0.0124 -0.1191  0.2602
16352TIP3    H170547   0.398   3.955  14.695 -0.1844  0.8333 -0.0933
16352TIP3    H270548   0.515   4.005  14.776 -0.3049  1.1952 -0.1408
16353TIP3   OH270549   1.816   3.223   0.570  0.4084 -0.3506  0.5670
16353TIP3    H170550   1.840   3.316   0.567 -1.1948  0.1591  2.8002
16353TIP3    H270551   1.724   3.221   0.543  1.0639 -1.5745 -1.7047
16354TIP3   OH270552   1.214   3.542   6.581 -0.6929 -0.4027 -0.7784
16354TIP3    H170553   1.303   3.562   6.610 -1.9262  1.8621  1.7308
16354TIP3    H270554   1.195   3.608   6.515 -0.2871 -1.3161 -1.8194
16355TIP3   OH270555   5.434   0.961   2.907 -0.2367  1.0754  0.3398
16355TIP3    H170556   5.434   1.045   2.953 -0.1729  1.0106  0.4589
16355TIP3    H270557   5.515   0.919   2.936 -0.8826  0.4379  1.2549
16356TIP3   OH270558   5.873   6.781   2.366  0.4384 -0.2299  0.0954
16356TIP3    H170559   5.788   6.793   2.408  1.0921  0.1502  1.3497
16356TIP3    H270560   5.867   6.695   2.324 -0.3310 -0.5044  0.7467
16357TIP3   OH270561   6.354   5.353   1.780  1.0635 -0.1531 -0.8582
16357TIP3    H170562   6.276   5.378   1.731  0.3824  0.7895  0.6713
16357TIP3    H270563   6.319   5.318   1.863  2.2584  0.6214 -0.0121
16358TIP3   OH270564   0.628   4.239  15.123 -0.3181  0.1222 -0.2249
16358TIP3    H170565   0.696   4.261  15.060 -0.3022 -1.1026 -0.6462
16358TIP3    H270566   0.670   4.248  15.208 -0.0158  0.6664 -0.4285
16359TIP3   OH270567   4.790   3.503   0.845 -0.0630  0.4803 -0.2187
16359TIP3    H170568   4.741   3.442   0.899  3.2947 -1.6088  0.6170
16359TIP3    H270569   4.755   3.589   0.868 -2.3497 -0.7976  1.2861
16360TIP3   OH270570   2.118   5.972   2.602 -0.1438 -0.6953  1.0448
16360TIP3    H170571   2.164   5.888   2.603  3.1817  1.0111  0.0002
16360TIP3    H270572   2.188   6.038   2.598 -2.6585  2.1253  1.3504
16361TIP3   OH270573   1.133   6.558   0.575  0.6246 -0.1217 -0.2242
16361TIP3    H170574   1.086   6.642   0.570 -0.4011 -0.6357  0.4788
16361TIP3    H270575   1.223   6.582   0.595  0.3319  0.8143  0.0239
16362TIP3   OH270576   3.440   6.694   1.437  0.0645 -0.2149 -0.2357
16362TIP3    H170577   3.383   6.655   1.503  2.7900 -1.1007  1.6804
16362TIP3    H270578   3.528   6.682   1.472  1.3651  2.2076 -2.5314
16363TIP3   OH270579   0.744   2.283  14.986 -0.4306 -0.1117  0.0277
16363TIP3    H170580   0.742   2.275  15.081  0.2334  1.0533  0.1467
16363TIP3    H270581   0.704   2.368  14.968 -0.6457 -0.3683 -0.7424
16364TIP3   OH270582   1.552   5.748  15.959 -0.7600 -0.1796 -0.4388
16364TIP3    H170583   1.569   5.706  15.875 -1.5246 -0.5105 -0.4306
16364TIP3    H270584   1.513   5.679  16.013  0.8422 -0.3128  0.5858
16365TIP3   OH270585   6.767   1.944   1.297 -0.5862  0.6940 -0.2696
16365TIP3    H170586   6.819   1.873   1.259 -1.3932  0.4526 -0.9257
16365TIP3    H270587   6.773   1.930   1.392 -1.4914 -0.7860 -0.4153
16366TIP3   OH270588   0.751   0.560  14.407  0.3751  0.1983 -0.6640
16366TIP3    H170589   0.753   0.655  14.415 -1.8216  0.1587  1.0557
16366TIP3    H270590   0.742   0.544  14.313  0.3494  1.7162 -0.9342
16367TIP3   OH270591   0.091   4.431   0.043  0.3647  0.2187  0.2938
16367TIP3    H170592   0.149   4.417  -0.032 -0.0636 -0.2514  0.0444
16367TIP3    H270593   0.025   4.492   0.011 -1.1469 -1.7305 -0.4473
16368TIP3   OH270594   2.813   6.264  15.205 -0.7182 -0.0315 -0.1801
16368TIP3    H170595   2.819   6.326  15.278 -0.0520  1.6889 -1.6626
16368TIP3    H270596   2.756   6.195  15.238 -1.1722  1.1648  1.6613
16369TIP3   OH270597   3.158   4.347   0.670 -0.5297 -0.2125 -0.2143
16369TIP3    H170598   3.066   4.364   0.653 -0.6010  1.1244  1.3466
16369TIP3    H270599   3.168   4.252   0.662 -1.7177 -0.2116 -1.8438
16370TIP3   OH270600   3.190   0.459  11.686  0.0118  0.3723  0.4616
16370TIP3    H170601   3.267   0.455  11.629 -1.0267  3.1687 -1.2773
16370TIP3    H270602   3.226   0.464  11.774  1.7824 -0.0602 -0.2084
16371TIP3   OH270603   4.846   4.006  11.560 -0.6517 -0.5745 -0.4595
16371TIP3    H170604   4.892   4.018  11.643 -1.8152 -1.4308  0.3229
16371TIP3    H270605   4.829   4.095  11.528 -0.0430 -0.2478  0.1278
16372TIP3   OH270606   1.887   5.739  15.847  0.1707  0.2014 -0.4162
16372TIP3    H170607   1.824   5.681  15.888  1.6367 -0.4749  0.9002
16372TIP3    H270608   1.973   5.709  15.877  1.2514  0.2136 -3.2788
16373TIP3   OH270609   4.068   2.644   4.907  0.8289  0.4246 -0.3691
16373TIP3    H170610   4.120   2.648   4.827 -0.7303 -0.0909 -1.4340
16373TIP3    H270611   4.075   2.731   4.946  0.0789  1.2399 -2.0448
16374TIP3   OH270612   5.179   1.558  14.859  0.0837  0.4685  0.0338
16374TIP3    H170613   5.194   1.509  14.778 -0.1246  1.0135 -0.3344
16374TIP3    H270614   5.084   1.562  14.868  0.0970  0.8636  0.0233
16375TIP3   OH270615   4.787   5.536  15.014 -0.1239  0.7844 -0.2178
16375TIP3    H170616   4.736   5.505  15.089  0.1007  0.4694 -0.1973
16375TIP3    H270617   4.727   5.529  14.940 -0.9261  2.7171  0.2048
16376TIP3   OH270618   1.836   2.617   5.899 -0.0749  0.3145  0.9567
16376TIP3    H170619   1.870   2.533   5.930 -1.2829 -0.6403 -0.2785
16376TIP3    H270620   1.774   2.644   5.967  0.4151  0.2801  1.4206
16377TIP3   OH270621   6.494   4.108   5.005  0.3515  0.2730 -0.1017
16377TIP3    H170622   6.416   4.127   5.056 -1.6128 -2.4811 -1.9431
16377TIP3    H270623   6.474   4.026   4.960  4.8831 -1.3611  0.5511
16378TIP3   OH270624   2.572   3.563   1.493  0.7122 -0.0503  0.1043
16378TIP3    H170625   2.589   3.522   1.408 -0.1215 -1.1046  0.4433
16378TIP3    H270626   2.479   3.583   1.493  1.0870  1.8646 -0.0467
16379TIP3   OH270627   1.444   2.278   4.594 -0.3523 -0.4649  0.4875
16379TIP3    H170628   1.393   2.355   4.567  1.2186  0.1854 -0.6644
16379TIP3    H270629   1.382   2.205   4.589 -2.2612  0.8931  2.9057
16380TIP3   OH270630   5.189   1.025  13.098  0.2475 -0.0816  0.1155
16380TIP3    H170631   5.135   1.083  13.044 -0.8665 -0.8547  0.3905
16380TIP3    H270632   5.270   1.075  13.112 -0.8228  1.5727  0.6437
16381TIP3   OH270633   4.700   0.693  10.258 -0.0221 -0.4693  0.9714
16381TIP3    H170634   4.745   0.627  10.310 -0.2533 -0.5946  1.0094
16381TIP3    H270635   4.609   0.690  10.287  0.2060  0.7177  1.8558
16382TIP3   OH270636   5.614   3.992   6.148  0.7043  0.0597 -0.4947
16382TIP3    H170637   5.538   4.050   6.158  0.5024 -0.1769 -0.6388
16382TIP3    H270638   5.611   3.936   6.225  0.2962 -0.4496 -0.8765
16383TIP3   OH270639   3.022   5.588   1.291  0.4104 -0.3639 -0.1443
16383TIP3    H170640   2.980   5.542   1.218 -0.8508  2.9822 -1.6125
16383TIP3    H270641   2.974   5.557   1.369  0.7581 -2.8049 -0.8431
16384TIP3   OH270642   4.509   1.889  15.822 -0.1973 -0.5119  0.2083
16384TIP3    H170643   4.454   1.918  15.895 -0.9275 -3.1562  0.7809
16384TIP3    H270644   4.596   1.877  15.861  0.3228  1.6303 -0.2247
16385TIP3   OH270645   0.335   3.901   6.037  0.0851  0.0007  0.4363
16385TIP3    H170646   0.374   3.829   5.987 -0.4106 -0.7864  1.1750
16385TIP3    H270647   0.391   3.977   6.017  1.2759 -0.8359  0.5297
16386TIP3   OH270648   5.897   5.520  11.230 -0.3414  0.3906  0.3149
16386TIP3    H170649   5.840   5.444  11.219  2.6840 -1.9646  0.2155
16386TIP3    H270650   5.897   5.536  11.325  0.2546 -0.7445  0.5097
16387TIP3   OH270651   5.811   2.827   4.541  0.2316 -0.2040 -0.0747
16387TIP3    H170652   5.723   2.842   4.575  1.0265  0.4540  1.6966
16387TIP3    H270653   5.816   2.883   4.463  0.7493  3.5391  2.5292
16388TIP3   OH270654   6.326   4.552  17.272  0.3479  0.0030 -0.3469
16388TIP3    H170655   6.362   4.466  17.253 -0.4459 -0.2057 -0.9646
16388TIP3    H270656   6.376   4.612  17.216 -0.0253 -0.2403 -0.9525
16389TIP3   OH270657   2.368   0.727   3.859 -0.3247 -0.5214 -0.2301
16389TIP3    H170658   2.425   0.794   3.894  1.4461 -2.4727  0.7293
16389TIP3    H270659   2.389   0.723   3.766 -0.8351  0.5852 -0.4077
16390TIP3   OH270660   4.169   4.792  13.341  0.3946 -0.4259  0.2698
16390TIP3    H170661   4.179   4.886  13.325 -0.7328  0.1840  2.8633
16390TIP3    H270662   4.257   4.756  13.328  1.0643  1.1688  0.2655
16391TIP3   OH270663   4.649   0.012  17.038  0.1503  0.6277 -0.1789
16391TIP3    H170664   4.690  -0.027  16.960  0.6788 -0.3697  0.5958
16391TIP3    H270665   4.556  -0.010  17.029  0.4560 -0.8940  0.2933
16392TIP3   OH270666   0.379   4.363  15.162  0.5985 -0.0045 -0.1084
16392TIP3    H170667   0.461   4.319  15.185  0.2096 -0.9227 -0.4305
16392TIP3    H270668   0.319   4.341  15.233  0.7271  0.9813  0.3203
16393TIP3   OH270669   4.029   6.604  16.079 -0.4849  0.3526 -0.5604
16393TIP3    H170670   4.115   6.572  16.106 -1.2442 -0.5933  0.7984
16393TIP3    H270671   4.048   6.680  16.024  1.2316 -0.2146 -0.7838
16394TIP3   OH270672   5.227   6.585   1.338  0.0081  0.2410 -0.3858
16394TIP3    H170673   5.263   6.569   1.251 -1.1711 -0.5796 -0.7440
16394TIP3    H270674   5.132   6.593   1.323 -0.3153 -0.9865  0.9491
16395TIP3   OH270675   0.304   5.714  10.920 -0.1595 -0.6479  0.3990
16395TIP3    H170676   0.254   5.639  10.888 -1.4086 -0.3333  1.5746
16395TIP3    H270677   0.387   5.677  10.949 -0.6322 -1.5306  0.6400
16396TIP3   OH270678   1.711   5.636  11.525  0.9093  0.1288 -0.8318
16396TIP3    H170679   1.672   5.639  11.612  1.0854 -1.3771 -0.6936
16396TIP3    H270680   1.735   5.727  11.506  0.3275  0.5483  0.4336
16397TIP3   OH270681   3.006   4.172  16.654  0.6577  0.5734 -0.4222
16397TIP3    H170682   3.073   4.104  16.657  0.7681  0.7379  1.2427
16397TIP3    H270683   3.038   4.240  16.713 -1.2148  0.4139  0.8187
16398TIP3   OH270684   3.978   3.242   2.793 -0.5261  0.1034  0.3545
16398TIP3    H170685   3.972   3.309   2.725 -2.1774  0.4571  0.8172
16398TIP3    H270686   4.057   3.264   2.842  0.5050  0.0340 -1.2378
16399TIP3   OH270687   4.155   3.310   1.546  0.1747 -0.1346  0.7059
16399TIP3    H170688   4.249   3.325   1.556  0.0222  0.7622  0.7998
16399TIP3    H270689   4.145   3.279   1.456  0.8625 -2.7292  1.4650
16400TIP3   OH270690   0.305   1.805  15.137 -0.1610 -0.2039 -0.1564
16400TIP3    H170691   0.284   1.767  15.223 -0.5688  0.2379 -0.0561
16400TIP3    H270692   0.220   1.830  15.102  0.0189 -0.2845 -0.6473
16401TIP3   OH270693   6.450   6.788  14.103 -0.2839  0.2575 -0.5157
16401TIP3    H170694   6.542   6.761  14.114 -0.4523  0.0615  0.5014
16401TIP3    H270695   6.401   6.706  14.106 -0.6167  0.4845  0.4909
16402TIP3   OH270696   0.958   4.929   3.860  0.4077 -0.2577  0.1235
16402TIP3    H170697   0.949   4.918   3.765  0.8226 -0.9492  0.1648
16402TIP3    H270698   0.913   5.012   3.878 -1.5995 -1.2063 -0.3689
16403TIP3   OH270699   5.844   0.926  12.298  0.1365 -0.3165 -0.2650
16403TIP3    H170700   5.802   0.907  12.382  1.2123 -0.2747  0.2881
16403TIP3    H270701   5.884   1.012  12.311  0.6218 -0.4761 -0.7017
16404TIP3   OH270702   4.579   1.390  12.772 -0.1488 -0.0535 -0.1821
16404TIP3    H170703   4.496   1.381  12.819 -1.0215  0.2041 -1.6549
16404TIP3    H270704   4.556   1.383  12.680  1.7205 -1.9390 -0.5587
16405TIP3   OH270705   1.685   1.799  13.439 -0.0043 -0.0549 -0.0280
16405TIP3    H170706   1.748   1.727  13.439  1.3786  1.1180  0.9821
16405TIP3    H270707   1.657   1.806  13.530  0.4593  1.1898  0.0201
16406TIP3   OH270708   1.470   0.410   6.101 -0.0755  0.6913  0.3908
16406TIP3    H170709   1.457   0.315   6.101  3.5062  0.0904 -2.3166
16406TIP3    H270710   1.521   0.426   6.181 -2.7245  0.7303  2.1208
16407TIP3   OH270711   6.816   0.027   6.091 -0.4753  0.5297 -0.4907
16407TIP3    H170712   6.845   0.081   6.018 -1.7594 -0.6191 -1.8808
16407TIP3    H270713   6.736   0.069   6.122 -1.6929 -0.7648 -1.8282
16408TIP3   OH270714   1.429   3.599  15.492  0.5498  0.6896 -0.7514
16408TIP3    H170715   1.351   3.628  15.540  0.3178  1.4074 -1.5402
16408TIP3    H270716   1.461   3.523  15.540 -1.2334 -0.2381 -1.0154
16409TIP3   OH270717   1.108   3.628   4.534 -0.3056 -0.6611 -0.2992
16409TIP3    H170718   1.170   3.626   4.462  0.0070 -0.1148 -0.0469
16409TIP3    H270719   1.158   3.597   4.610 -0.5276 -0.8659 -0.2329
16410TIP3   OH270720   0.255   2.998  17.289 -0.0819  0.3652  0.9244
16410TIP3    H170721   0.170   3.033  17.264  0.3358  2.0389  1.7269
16410TIP3    H270722   0.298   3.071  17.335  1.3083 -0.8290  1.5674
16411TIP3   OH270723   6.788   6.733  13.876 -0.4799 -0.2712  0.2693
16411TIP3    H170724   6.852   6.673  13.914 -2.0936 -3.1332 -1.2494
16411TIP3    H270725   6.740   6.769  13.950  1.2318 -0.0376  1.2694
16412TIP3   OH270726   4.164   6.305  12.829  0.1854  0.3191 -0.0413
16412TIP3    H170727   4.172   6.239  12.760 -0.9712 -0.1948  0.3006
16412TIP3    H270728   4.209   6.382  12.794 -1.1490  0.3520 -1.7610
16413TIP3   OH270729   6.348   0.149   5.356  0.0617  0.0847  0.2997
16413TIP3    H170730   6.358   0.067   5.403  0.7704 -0.4828 -0.8139
16413TIP3    H270731   6.435   0.189   5.358  0.0289  0.1883 -0.2759
16414TIP3   OH270732   6.365   1.307  11.926  0.2500  0.0412  0.3736
16414TIP3    H170733   6.429   1.338  11.863 -0.5975  1.0038 -0.0163
16414TIP3    H270734   6.285   1.353  11.904 -1.0969 -2.5271 -0.3350
16415TIP3   OH270735   3.340   0.411   1.550 -0.1670  0.3999  0.0448
16415TIP3    H170736   3.349   0.414   1.645  1.1440  0.0063 -0.0566
16415TIP3    H270737   3.305   0.324   1.531 -0.2981  0.4283  0.1583
16416TIP3   OH270738   0.421   0.460  16.826  0.3715  0.3562  0.1442
16416TIP3    H170739   0.400   0.469  16.733  0.6729  0.9751  0.1307
16416TIP3    H270740   0.403   0.547  16.863 -0.4272 -0.0775  0.7963
16417TIP3   OH270741   5.887   3.476   3.880  0.4447 -0.1625  0.0178
16417TIP3    H170742   5.905   3.413   3.810 -1.3779  1.4739 -2.0425
16417TIP3    H270743   5.934   3.555   3.853 -1.1287  0.8105  0.0585
16418TIP3   OH270744   2.514   3.832   0.644 -0.2886  0.0999  0.2064
16418TIP3    H170745   2.539   3.823   0.737  3.2679  2.7159 -0.3543
16418TIP3    H270746   2.566   3.766   0.599 -1.3054 -0.5295 -0.0578
16419TIP3   OH270747   1.717   5.006  12.562 -0.0976 -0.3614 -0.5386
16419TIP3    H170748   1.627   5.031  12.584  0.5472  1.1095  0.5567
16419TIP3    H270749   1.765   5.016  12.645  1.8465  2.6331 -1.9182
16420TIP3   OH270750   5.845   2.615  11.939 -0.3917 -0.3672  0.0843
16420TIP3    H170751   5.799   2.548  11.990 -0.4429 -0.9953 -0.7785
16420TIP3    H270752   5.780   2.686  11.929 -0.5149 -0.4138  0.5417
16421TIP3   OH270753   1.282   5.368   5.899  0.2494 -0.2958 -0.4908
16421TIP3    H170754   1.310   5.311   5.971  1.4623  0.9137  0.0293
16421TIP3    H270755   1.364   5.402   5.862 -0.4409  0.9360 -0.9192
16422TIP3   OH270756   6.373   0.673   4.439  0.9387 -0.2876 -0.1803
16422TIP3    H170757   6.392   0.588   4.478 -2.0294 -1.3541 -0.9266
16422TIP3    H270758   6.389   0.661   4.345 -0.6199 -0.4152 -0.4492
16423TIP3   OH270759   5.564   4.320   0.116 -0.5400  0.5584  0.0328
16423TIP3    H170760   5.611   4.386   0.168  0.1458  2.1266 -2.4685
16423TIP3    H270761   5.633   4.277   0.065 -1.4881  0.9080 -1.5645
16424TIP3   OH270762   6.001   3.734   3.791  0.3612  0.2030  0.2125
16424TIP3    H170763   5.972   3.787   3.717  1.1629  0.5430  0.1466
16424TIP3    H270764   6.017   3.797   3.861  0.1105 -0.0697  0.5185
16425TIP3   OH270765   5.557   4.473   3.093 -0.1273  0.2442  0.1247
16425TIP3    H170766   5.502   4.438   3.022  0.2996  3.7673 -2.0645
16425TIP3    H270767   5.646   4.457   3.064  0.0565 -0.9830  1.3271
16426TIP3   OH270768   3.935   5.755   2.870  0.2810 -0.1782 -0.3432
16426TIP3    H170769   3.870   5.684   2.871  0.4898 -0.3692 -0.4287
16426TIP3    H270770   3.903   5.815   2.802 -0.3112  0.1955  0.2558
16427TIP3   OH270771   0.834   1.208   3.431  0.6126  0.0236 -0.2356
16427TIP3    H170772   0.916   1.179   3.391 -1.8630 -1.9169 -4.1628
16427TIP3    H270773   0.808   1.135   3.488  1.2660  0.3249  0.4416
16428TIP3   OH270774   4.506   6.393  12.315  0.0050 -0.6642 -0.0617
16428TIP3    H170775   4.563   6.365  12.387  1.8361 -0.8592 -1.5497
16428TIP3    H270776   4.513   6.323  12.250 -2.0290 -0.7397 -0.2358
16429TIP3   OH270777   1.960   4.131   0.164  0.3255  0.1539 -0.1029
16429TIP3    H170778   2.018   4.091   0.230 -0.2666 -0.7717 -0.1278
16429TIP3    H270779   2.016   4.146   0.088  0.5694 -0.6069 -0.0761
16430TIP3   OH270780   4.413   4.292   1.509  0.5611 -0.1115 -0.1425
16430TIP3    H170781   4.492   4.294   1.562 -0.5585 -0.1594  1.5847
16430TIP3    H270782   4.387   4.384   1.501 -1.4348 -0.3774  2.7786
16431TIP3   OH270783   4.909   5.834   2.480  0.3083 -0.2854  0.3800
16431TIP3    H170784   4.978   5.820   2.544 -0.9383 -1.8961  1.4378
16431TIP3    H270785   4.929   5.774   2.409  0.6437  0.1028  0.1480
16432TIP3   OH270786   5.234   1.264   0.368 -0.3421 -0.1778  0.1808
16432TIP3    H170787   5.219   1.346   0.320 -2.3884  0.6217  2.0977
16432TIP3    H270788   5.177   1.201   0.324 -0.1775 -0.1185 -0.1243
16433TIP3   OH270789   3.150   1.097  12.084 -0.1807 -0.7472  0.1981
16433TIP3    H170790   3.222   1.159  12.076  0.3033 -1.2185  0.8597
16433TIP3    H270791   3.189   1.019  12.123 -1.4940 -0.1537  2.8758
16434TIP3   OH270792   4.895   6.182   4.041  0.1260 -0.2793  0.1356
16434TIP3    H170793   4.835   6.108   4.041  1.0891 -1.0684  0.3732
16434TIP3    H270794   4.884   6.221   4.128  1.9645 -2.1003  1.2449
16435TIP3   OH270795   3.486   4.478   2.324  0.1236 -0.3436 -0.0726
16435TIP3    H170796   3.543   4.514   2.393  0.1388  0.1480 -0.3366
16435TIP3    H270797   3.539   4.409   2.284  0.2815 -0.3424  0.1304
16436TIP3   OH270798   2.201   0.295   2.166 -0.2339  0.1543 -0.1792
16436TIP3    H170799   2.231   0.329   2.250  1.7906  0.6372 -1.0467
16436TIP3    H270800   2.215   0.200   2.172 -0.5032  0.1397  0.1939
16437TIP3   OH270801   4.344   0.223   4.344 -0.4996 -0.0946  0.2348
16437TIP3    H170802   4.329   0.206   4.251  0.3127 -0.9596  0.2486
16437TIP3    H270803   4.439   0.216   4.354 -0.4364  1.4713  0.8487
16438TIP3   OH270804   6.450   4.962   6.753 -0.3860  0.5415  0.5116
16438TIP3    H170805   6.419   4.907   6.825 -3.4746  0.6832 -0.6533
16438TIP3    H270806   6.396   5.041   6.757 -0.4630  0.6361 -1.8388
16439TIP3   OH270807   4.004   5.096  14.591  0.0121  0.7666  0.1337
16439TIP3    H170808   4.024   5.053  14.674  0.8545 -0.0799 -0.4967
16439TIP3    H270809   4.072   5.065  14.531 -0.7293  1.1786 -0.9361
16440TIP3   OH270810   4.515   4.488   3.913 -0.3625 -0.8930 -0.2152
16440TIP3    H170811   4.510   4.436   3.993  0.5786  0.6146  0.8574
16440TIP3    H270812   4.604   4.473   3.881  0.4106  1.1950  0.9079
16441TIP3   OH270813   6.466   0.574  13.238 -0.2900 -0.2705  0.2354
16441TIP3    H170814   6.530   0.529  13.292 -0.7974 -0.5021  0.6509
16441TIP3    H270815   6.412   0.623  13.300 -0.0360  0.5364 -0.1698
16442TIP3   OH270816   0.853   2.621   0.101  0.1104 -0.2725  0.0683
16442TIP3    H170817   0.900   2.541   0.079  0.7372  0.0539  0.2055
16442TIP3    H270818   0.806   2.600   0.182  0.9607 -0.2341  0.5795
16443TIP3   OH270819   4.190   3.264  14.654 -0.6272  0.1843  0.0331
16443TIP3    H170820   4.160   3.188  14.704 -1.8593  1.3105  1.0326
16443TIP3    H270821   4.278   3.282  14.689 -1.7637  1.4152  2.3723
16444TIP3   OH270822   1.495   2.468  11.051  0.9379 -0.6027  0.0909
16444TIP3    H170823   1.457   2.400  11.106 -0.9420 -1.4081 -2.1406
16444TIP3    H270824   1.493   2.432  10.962  0.1971  2.2197 -1.1017
16445TIP3   OH270825   0.375   5.371  16.986  0.3197  0.5207 -0.2500
16445TIP3    H170826   0.390   5.448  16.932  0.4495 -0.5651 -1.8165
16445TIP3    H270827   0.315   5.317  16.935  1.1513 -0.9450  0.2777
16446TIP3   OH270828   4.353   5.415  15.650 -0.6131 -0.0613 -0.5527
16446TIP3    H170829   4.418   5.406  15.581  0.2621  1.4329  0.0638
16446TIP3    H270830   4.327   5.507  15.647 -0.1639  0.1466  1.4489
16447TIP3   OH270831   6.204   1.584   2.061 -1.0375 -0.3152  0.3991
16447TIP3    H170832   6.154   1.605   1.982 -0.1809 -0.9489 -0.3095
16447TIP3    H270833   6.193   1.661   2.117 -0.0704  0.9517 -1.1186
16448TIP3   OH270834   5.631   1.342  12.327  0.2173 -0.8785  0.1301
16448TIP3    H170835   5.672   1.256  12.323 -0.0522 -1.0045  0.1364
16448TIP3    H270836   5.705   1.403  12.339  0.4344 -1.0762 -0.1907
16449TIP3   OH270837   6.816   0.241  13.579 -0.0588 -0.0812  0.7496
16449TIP3    H170838   6.875   0.220  13.651 -1.1499 -1.6874  1.2033
16449TIP3    H270839   6.873   0.261  13.505  1.0469 -0.4131  1.5035
16450TIP3   OH270840   5.957   2.433  11.090  0.1225 -0.0744 -0.0536
16450TIP3    H170841   5.934   2.452  11.181  0.5457 -0.6636  0.1825
16450TIP3    H270842   5.876   2.450  11.041  0.0455  0.7708  0.3530
16451TIP3   OH270843   1.513   5.453   0.620  0.2766  0.0243  0.7002
16451TIP3    H170844   1.586   5.391   0.623  0.5928  0.4400  1.8292
16451TIP3    H270845   1.506   5.486   0.710 -0.2613  1.1890  0.2398
16452TIP3   OH270846   0.108   4.350   5.875 -0.1958  0.1949  0.1547
16452TIP3    H170847   0.080   4.376   5.788 -0.6703 -0.5778  0.0725
16452TIP3    H270848   0.038   4.293   5.907  1.3263 -1.8854 -0.1168
16453TIP3   OH270849   4.111   6.536   0.713 -0.2853  0.4319  0.6550
16453TIP3    H170850   4.116   6.452   0.668 -2.4082  1.1264 -0.9149
16453TIP3    H270851   4.129   6.515   0.805 -0.6108 -1.7014  0.2394
16454TIP3   OH270852   6.724   1.938   3.775 -0.5627  0.6036 -0.2613
16454TIP3    H170853   6.639   1.951   3.733 -1.1342 -0.7954  0.4662
16454TIP3    H270854   6.717   1.854   3.820  1.6840 -0.2208 -1.3675
16455TIP3   OH270855   0.569   5.895   5.707 -0.1255  0.1998  0.6736
16455TIP3    H170856   0.538   5.808   5.731  2.5410 -1.2548 -0.9203
16455TIP3    H270857   0.627   5.920   5.779  0.4569 -0.0958  0.3112
16456TIP3   OH270858   5.405   5.362   5.748 -0.0913 -0.0829 -0.1994
16456TIP3    H170859   5.473   5.429   5.741  0.0427 -0.2732 -0.7172
16456TIP3    H270860   5.346   5.395   5.816 -0.0136  0.5453 -0.4350
16457TIP3   OH270861   6.474   5.582  11.805 -0.0686  0.3880 -0.2376
16457TIP3    H170862   6.446   5.593  11.896 -0.1503 -0.9455 -0.0923
16457TIP3    H270863   6.405   5.528  11.765  1.2343 -1.1730 -0.4254
16458TIP3   OH270864   3.508   0.683   2.919 -0.8555  0.0050  0.1029
16458TIP3    H170865   3.471   0.714   2.836 -1.0101 -0.7893 -0.1279
16458TIP3    H270866   3.566   0.611   2.894 -0.2286  0.3313  0.6030
16459TIP3   OH270867   2.178   1.545   0.979 -0.6303  0.0812 -0.4156
16459TIP3    H170868   2.104   1.595   1.014 -2.0370 -3.3481  1.7768
16459TIP3    H270869   2.149   1.517   0.893 -1.0205  0.5158 -0.4315
16460TIP3   OH270870   5.276   4.407  16.230 -1.1244  0.3631  0.1261
16460TIP3    H170871   5.207   4.473  16.240  0.8205  2.0477  2.9120
16460TIP3    H270872   5.300   4.384  16.320  2.3237  0.1874 -0.8013
16461TIP3   OH270873   3.776   5.564   2.006 -0.1169  0.2425  0.2834
16461TIP3    H170874   3.721   5.636   1.975  0.9319  0.2581 -1.6464
16461TIP3    H270875   3.761   5.494   1.942  0.9243 -0.2836  0.6033
16462TIP3   OH270876   3.290   3.423   0.207 -0.1931  0.1236 -0.1690
16462TIP3    H170877   3.312   3.332   0.186 -1.5503 -0.7036  1.8448
16462TIP3    H270878   3.371   3.458   0.246 -0.0264 -0.5493  0.0928
16463TIP3   OH270879   3.931   4.504   2.912  0.1656  0.2956 -0.0852
16463TIP3    H170880   4.003   4.514   2.974  1.5257  0.2215 -1.6447
16463TIP3    H270881   3.912   4.411   2.912  0.2631  0.2747  0.0950
16464TIP3   OH270882   2.066   1.929  15.169 -0.0673  0.0751 -0.2478
16464TIP3    H170883   2.040   2.021  15.178  1.3693  0.4665  0.0269
16464TIP3    H270884   2.003   1.882  15.223 -1.5438  0.7601 -1.3101
16465TIP3   OH270885   6.154   5.935   1.110  0.5631  0.1074 -0.1268
16465TIP3    H170886   6.126   5.871   1.175  1.0257  0.7636  0.7286
16465TIP3    H270887   6.125   5.898   1.026 -4.6190  1.6420  0.7932
16466TIP3   OH270888   2.443   4.493  15.231  0.1598  0.0480 -0.1668
16466TIP3    H170889   2.429   4.532  15.318 -2.0034  1.6293 -1.1950
16466TIP3    H270890   2.413   4.403  15.241 -1.0715  0.5082  0.4813
16467TIP3   OH270891   5.089   0.173  16.271 -0.0914 -0.3329  0.2592
16467TIP3    H170892   5.159   0.222  16.314 -0.5442  2.0579 -1.6360
16467TIP3    H270893   5.008   0.206  16.311 -0.2979 -1.0084  0.4082
16468TIP3   OH270894   6.431   2.526   4.938 -0.3439  0.4864 -0.3310
16468TIP3    H170895   6.373   2.515   4.862 -1.4469  0.0538  0.5639
16468TIP3    H270896   6.381   2.580   4.999 -0.4159 -1.1200  1.0704
16469TIP3   OH270897   0.003   6.478   0.393  0.0928 -0.0943 -0.1936
16469TIP3    H170898  -0.080   6.509   0.429 -0.0391  0.0863 -0.6474
16469TIP3    H270899   0.029   6.407   0.451  0.1685  0.5728  0.5817
16470TIP3   OH270900   6.415   3.962  16.846  0.0828 -0.0967  0.6122
16470TIP3    H170901   6.423   4.045  16.798  1.8729  0.2724  1.4978
16470TIP3    H270902   6.325   3.963  16.880 -0.3456  0.8541 -0.4985
16471TIP3   OH270903   3.910   2.216   0.980 -0.3301 -0.3903  0.2660
16471TIP3    H170904   3.917   2.130   0.938  2.5745  0.7048 -1.6665
16471TIP3    H270905   3.857   2.268   0.920  1.5188  0.3708 -0.7632
16472TIP3   OH270906   0.944   4.609  11.248 -0.2454 -0.0769 -0.3982
16472TIP3    H170907   0.920   4.627  11.338 -0.1321  0.6369 -0.5011
16472TIP3    H270908   0.919   4.688  11.200  0.2895 -0.1869 -0.8733
16473TIP3   OH270909   0.809   1.435  12.689 -0.0348 -0.5144 -0.5119
16473TIP3    H170910   0.860   1.494  12.745 -3.3629  0.7758  1.3526
16473TIP3    H270911   0.795   1.357  12.743 -2.0177  0.1340 -0.0463
16474TIP3   OH270912   3.399   0.019   4.634  0.6162 -0.3355 -0.1814
16474TIP3    H170913   3.364   0.011   4.723 -2.1197  0.9554 -1.0908
16474TIP3    H270914   3.494   0.013   4.646  0.2370 -1.9920  2.5989
16475TIP3   OH270915   0.125   6.722   4.964  0.4097  0.5541 -0.4706
16475TIP3    H170916   0.170   6.662   4.904  1.6720  1.7263 -0.7278
16475TIP3    H270917   0.181   6.725   5.041  0.5316  1.6584 -0.5969
16476TIP3   OH270918   6.816   2.408  11.457 -0.0170 -0.5226 -0.3948
16476TIP3    H170919   6.722   2.419  11.471 -0.0548 -0.9037 -0.3365
16476TIP3    H270920   6.842   2.485  11.408 -0.2069 -0.0178  0.2985
16477TIP3   OH270921   2.375   5.890   1.881  0.4591 -0.2247 -0.0250
16477TIP3    H170922   2.416   5.904   1.966  0.3168  2.5962 -0.3937
16477TIP3    H270923   2.304   5.953   1.877  0.2320 -0.5684 -2.0919
16478TIP3   OH270924   4.788   3.570   3.684  0.0912  0.1130 -0.6919
16478TIP3    H170925   4.755   3.558   3.595  2.1235 -2.3201 -1.1720
16478TIP3    H270926   4.775   3.485   3.726 -1.3540  1.4035  1.5285
16479TIP3   OH270927   0.215   1.100   5.106 -0.0598  0.2631 -0.0839
16479TIP3    H170928   0.274   1.172   5.130 -0.0750  0.5027 -0.7718
16479TIP3    H270929   0.254   1.061   5.029 -0.8689  0.5010 -0.6210
16480TIP3   OH270930   5.956   6.106  14.626 -0.2892  0.0388 -0.4055
16480TIP3    H170931   5.900   6.174  14.663  1.2904  1.1999 -0.0832
16480TIP3    H270932   5.979   6.050  14.700 -0.9314 -0.3665 -0.5149
16481TIP3   OH270933   0.729   5.326  16.929  0.3113  0.2089 -0.0667
16481TIP3    H170934   0.685   5.347  17.012  1.6990  1.8111  0.2956
16481TIP3    H270935   0.820   5.308  16.954  0.8417  1.1287 -1.2838
16482TIP3   OH270936   6.400   2.681   1.692 -0.5023  0.0080 -0.0656
16482TIP3    H170937   6.449   2.612   1.646 -1.5365 -1.5296  1.0872
16482TIP3    H270938   6.468   2.734   1.734  0.3620  0.3287 -1.8227
16483TIP3   OH270939   5.565   4.556  13.825 -0.3725  0.8854 -0.5051
16483TIP3    H170940   5.588   4.648  13.811 -0.0971  0.8005 -0.6034
16483TIP3    H270941   5.617   4.530  13.901 -2.1612  1.4697  0.9784
16484TIP3   OH270942   4.219   1.630   2.136  0.5098 -0.1456  0.4609
16484TIP3    H170943   4.262   1.547   2.159 -0.4105 -0.7313  0.0778
16484TIP3    H270944   4.165   1.609   2.060 -0.6784  0.5220  1.1093
16485TIP3   OH270945   2.620   4.506   4.893  0.3878 -0.1239  0.1685
16485TIP3    H170946   2.693   4.566   4.902  0.1629  0.4934 -1.9009
16485TIP3    H270947   2.638   4.458   4.812 -1.7716  0.4621 -0.7066
16486TIP3   OH270948   0.576   0.376  12.276  0.0475  0.0434 -0.1039
16486TIP3    H170949   0.563   0.343  12.188  0.0924 -2.3895  0.7708
16486TIP3    H270950   0.669   0.365  12.293  0.1351  0.9791  0.0884
16487TIP3   OH270951   0.773   6.210   2.759  0.2980  0.0403  0.2588
16487TIP3    H170952   0.846   6.250   2.711 -1.0752  2.8972  0.4433
16487TIP3    H270953   0.804   6.206   2.849  0.2993  1.1423  0.3186
16488TIP3   OH270954   0.924   0.379   5.793  0.0887 -0.6132  0.5351
16488TIP3    H170955   0.972   0.435   5.732 -1.3163  0.8188  0.7238
16488TIP3    H270956   0.921   0.294   5.749  1.8917 -0.4562  0.0717
16489TIP3   OH270957   3.897   5.834  15.420  0.4375  0.3893 -0.6675
16489TIP3    H170958   3.841   5.906  15.390 -0.1401 -0.4047 -1.5284
16489TIP3    H270959   3.840   5.758  15.421  0.5024  0.3135  2.2563
16490TIP3   OH270960   3.502   2.890  16.095 -0.3212  0.3088 -0.3104
16490TIP3    H170961   3.524   2.906  16.187  0.3243  1.8919 -0.7212
16490TIP3    H270962   3.422   2.939  16.081 -0.4092  0.0796 -0.6007
16491TIP3   OH270963   5.171   2.947   1.770  0.0112  0.2797 -0.0132
16491TIP3    H170964   5.180   3.025   1.715 -0.2029 -0.3233 -0.9161
16491TIP3    H270965   5.133   2.881   1.712 -0.9390 -0.1390  1.0857
16492TIP3   OH270966   6.227   2.439  15.739  0.3140  0.9416  0.2520
16492TIP3    H170967   6.190   2.352  15.725  1.0806  0.8011 -0.9937
16492TIP3    H270968   6.322   2.425  15.736  0.4426  1.7357  0.5598
16493TIP3   OH270969   1.765   0.963   4.759 -0.3217  0.1075 -0.2575
16493TIP3    H170970   1.695   0.953   4.823  0.0357 -0.4329  0.0532
16493TIP3    H270971   1.814   1.041   4.788 -0.6059  0.3028 -0.3008
16494TIP3   OH270972   2.220   2.759  12.436 -0.2598  0.9265 -0.4000
16494TIP3    H170973   2.256   2.839  12.398  0.2437  1.0616  0.3512
16494TIP3    H270974   2.254   2.689  12.380  0.9182  1.0807  0.1202
16495TIP3   OH270975   0.699   6.690  14.956  0.2465  0.3022 -0.4883
16495TIP3    H170976   0.715   6.599  14.980 -0.5573 -0.0528 -1.2969
16495TIP3    H270977   0.732   6.698  14.866  1.7882  1.2315  0.1220
16496TIP3   OH270978   0.699   4.336   1.945 -0.1874 -0.3618  0.3409
16496TIP3    H170979   0.647   4.257   1.961  0.7649 -0.8224  1.1743
16496TIP3    H270980   0.635   4.401   1.917 -1.0726 -1.2322  0.3178
16497TIP3   OH270981   1.055   4.092   3.172 -0.5229 -0.3870  0.8874
16497TIP3    H170982   1.070   4.040   3.251 -0.6575 -0.3934  0.9101
16497TIP3    H270983   0.970   4.062   3.139  0.4692 -1.8078 -0.4064
16498TIP3   OH270984   2.640   2.393   3.336  0.1512  0.3884  0.1600
16498TIP3    H170985   2.699   2.414   3.264  0.7733 -0.1553  0.4959
16498TIP3    H270986   2.685   2.426   3.414  0.9266 -1.6744  0.6438
16499TIP3   OH270987   6.790   4.627  16.439  0.4636  0.1005  0.3161
16499TIP3    H170988   6.797   4.533  16.455  1.7265 -0.0583 -1.1075
16499TIP3    H270989   6.755   4.634  16.350  1.1027  0.9684  0.1268
16500TIP3   OH270990   2.527   6.609  16.293 -0.1839 -0.5193 -0.0867
16500TIP3    H170991   2.458   6.543  16.286 -0.3942 -0.1162 -2.1947
16500TIP3    H270992   2.572   6.588  16.375 -1.4645 -2.0825  0.2481
16501TIP3   OH270993   6.124   0.425  11.378  0.2822  0.0303  0.5046
16501TIP3    H170994   6.129   0.475  11.297  0.8772  1.3198  1.3233
16501TIP3    H270995   6.046   0.371  11.368  0.9495 -0.6070 -1.3645
16502TIP3   OH270996   1.854   1.532   1.832 -0.4129  0.6382  0.4910
16502TIP3    H170997   1.821   1.454   1.878  0.5663  0.3404  0.6900
16502TIP3    H270998   1.945   1.540   1.860  0.0428  0.7609 -1.0009
16503TIP3   OH270999   0.937   4.042  12.280 -0.0423  0.3858  0.0591
16503TIP3    H171000   0.843   4.049  12.264  0.3383  1.5683 -1.8484
16503TIP3    H271001   0.966   3.974  12.219 -0.2302 -2.9472  3.4390
16504TIP3   OH271002   3.566   5.120   3.120 -0.2415  0.4747 -0.5221
16504TIP3    H171003   3.629   5.061   3.079 -0.6258  0.2685 -0.8196
16504TIP3    H271004   3.490   5.119   3.062 -1.1277 -0.4771  0.6154
16505TIP3   OH271005   4.951   6.663  14.430 -0.3787 -0.3667 -0.5897
16505TIP3    H171006   4.994   6.689  14.348 -0.5918 -1.1317 -0.9571
16505TIP3    H271007   4.980   6.572  14.443  1.2454  0.3845  1.2333
16506TIP3   OH271008   6.080   1.009   4.735  0.5660  0.3978  0.6422
16506TIP3    H171009   6.121   0.967   4.659 -0.5143 -1.7511  1.2387
16506TIP3    H271010   5.989   1.021   4.709  0.4774  0.8143  1.1448
16507TIP3   OH271011   2.529   1.794   5.583 -0.0593 -0.1001 -0.0243
16507TIP3    H171012   2.523   1.705   5.546  0.3692 -0.2719  0.3187
16507TIP3    H271013   2.538   1.851   5.506 -1.3178 -0.2566 -0.3092
16508TIP3   OH271014   5.509   6.552   3.244 -0.5998 -0.4680  0.1084
16508TIP3    H171015   5.431   6.498   3.257 -0.7815 -0.5017 -1.0965
16508TIP3    H271016   5.538   6.532   3.155  0.2977  0.1746  0.2467
16509TIP3   OH271017   5.999   2.659  12.451  0.1855  0.0790  0.1336
16509TIP3    H171018   6.052   2.669  12.530 -1.4592  1.0399  1.1465
16509TIP3    H271019   5.954   2.575  12.462  0.1089  0.1205  0.1468
16510TIP3   OH271020   2.972   3.782  13.157 -0.2860  0.4771 -0.0793
16510TIP3    H171021   3.002   3.772  13.067  0.1737 -0.5229  0.1698
16510TIP3    H271022   3.052   3.792  13.208 -0.5417  1.0122  0.2263
16511TIP3   OH271023   2.713   3.820  16.170 -0.1708  0.3896  0.1947
16511TIP3    H171024   2.631   3.797  16.213 -0.8018  3.4248  0.7138
16511TIP3    H271025   2.777   3.824  16.241  0.2861 -1.2313 -0.1084
16512TIP3   OH271026   1.631   5.077  11.412 -0.0591  0.3072  0.4735
16512TIP3    H171027   1.671   5.079  11.325  1.1778 -1.9721  0.9467
16512TIP3    H271028   1.590   4.990  11.418 -1.4246  1.0087  1.6122
16513TIP3   OH271029   6.346   0.846   1.320 -0.7053 -0.5268 -0.1360
16513TIP3    H171030   6.278   0.850   1.387  0.9833 -0.3161  1.6151
16513TIP3    H271031   6.342   0.931   1.276 -0.7230 -0.0485  0.7997
16514TIP3   OH271032   3.070   4.356  16.836 -0.3854 -0.0663  0.0376
16514TIP3    H171033   3.109   4.331  16.919 -2.4500 -1.0218  0.7713
16514TIP3    H271034   3.139   4.403  16.790  2.2031 -3.1768  0.5320
16515TIP3   OH271035   2.764   5.679   2.818 -0.2799  0.1262  0.2291
16515TIP3    H171036   2.771   5.617   2.891 -2.5318  0.2291  0.5688
16515TIP3    H271037   2.736   5.625   2.744 -0.8334  0.4837  0.1725
16516TIP3   OH271038   1.600   1.431  10.948 -0.8478 -0.7649  0.3023
16516TIP3    H171039   1.526   1.371  10.961  0.6442 -2.7041  0.1385
16516TIP3    H271040   1.642   1.400  10.868 -0.3247  0.8311 -0.0499
16517TIP3   OH271041   4.811   0.670   1.492  0.1084 -0.5030 -0.5076
16517TIP3    H171042   4.720   0.685   1.518 -0.4242 -2.1083 -1.3547
16517TIP3    H271043   4.810   0.672   1.397  0.8813 -0.9255 -0.5325
16518TIP3   OH271044   5.611   2.937   1.595  0.2138 -0.2760 -0.4836
16518TIP3    H171045   5.632   2.870   1.660 -0.6444 -0.6752 -0.6100
16518TIP3    H271046   5.676   2.925   1.525  0.8953 -0.0960  0.1191
16519TIP3   OH271047   3.381   6.795   2.188 -0.6645  0.3517  0.2113
16519TIP3    H171048   3.425   6.815   2.271 -0.2253 -0.4140  0.1742
16519TIP3    H271049   3.388   6.700   2.181 -0.3557  0.4507 -0.8938
16520TIP3   OH271050   3.205   3.112   0.652 -0.3354  0.1296 -0.1475
16520TIP3    H171051   3.273   3.046   0.665 -0.6780 -0.0098  0.9302
16520TIP3    H271052   3.162   3.121   0.737 -1.6490  0.2366 -0.7929
16521TIP3   OH271053   3.939   5.930  11.124 -0.1161  0.3429 -0.2832
16521TIP3    H171054   3.906   5.888  11.044  0.1010 -0.3521 -0.0090
16521TIP3    H271055   3.999   5.998  11.092  0.9235 -0.7529 -0.6700
16522TIP3   OH271056   0.289   5.899  12.215 -0.0123 -0.1438 -0.2741
16522TIP3    H171057   0.311   5.992  12.214 -0.7545  0.0630  1.1677
16522TIP3    H271058   0.251   5.882  12.129  0.8165  0.7106 -0.8163
16523TIP3   OH271059   1.695   3.841   2.776 -0.7250 -0.1514 -0.0437
16523TIP3    H171060   1.662   3.872   2.691  0.4576 -0.2520 -0.5440
16523TIP3    H271061   1.776   3.795   2.755  1.1213  2.3415  1.4522
16524TIP3   OH271062   1.629   2.738  11.217 -0.3872 -0.3360  0.2700
16524TIP3    H171063   1.662   2.822  11.250 -1.3567 -0.6375  2.0426
16524TIP3    H271064   1.540   2.757  11.189 -0.8454 -0.9352  1.3269
16525TIP3   OH271065   2.125   2.589  16.416 -0.2799 -0.0829  0.2641
16525TIP3    H171066   2.119   2.595  16.512  0.7110 -1.3262  0.4182
16525TIP3    H271067   2.204   2.639  16.394 -0.9341  0.8565  0.0068
16526TIP3   OH271068   3.832   5.261   5.102  0.1791 -0.0430 -0.0329
16526TIP3    H171069   3.851   5.168   5.088  1.2758  0.0270  0.9032
16526TIP3    H271070   3.859   5.303   5.020 -1.6630 -0.7111 -1.0037
16527TIP3   OH271071   0.032   5.439  13.460  0.0593  0.4350  0.4705
16527TIP3    H171072   0.002   5.511  13.405 -1.1011 -1.2847 -1.1959
16527TIP3    H271073   0.093   5.390  13.405 -0.6784 -0.9801  0.8862
16528TIP3   OH271074   5.887   0.508  16.028  0.4732 -1.1872  1.3340
16528TIP3    H171075   5.797   0.499  15.997  0.2318  0.1699  1.5952
16528TIP3    H271076   5.922   0.419  16.027 -1.1549 -1.8597  2.1057
16529TIP3   OH271077   1.020   1.815   0.358 -0.0441 -0.1210  0.0171
16529TIP3    H171078   1.115   1.824   0.365 -0.0650  0.6707 -0.6784
16529TIP3    H271079   1.006   1.723   0.334  0.5575 -0.1408 -0.2643
16530TIP3   OH271080   2.459   3.106   3.750  0.3102 -0.0287 -0.1355
16530TIP3    H171081   2.380   3.068   3.787  0.2853  0.5389  0.3950
16530TIP3    H271082   2.521   3.107   3.823  0.9533 -0.8813 -0.6572
16531TIP3   OH271083   4.889   4.091   3.351 -0.2029 -0.1508  0.2589
16531TIP3    H171084   4.911   4.058   3.264  0.2743  0.2959  0.2060
16531TIP3    H271085   4.827   4.162   3.335  0.0396  0.0630  0.2722
16532TIP3   OH271086   1.983   0.603   3.839  0.3294 -0.1754 -0.3625
16532TIP3    H171087   2.046   0.618   3.768 -0.0960 -0.2831 -0.7623
16532TIP3    H271088   1.939   0.522   3.815  1.0935 -0.9105  0.6853
16533TIP3   OH271089   6.004   1.833  15.966  0.7518  0.2735 -0.2696
16533TIP3    H171090   5.976   1.923  15.981  0.2844 -0.1479  1.4601
16533TIP3    H271091   6.098   1.834  15.984  0.4766  0.1033  1.1830
16534TIP3   OH271092   2.014   4.567  13.596 -0.4719 -0.4066  0.4232
16534TIP3    H171093   2.052   4.480  13.589  0.3600 -0.1743  1.7587
16534TIP3    H271094   1.928   4.553  13.635 -0.9574 -0.7633 -0.7706
16535TIP3   OH271095   3.228   6.653   2.440  0.0153  0.0525 -0.0933
16535TIP3    H171096   3.254   6.744   2.450  0.0803 -0.2412  3.1955
16535TIP3    H271097   3.155   6.642   2.501 -0.2187 -2.0144 -0.6902
16536TIP3   OH271098   3.049   0.228   5.381 -0.8819  0.5460  0.4996
16536TIP3    H171099   3.053   0.323   5.380 -1.8049  0.5852  0.1288
16536TIP3    H271100   3.045   0.205   5.474  0.7046  0.7967  0.6439
16537TIP3   OH271101   0.584   4.899  16.739  0.3142 -0.1226  0.3292
16537TIP3    H171102   0.551   4.811  16.721  1.5197 -0.3326 -0.9247
16537TIP3    H271103   0.538   4.955  16.676 -0.9009  0.2449  1.5269
16538TIP3   OH271104   1.744   1.730  16.354  0.0301 -0.0334 -0.4828
16538TIP3    H171105   1.733   1.667  16.425 -1.9122 -1.4097 -1.9732
16538TIP3    H271106   1.659   1.773  16.347  0.6980  1.2370 -0.9086
16539TIP3   OH271107   2.041   1.063   2.613  0.3642  0.8686 -0.3458
16539TIP3    H171108   2.099   1.115   2.669  0.7012 -1.2377  1.3385
16539TIP3    H271109   1.982   1.019   2.675 -0.7646  0.3095 -1.8142
16540TIP3   OH271110   6.682   3.706  12.834  0.6364  0.0395 -0.9011
16540TIP3    H171111   6.763   3.735  12.790  1.6663 -0.2729  0.7531
16540TIP3    H271112   6.616   3.768  12.804  1.3634 -0.0180 -2.6999
16541TIP3   OH271113   6.443   3.763  14.560 -0.1617  0.0454 -0.0945
16541TIP3    H171114   6.437   3.745  14.654 -1.3501 -0.1312 -0.1983
16541TIP3    H271115   6.406   3.850  14.550  0.8737  0.4672 -0.2748
16542TIP3   OH271116   1.079   5.581   5.678 -0.1134 -0.2308 -0.3088
16542TIP3    H171117   1.128   5.660   5.654 -0.5206  0.0608 -0.1914
16542TIP3    H271118   0.987   5.607   5.672 -0.2300 -0.2573  1.1976
16543TIP3   OH271119   4.260   3.118  11.853  0.5489 -0.3808 -0.2028
16543TIP3    H171120   4.330   3.139  11.793  1.1431 -0.3804  0.4783
16543TIP3    H271121   4.195   3.187  11.841  0.2782 -0.8352 -1.4285
16544TIP3   OH271122   4.625   5.041   6.189 -0.3274 -0.1665 -0.2706
16544TIP3    H171123   4.553   5.102   6.200  0.6585  0.7411  1.3419
16544TIP3    H271124   4.620   4.983   6.264  0.4906 -0.2337 -0.2643
16545TIP3   OH271125   3.814   5.080  17.201 -0.0987  0.1591 -0.5889
16545TIP3    H171126   3.757   5.155  17.216 -1.3900 -1.1745  1.2790
16545TIP3    H271127   3.898   5.105  17.241 -0.2101  0.9846 -0.8568
16546TIP3   OH271128   2.515   2.196   5.439 -0.4610 -0.2983  0.1000
16546TIP3    H171129   2.455   2.182   5.513  0.5270 -0.1427  0.9305
16546TIP3    H271130   2.478   2.271   5.393 -3.1587 -2.5745 -1.7015
16547TIP3   OH271131   4.636   3.941   1.081  0.3397  0.6088  0.0523
16547TIP3    H171132   4.596   3.888   1.150  1.6622 -1.1797 -0.5260
16547TIP3    H271133   4.652   4.026   1.122  2.3972 -0.8658  2.4100
16548TIP3   OH271134   1.391   2.776   5.398 -0.1842 -0.0902 -0.3228
16548TIP3    H171135   1.331   2.799   5.469 -0.3754 -1.3966 -0.0579
16548TIP3    H271136   1.381   2.847   5.334 -1.3431  0.1645  0.1288
16549TIP3   OH271137   5.802   3.965  12.108  0.2528 -0.2545 -0.2287
16549TIP3    H171138   5.751   4.044  12.128  0.0141 -0.4648 -0.0048
16549TIP3    H271139   5.784   3.947  12.016  1.9677  1.1673 -0.8577
16550TIP3   OH271140   0.739   4.888  15.264 -0.4374 -0.7214  0.4171
16550TIP3    H171141   0.812   4.911  15.206 -0.4456 -1.4181  0.1287
16550TIP3    H271142   0.684   4.966  15.265 -0.1845 -0.5328 -0.1226
16551TIP3   OH271143   0.936   1.072   3.839 -0.2081 -0.3396  0.1816
16551TIP3    H171144   0.882   1.038   3.768  1.8487 -0.4967 -1.3356
16551TIP3    H271145   0.945   0.998   3.900  1.8811 -1.6737 -1.7019
16552TIP3   OH271146   5.934   5.058  10.867  0.0205 -0.0727 -0.4812
16552TIP3    H171147   6.015   5.014  10.843  0.3888  1.9438 -3.2016
16552TIP3    H271148   5.917   5.119  10.794 -2.9868  0.7994  0.8547
16553TIP3   OH271149   1.422   3.681  17.194 -0.1530  0.2020  0.6925
16553TIP3    H171150   1.510   3.700  17.226 -0.2521  0.3404  0.8840
16553TIP3    H271151   1.393   3.763  17.155 -0.1144  0.0941  0.4330
16554TIP3   OH271152   4.510   3.656   4.043 -0.1683 -0.0500 -0.1445
16554TIP3    H171153   4.453   3.585   4.014 -2.7639  1.8851  0.0213
16554TIP3    H271154   4.506   3.653   4.139 -0.3043  0.3332 -0.1379
16555TIP3   OH271155   5.243   5.102   0.180  0.6877 -0.2322 -0.4047
16555TIP3    H171156   5.245   5.140   0.268  1.5533 -1.2482  0.0306
16555TIP3    H271157   5.250   5.007   0.195 -0.9080 -0.5451 -1.4849
16556TIP3   OH271158   1.948   3.523   4.401 -0.1228 -0.1538 -0.5519
16556TIP3    H171159   2.042   3.537   4.414 -0.0958 -0.3044 -0.5885
16556TIP3    H271160   1.942   3.462   4.328 -0.2603  0.1596 -0.8050
16557TIP3   OH271161   1.546   0.196  14.063 -0.3338 -0.0749  0.3699
16557TIP3    H171162   1.482   0.189  13.992  1.4997 -1.1094 -1.2492
16557TIP3    H271163   1.567   0.105  14.085  1.1522  0.2364  0.3199
16558TIP3   OH271164   0.091   0.958   0.032 -0.6698  0.0677  0.4342
16558TIP3    H171165   0.176   0.967   0.076 -0.1271  0.0898 -0.6020
16558TIP3    H271166   0.066   0.867   0.048 -0.3509  0.0009  0.5602
16559TIP3   OH271167   3.704   4.041  16.620 -0.0790  0.0570  0.1845
16559TIP3    H171168   3.710   3.966  16.679 -1.4528  0.3989  0.7905
16559TIP3    H271169   3.749   4.111  16.667  0.7689 -0.2425 -0.1635
16560TIP3   OH271170   0.347   3.273   5.067 -0.0800  0.2208  0.0733
16560TIP3    H171171   0.354   3.364   5.038 -0.0380  0.6762  1.4498
16560TIP3    H271172   0.350   3.278   5.163 -0.9365 -1.1578  0.1922
16561TIP3   OH271173   4.337   2.316  17.108 -0.4072 -0.4946  0.4786
16561TIP3    H171174   4.245   2.321  17.136 -0.6869  2.8142 -0.8207
16561TIP3    H271175   4.371   2.404  17.123  2.0865 -1.2263 -0.7102
16562TIP3   OH271176   6.376   3.925  13.070 -0.1395 -0.1268  0.3587
16562TIP3    H171177   6.378   3.951  12.978 -0.5283  1.1812  0.7067
16562TIP3    H271178   6.295   3.963  13.104  0.4007  0.0826  1.4390
16563TIP3   OH271179   1.546   5.218  11.017 -0.4270  0.4706  0.0684
16563TIP3    H171180   1.477   5.158  11.046 -1.1913  0.7666 -1.1016
16563TIP3    H271181   1.543   5.289  11.080 -1.9251  0.9963 -0.5651
16564TIP3   OH271182   5.985   5.898  16.179  0.0786 -0.2334 -0.4078
16564TIP3    H171183   5.985   5.822  16.238  0.5523  0.7552  0.8964
16564TIP3    H271184   6.073   5.898  16.140  1.2827  1.5383  2.1456
16565TIP3   OH271185   2.872   3.232   5.243 -0.2408  0.5944  0.7645
16565TIP3    H171186   2.782   3.210   5.222 -0.5508  0.8611  1.7861
16565TIP3    H271187   2.898   3.168   5.310  0.3195  0.5237  0.4852
16566TIP3   OH271188   4.751   6.810   6.235 -0.2484  0.3056 -0.0443
16566TIP3    H171189   4.777   6.750   6.305 -0.7730 -0.5014 -0.5289
16566TIP3    H271190   4.703   6.880   6.280 -0.4193 -0.1054  0.4229
16567TIP3   OH271191   5.578   0.150   1.267  0.0704 -0.3889  0.2970
16567TIP3    H171192   5.509   0.094   1.231 -0.5299  1.0140 -0.7513
16567TIP3    H271193   5.658   0.120   1.225  0.1697 -2.2012  1.7091
16568TIP3   OH271194   1.084   4.899   6.042  0.3886 -0.8859  0.4775
16568TIP3    H171195   1.168   4.944   6.057 -1.5913  2.7434  1.2134
16568TIP3    H271196   1.063   4.860   6.126 -0.1501  0.9257  1.2142
16569TIP3   OH271197   6.656   3.923  12.644  0.1148 -0.0953 -0.3875
16569TIP3    H171198   6.632   3.976  12.568  1.8110  0.2731 -0.6922
16569TIP3    H271199   6.751   3.929  12.648  0.2120 -1.7991  0.5405
16570TIP3   OH271200   6.037   1.826   6.927 -0.6669 -1.2721 -0.0338
16570TIP3    H171201   6.080   1.844   6.843  0.3543 -3.6359 -0.0601
16570TIP3    H271202   6.096   1.864   6.993  0.7731 -3.2241 -0.1573
16571TIP3   OH271203   4.679   1.930   0.341  0.1898  0.4901  0.3200
16571TIP3    H171204   4.697   1.871   0.268 -0.1021 -3.1992  3.0654
16571TIP3    H271205   4.584   1.938   0.343  0.2906  2.3834 -0.9709
16572TIP3   OH271206   1.898   1.127  12.053 -0.1194 -0.1129 -0.3768
16572TIP3    H171207   1.943   1.083  12.125  0.5383 -0.1850 -0.8240
16572TIP3    H271208   1.876   1.213  12.088 -0.4291 -0.4018  0.1426
16573TIP3   OH271209   3.348   2.084   4.747  0.5310 -0.7145 -0.1033
16573TIP3    H171210   3.357   2.035   4.666 -1.3347 -0.1403 -0.6786
16573TIP3    H271211   3.377   2.172   4.726  2.3718 -1.1428  0.5181
16574TIP3   OH271212   1.363   6.205   3.136  0.0308  0.0855  0.0080
16574TIP3    H171213   1.435   6.234   3.193 -0.7520  1.3887  0.3750
16574TIP3    H271214   1.299   6.276   3.142  0.0549  0.3619 -2.7340
16575TIP3   OH271215   0.495   0.619   4.684 -0.2997 -0.1670  0.5359
16575TIP3    H171216   0.516   0.687   4.748 -2.1288  0.1754  0.8053
16575TIP3    H271217   0.559   0.631   4.613 -1.6030  2.8729 -0.1827
16576TIP3   OH271218   4.030   4.937  11.684  0.1508 -0.7654  0.0753
16576TIP3    H171219   3.954   4.880  11.678 -1.3136  1.1653 -0.4417
16576TIP3    H271220   3.993   5.026  11.680  2.3804  0.2020  0.4267
16577TIP3   OH271221   1.258   3.867   1.150  0.0570 -0.3419 -0.0851
16577TIP3    H171222   1.188   3.804   1.165 -0.7115  0.6531  0.5620
16577TIP3    H271223   1.334   3.828   1.193 -0.6542 -0.3738  1.1816
16578TIP3   OH271224   5.902   4.742  15.966 -0.1870  0.4298  0.1651
16578TIP3    H171225   5.990   4.781  15.961  0.1689 -0.2349  1.0510
16578TIP3    H271226   5.854   4.800  16.024 -0.7305  1.4946 -1.2987
16579TIP3   OH271227   2.276   2.858   0.277 -0.4065  0.1156  0.5130
16579TIP3    H171228   2.347   2.837   0.337 -0.5983 -1.3028  0.2551
16579TIP3    H271229   2.200   2.811   0.311  0.0836 -2.8100 -2.2488
16580TIP3   OH271230   4.303   2.083  14.731 -0.4506  1.1975  0.1723
16580TIP3    H171231   4.268   2.128  14.808 -2.6515 -1.8042  1.0208
16580TIP3    H271232   4.238   2.097  14.663 -1.4637 -1.1087  0.6192
16581TIP3   OH271233   1.104   0.919   3.432 -0.4389 -0.4273 -0.0541
16581TIP3    H171234   1.036   0.947   3.492  2.2061  1.8604  1.9807
16581TIP3    H271235   1.168   0.873   3.487  2.3618  2.2902 -0.8901
16582TIP3   OH271236   3.029   2.398  11.938 -0.2050 -0.1631  0.7850
16582TIP3    H171237   3.009   2.487  11.909  1.1153  0.4716  1.7947
16582TIP3    H271238   2.945   2.364  11.970 -0.9090  0.3802 -0.4577
16583TIP3   OH271239   5.918   6.483  15.652 -0.4669 -0.3684  0.1369
16583TIP3    H171240   5.986   6.416  15.660 -0.7485 -0.7238 -0.4145
16583TIP3    H271241   5.924   6.534  15.733  0.2816 -0.5620  0.2023
16584TIP3   OH271242   3.110   5.436  16.849  0.2307  0.0570  0.1277
16584TIP3    H171243   3.109   5.466  16.758 -0.7457  0.0287  0.1193
16584TIP3    H271244   3.184   5.481  16.889  1.7836 -1.3281 -1.1388
16585TIP3   OH271245   1.508   1.460   3.593  0.3558 -0.0883  0.1493
16585TIP3    H171246   1.486   1.528   3.529  2.6694  0.4403 -0.1381
16585TIP3    H271247   1.540   1.387   3.541  2.7323  0.5282  0.6641
16586TIP3   OH271248   6.815   1.664   5.802  0.1661 -0.3527  0.2889
16586TIP3    H171249   6.871   1.683   5.877  0.2754 -0.6945  0.2975
16586TIP3    H271250   6.823   1.741   5.746  0.1581 -0.1358  0.5813
16587TIP3   OH271251   5.004   4.906   4.626 -0.4282 -0.2138  0.4127
16587TIP3    H171252   5.041   4.844   4.689 -0.0994 -0.5383 -0.0955
16587TIP3    H271253   4.929   4.945   4.671 -0.1875 -0.4363  1.0070
16588TIP3   OH271254   1.544   3.960   3.282  0.0623  0.0962 -0.0670
16588TIP3    H171255   1.573   4.051   3.279  2.3233 -0.6049 -1.7979
16588TIP3    H271256   1.536   3.935   3.189 -1.3707 -1.2060  0.3906
16589TIP3   OH271257   6.585   4.632  12.828  0.5819 -0.0342 -0.6352
16589TIP3    H171258   6.672   4.667  12.807  0.1934  1.4267  0.0874
16589TIP3    H271259   6.557   4.587  12.748  1.5007  0.5122 -1.2747
16590TIP3   OH271260   5.856   1.465  11.586  0.1081  0.2422  0.1174
16590TIP3    H171261   5.826   1.520  11.513 -0.5647 -0.1161  0.1229
16590TIP3    H271262   5.889   1.386  11.544  1.2136  0.6994  0.1001
16591TIP3   OH271263   3.021   3.359   3.747  0.0478 -0.2440 -0.2386
16591TIP3    H171264   2.989   3.269   3.746 -1.3612  0.2459 -0.2466
16591TIP3    H271265   3.001   3.393   3.659 -2.7595  1.2043  0.8980
16592TIP3   OH271266   6.773   2.713  16.613 -0.5638 -0.0129 -0.0143
16592TIP3    H171267   6.784   2.794  16.664  1.8169 -0.3595  0.0967
16592TIP3    H271268   6.769   2.743  16.522  0.5861  0.2457  0.0029
16593TIP3   OH271269   6.153   3.673   6.338 -0.1043  0.0993  0.6545
16593TIP3    H171270   6.100   3.752   6.349 -1.7006 -0.6850 -1.0629
16593TIP3    H271271   6.120   3.613   6.405  0.0066  0.3210  0.9086
16594TIP3   OH271272   5.545   1.057  12.696  0.4242 -0.3388 -0.5402
16594TIP3    H171273   5.452   1.078  12.686  0.2294 -1.2403 -0.6412
16594TIP3    H271274   5.546   0.976  12.747  1.2063  0.5716  0.9370
16595TIP3   OH271275   1.896   5.874   1.016  0.2670 -0.0465 -0.8662
16595TIP3    H171276   1.928   5.856   1.104  2.9949  1.3111 -1.5436
16595TIP3    H271277   1.839   5.950   1.027  0.6247  0.1438 -0.3018
16596TIP3   OH271278   3.223   3.946   5.048  0.4401 -0.1769  0.2219
16596TIP3    H171279   3.293   3.978   5.105 -0.2700  0.1247  0.9408
16596TIP3    H271280   3.152   4.010   5.060  0.4516  0.1598 -1.3620
16597TIP3   OH271281   2.781   1.999   0.725  0.9420  0.0430 -0.3931
16597TIP3    H171282   2.840   1.952   0.784  1.4397 -0.3626 -1.1943
16597TIP3    H271283   2.829   2.078   0.700  0.6095  0.3650 -0.0127
16598TIP3   OH271284   3.800   0.833  15.073  0.4157 -0.0065 -0.4956
16598TIP3    H171285   3.787   0.861  14.983  0.8533  1.5427 -0.0999
16598TIP3    H271286   3.778   0.910  15.126  0.3143 -0.8409  0.7116
16599TIP3   OH271287   5.114   0.238  11.634  0.3131  0.6714  0.7512
16599TIP3    H171288   5.178   0.189  11.583 -2.5267 -2.0748 -0.2908
16599TIP3    H271289   5.088   0.310  11.576 -1.0786 -1.0173 -0.7703
16600TIP3   OH271290   5.519   0.839  17.103  0.8109 -0.1470  0.5253
16600TIP3    H171291   5.523   0.825  17.198  2.7333  2.4398  0.8767
16600TIP3    H271292   5.573   0.770  17.066  1.3786 -0.2015  1.4482
16601TIP3   OH271293   2.039   2.606  14.134 -0.1467  0.0567  0.6510
16601TIP3    H171294   2.055   2.669  14.064 -0.3548  0.0226  0.5707
16601TIP3    H271295   2.075   2.524  14.101 -0.9329 -0.1389  0.2554
16602TIP3   OH271296   2.766   3.002  15.204 -0.0632 -0.2456 -0.1835
16602TIP3    H171297   2.804   3.068  15.262 -0.5600  0.5477 -0.7409
16602TIP3    H271298   2.707   3.052  15.147 -0.5501 -1.1965 -0.5188
16603TIP3   OH271299   0.066   4.207  12.209 -0.1827  0.9649  0.3305
16603TIP3    H171300   0.075   4.262  12.286 -0.8946  0.3077  0.8901
16603TIP3    H271301   0.148   4.158  12.204 -0.9932 -0.6168  1.9648
16604TIP3   OH271302   1.244   2.556  15.239  0.3387 -0.0905 -0.1208
16604TIP3    H171303   1.313   2.605  15.195  0.5960 -0.3161  0.0320
16604TIP3    H271304   1.284   2.472  15.261  0.0624 -0.1647  0.1036
16605TIP3   OH271305   4.481   6.151   1.978  0.4078 -0.1145  0.0910
16605TIP3    H171306   4.526   6.195   2.051  2.3153  0.2054 -1.2351
16605TIP3    H271307   4.394   6.191   1.976  1.5573  2.4549 -0.0434
16606TIP3   OH271308   4.170   2.968  13.196  0.3887  0.0699 -0.4564
16606TIP3    H171309   4.086   2.982  13.152  0.3410 -1.3207 -0.8391
16606TIP3    H271310   4.166   3.023  13.274 -1.1108 -0.4107 -0.1828
16607TIP3   OH271311   6.300   3.363   5.506 -0.2393 -0.0345 -0.0663
16607TIP3    H171312   6.274   3.299   5.439  1.3762 -0.9637  0.1775
16607TIP3    H271313   6.336   3.436   5.456 -0.0271 -0.2690 -0.2575
16608TIP3   OH271314   0.170   4.483   0.347 -0.5551 -0.3875  0.0446
16608TIP3    H171315   0.142   4.413   0.407 -1.7854 -0.6851 -0.8589
16608TIP3    H271316   0.129   4.562   0.383 -2.1770 -0.7403 -0.9909
16609TIP3   OH271317   4.790   1.558  13.924  0.1494 -0.0271 -0.4229
16609TIP3    H171318   4.697   1.560  13.946  0.3946  0.0803  0.6233
16609TIP3    H271319   4.793   1.570  13.829 -0.8671  0.5683 -0.3799
16610TIP3   OH271320   1.816   0.141   6.281  0.1624 -0.4410 -0.3390
16610TIP3    H171321   1.790   0.158   6.372  1.7155  0.3768 -0.0333
16610TIP3    H271322   1.828   0.046   6.277 -1.3611 -0.6686 -0.1087
16611TIP3   OH271323   2.027   1.756  11.282  0.3235 -0.1139 -0.3190
16611TIP3    H171324   2.005   1.815  11.210  0.1090  0.3504  0.1233
16611TIP3    H271325   1.961   1.775  11.349  0.5067 -0.5637 -0.0116
16612TIP3   OH271326   5.819   1.104   4.651  0.7139  0.3466 -0.0202
16612TIP3    H171327   5.838   1.185   4.699  0.7023 -0.1682  0.8670
16612TIP3    H271328   5.810   1.132   4.560  1.1467  1.2797  0.2133
16613TIP3   OH271329   5.812   1.220   0.517  0.3897  0.1203 -0.2066
16613TIP3    H171330   5.751   1.169   0.463  1.3150  0.7251 -1.8649
16613TIP3    H271331   5.760   1.292   0.551 -0.3416 -0.5770  0.1669
16614TIP3   OH271332   0.127   1.433  12.212 -0.0226  0.0701 -0.0377
16614TIP3    H171333   0.192   1.390  12.267  0.1759  1.0859  0.5327
16614TIP3    H271334   0.045   1.386  12.230  0.1722 -0.0060  0.6410
16615TIP3   OH271335   3.341   1.137  14.982 -0.2966 -0.5121 -0.5632
16615TIP3    H171336   3.394   1.063  14.952 -0.2123 -1.0710  0.9135
16615TIP3    H271337   3.311   1.179  14.901  0.8755 -1.2737 -1.4187
16616TIP3   OH271338   4.567   2.082   0.638 -0.0941 -0.1483 -0.1925
16616TIP3    H171339   4.494   2.143   0.628 -0.3232 -0.6089 -1.3981
16616TIP3    H271340   4.540   2.004   0.589  1.0826 -0.4189 -0.4232
16617TIP3   OH271341   2.291   6.435  11.244 -0.5951  0.1010  0.0716
16617TIP3    H171342   2.341   6.364  11.285 -2.6601  0.0687  2.6605
16617TIP3    H271343   2.331   6.444  11.157  2.9218 -0.8779  1.4685
16618TIP3   OH271344   2.836   1.034   1.840 -0.1922  0.8205  0.5389
16618TIP3    H171345   2.868   0.958   1.888  0.1978 -0.0807 -1.1389
16618TIP3    H271346   2.916   1.078   1.809 -0.4635  0.0321 -1.3660
16619TIP3   OH271347   5.863   5.816   2.382 -0.4328 -0.1037  0.0583
16619TIP3    H171348   5.951   5.852   2.383 -0.6909  0.5405  0.0338
16619TIP3    H271349   5.832   5.824   2.473 -0.8479  0.6441 -0.1415
16620TIP3   OH271350   5.640   1.566  11.127  0.4834  0.2286 -0.6317
16620TIP3    H171351   5.574   1.581  11.060 -0.3714  1.0056  0.3686
16620TIP3    H271352   5.591   1.543  11.205  1.4716 -0.6735 -0.2683
16621TIP3   OH271353   3.522   2.132  14.433  0.0305 -0.8462 -0.6813
16621TIP3    H171354   3.550   2.086  14.512  0.2733  0.6138  0.1009
16621TIP3    H271355   3.494   2.063  14.374 -1.4993 -1.8873  1.2015
16622TIP3   OH271356   6.412   5.081   4.632  0.3696 -0.5436 -0.0869
16622TIP3    H171357   6.400   5.130   4.551 -0.6266  0.3940  0.6205
16622TIP3    H271358   6.489   5.121   4.673  0.4284 -0.5313 -0.2086
16623TIP3   OH271359   5.171   5.656  15.662  0.0570  0.2377  0.0823
16623TIP3    H171360   5.188   5.708  15.583 -2.6308  1.4189  0.2015
16623TIP3    H271361   5.215   5.704  15.732  1.7364 -0.3442 -0.5685
16624TIP3   OH271362   0.766   4.858   0.434 -0.4858 -0.0612 -0.2430
16624TIP3    H171363   0.730   4.774   0.405 -0.2043 -0.4172  0.4135
16624TIP3    H271364   0.718   4.879   0.513  0.1338 -0.1037  0.1528
16625TIP3   OH271365   2.043   6.781   2.744  0.5977 -0.3055  0.4133
16625TIP3    H171366   2.088   6.719   2.687  1.4052 -0.6245  1.3859
16625TIP3    H271367   2.056   6.747   2.832  0.3786  0.8176  0.8920
16626TIP3   OH271368   3.678   4.307  16.429 -0.3745 -0.0009  0.1392
16626TIP3    H171369   3.671   4.400  16.449 -0.7122  0.0023  0.0193
16626TIP3    H271370   3.625   4.264  16.496 -0.2197 -0.1031  0.1954
16627TIP3   OH271371   2.145   5.640  14.811  0.6345  0.3764  0.1424
16627TIP3    H171372   2.138   5.703  14.738 -1.3195 -0.0184 -0.0449
16627TIP3    H271373   2.112   5.688  14.887  2.0151  0.5594  0.6282
16628TIP3   OH271374   5.298   3.257   1.376 -0.1518 -0.0011 -0.4200
16628TIP3    H171375   5.288   3.196   1.449 -1.0793 -0.6382 -1.0530
16628TIP3    H271376   5.258   3.211   1.302 -3.7354  2.5993 -0.2578
16629TIP3   OH271377   6.064   4.213   1.642 -0.3847  0.4853 -0.1208
16629TIP3    H171378   6.120   4.136   1.649 -1.2948 -0.1993 -0.1567
16629TIP3    H271379   6.074   4.259   1.725 -0.8689 -0.4059  0.4389
16630TIP3   OH271380   5.565   0.798   2.226  0.2229 -0.2722 -0.4404
16630TIP3    H171381   5.649   0.781   2.267  0.6797  1.1265 -0.7491
16630TIP3    H271382   5.578   0.776   2.134 -0.0753 -1.1066 -0.2807
16631TIP3   OH271383   3.527   5.396   3.548  0.5861  0.0413 -0.0530
16631TIP3    H171384   3.568   5.360   3.627 -0.5944  2.0400  1.5271
16631TIP3    H271385   3.575   5.356   3.476  3.4763  0.2013  1.6980
16632TIP3   OH271386   1.715   5.106  16.943 -0.1146 -0.4150 -0.0216
16632TIP3    H171387   1.736   5.173  16.878  0.7050  0.4683  1.1421
16632TIP3    H271388   1.629   5.073  16.917  0.4188 -0.4044 -1.8258
16633TIP3   OH271389   0.430   5.242  11.724 -0.4283  0.2437 -0.0221
16633TIP3    H171390   0.420   5.250  11.819 -0.5070 -0.5798  0.0414
16633TIP3    H271391   0.348   5.202  11.695  0.0279 -0.4737 -0.3109
16634TIP3   OH271392   4.147   3.880  15.614 -0.5261 -0.9091 -0.0860
16634TIP3    H171393   4.105   3.797  15.590  0.3823 -1.7242  1.0522
16634TIP3    H271394   4.219   3.890  15.552 -1.9307  0.1087 -1.5645
16635TIP3   OH271395   3.862   6.528  11.799 -0.0958  0.4008 -0.3594
16635TIP3    H171396   3.943   6.512  11.751 -0.1625  1.7751 -0.9540
16635TIP3    H271397   3.857   6.623  11.806 -1.7663  0.3365 -0.5048
16636TIP3   OH271398   0.613   6.448  11.935 -0.0072 -0.0518  0.0420
16636TIP3    H171399   0.528   6.406  11.929 -0.4053  0.7984 -0.4472
16636TIP3    H271400   0.615   6.487  12.023 -1.3418  2.4267 -0.9667
16637TIP3   OH271401   5.800   0.479   2.502 -0.0374 -0.3734  0.2782
16637TIP3    H171402   5.833   0.395   2.470  0.8421  0.3698 -0.8157
16637TIP3    H271403   5.850   0.497   2.581 -0.5346 -1.0861  0.7530
16638TIP3   OH271404   1.127   1.197   2.404  0.1021 -0.4001 -0.6563
16638TIP3    H171405   1.192   1.266   2.392  0.4148 -0.7232 -0.8519
16638TIP3    H271406   1.176   1.125   2.445 -1.1346  0.9794  3.4330
16639TIP3   OH271407   3.543   3.728  15.767  0.0499  0.4207 -0.2271
16639TIP3    H171408   3.598   3.801  15.795 -0.2927 -0.1150  1.8949
16639TIP3    H271409   3.463   3.738  15.818 -0.8008 -0.2765 -1.4243
16640TIP3   OH271410   2.756   6.682  13.035  0.3424  0.1695 -0.2370
16640TIP3    H171411   2.805   6.764  13.048  1.3014 -0.5701  0.9864
16640TIP3    H271412   2.819   6.613  13.057 -0.6495 -0.8815 -0.6428
16641TIP3   OH271413   0.809   0.029  12.651  0.0566 -0.2692  0.2365
16641TIP3    H171414   0.871   0.009  12.721 -1.4341 -1.4125  1.2477
16641TIP3    H271415   0.733   0.066  12.696 -1.8582 -3.1369 -0.5052
16642TIP3   OH271416   1.496   5.335   3.084  0.2992 -0.0199 -0.8260
16642TIP3    H171417   1.469   5.300   3.000  0.0810 -0.9322 -0.3764
16642TIP3    H271418   1.561   5.402   3.062 -0.2305  0.2045 -1.7457
16643TIP3   OH271419   6.740   5.108   1.901 -0.2409  0.0319 -0.1317
16643TIP3    H171420   6.799   5.085   1.829  0.4716 -1.8973  1.0167
16643TIP3    H271421   6.658   5.063   1.879 -0.6191  0.9442 -0.6348
16644TIP3   OH271422   5.938   4.191  16.022  0.2485 -0.4084  0.6097
16644TIP3    H171423   6.022   4.174  15.980  0.4330 -0.3915  0.9649
16644TIP3    H271424   5.929   4.286  16.021 -0.3600 -0.4807 -0.5677
16645TIP3   OH271425   0.564   1.950   1.844 -0.1691 -0.2024  0.0001
16645TIP3    H171426   0.554   1.908   1.930 -1.6793  0.5168  0.1840
16645TIP3    H271427   0.656   1.977   1.842 -0.2460  0.2456  1.6279
16646TIP3   OH271428   2.190   3.834   3.922 -1.1498  0.2957  0.0713
16646TIP3    H171429   2.218   3.841   3.830 -1.1535 -1.9227 -0.1232
16646TIP3    H271430   2.234   3.907   3.966  0.7518 -0.0121 -1.2472
16647TIP3   OH271431   4.323   2.607   4.371 -0.0327  0.2020 -0.6625
16647TIP3    H171432   4.302   2.514   4.380  2.7117 -0.4996 -1.1172
16647TIP3    H271433   4.301   2.645   4.456 -1.3009 -0.8161 -0.5136
16648TIP3   OH271434   2.972   5.061  13.845 -0.6252  0.2354  0.2055
16648TIP3    H171435   2.934   5.002  13.910  1.1949  0.6989  1.7699
16648TIP3    H271436   2.913   5.136  13.843 -0.6092  0.3045  1.5165
16649TIP3   OH271437   3.999   5.343   1.131 -0.2648  0.8545 -0.3622
16649TIP3    H171438   3.962   5.285   1.064  0.6508 -2.3751  1.8052
16649TIP3    H271439   4.087   5.363   1.100 -0.8084  1.6337 -1.4317
16650TIP3   OH271440   1.075   4.901   3.117 -0.0281  0.2547  0.2702
16650TIP3    H171441   1.102   4.816   3.082 -0.1756  0.0767  0.5901
16650TIP3    H271442   0.985   4.912   3.088 -0.6064 -0.5080  1.7347
16651TIP3   OH271443   2.140   2.237   4.841 -0.3500  0.1357  0.4713
16651TIP3    H171444   2.082   2.161   4.833 -2.0233  1.4535 -0.2629
16651TIP3    H271445   2.082   2.308   4.870  1.6497  0.5539  3.6475
16652TIP3   OH271446   1.942   4.982   2.104  0.2092  0.0777 -0.7221
16652TIP3    H171447   1.918   4.955   2.192 -0.0912  2.7035  0.0282
16652TIP3    H271448   2.010   4.920   2.078  2.7624  1.3091  2.6781
16653TIP3   OH271449   4.753   3.727   3.937 -0.3209 -0.3177 -0.2552
16653TIP3    H171450   4.779   3.658   3.876 -0.3393  0.3531 -1.0341
16653TIP3    H271451   4.665   3.702   3.966 -0.8239 -0.0158 -1.4647
16654TIP3   OH271452   4.868   6.341   1.592  0.5443 -0.2370  0.6025
16654TIP3    H171453   4.926   6.361   1.665  0.3612 -0.2688  0.7581
16654TIP3    H271454   4.926   6.308   1.523  0.9980  1.9299 -0.1017
16655TIP3   OH271455   3.706   3.442  11.373 -0.6702 -0.0428  0.2318
16655TIP3    H171456   3.634   3.431  11.310 -0.2824  1.1483 -0.4346
16655TIP3    H271457   3.663   3.447  11.458 -1.2355 -1.2542  0.0291
16656TIP3   OH271458   2.033   1.490   2.779 -0.7089 -0.1508  0.1239
16656TIP3    H171459   2.106   1.438   2.814 -0.4759  0.4448  0.5339
16656TIP3    H271460   2.053   1.580   2.805 -1.8415 -0.0506  0.6760
16657TIP3   OH271461   1.569   2.183   2.013 -0.2028 -0.1429 -0.1883
16657TIP3    H171462   1.651   2.196   1.964 -0.3453  2.0418  0.0858
16657TIP3    H271463   1.503   2.167   1.946  0.1058 -0.0021 -0.5283
16658TIP3   OH271464   5.441   2.613  13.924 -0.2360 -0.1152  0.0093
16658TIP3    H171465   5.517   2.666  13.899 -0.1191  0.0468  0.6970
16658TIP3    H271466   5.443   2.539  13.863  0.9223 -0.5139  0.5192
16659TIP3   OH271467   6.204   1.502   2.610 -0.7363 -0.2759  0.3782
16659TIP3    H171468   6.296   1.520   2.632 -0.7722  0.3151  0.0446
16659TIP3    H271469   6.206   1.469   2.521 -1.1222  2.5246 -0.7119
16660TIP3   OH271470   3.821   5.760  13.536 -0.2009 -0.2674 -0.0303
16660TIP3    H171471   3.885   5.792  13.600 -1.1809  0.0317  0.8274
16660TIP3    H271472   3.840   5.667  13.528  0.9882  0.0097 -0.5501
16661TIP3   OH271473   0.533   5.168   0.106 -0.3641 -0.0930  0.1657
16661TIP3    H171474   0.494   5.243   0.150  0.2638  0.3092  0.0408
16661TIP3    H271475   0.568   5.203   0.024 -0.9917 -0.7224 -0.3693
16662TIP3   OH271476   1.487   5.956  16.641  0.0625 -0.4103  0.3399
16662TIP3    H171477   1.392   5.967  16.645  0.2780  1.1520  1.8763
16662TIP3    H271478   1.521   6.045  16.649  1.6849 -1.0975  1.1449
16663TIP3   OH271479   0.875   3.006  13.936  0.1600  0.3417 -0.4055
16663TIP3    H171480   0.969   2.990  13.946 -0.0772 -0.6834  0.3195
16663TIP3    H271481   0.834   2.924  13.962 -0.8661  0.0595 -2.8293
16664TIP3   OH271482   4.707   0.915  13.794  0.4139  0.5658  0.5278
16664TIP3    H171483   4.746   0.841  13.748  0.4956  0.6452  0.4684
16664TIP3    H271484   4.613   0.902  13.785  0.4173  2.1424 -2.2083
16665TIP3   OH271485   4.985   1.657   2.758 -0.7517 -0.4693 -0.0466
16665TIP3    H171486   4.925   1.728   2.781 -2.2053 -2.5374  2.7769
16665TIP3    H271487   4.936   1.605   2.695 -1.6951 -1.7424  1.6987
16666TIP3   OH271488   1.655   3.280   2.066 -0.3579  0.4095  0.4766
16666TIP3    H171489   1.720   3.241   2.007  1.2440  1.8765  1.2296
16666TIP3    H271490   1.629   3.208   2.123 -0.5848 -0.5850 -0.8432
16667TIP3   OH271491   1.700   6.774   2.406  0.6433 -0.1233  0.5142
16667TIP3    H171492   1.678   6.707   2.341  0.3229 -0.5699  1.0797
16667TIP3    H271493   1.758   6.729   2.468 -2.1974 -0.8508  2.7578
16668TIP3   OH271494   4.681   1.250  16.280 -0.2157 -0.0161 -0.4496
16668TIP3    H171495   4.688   1.179  16.216 -0.7255 -0.4609 -0.0209
16668TIP3    H271496   4.769   1.259  16.317 -0.4626 -1.4223  0.5348
16669TIP3   OH271497   3.971   0.593   0.716 -0.0683  0.4312 -0.0814
16669TIP3    H171498   3.890   0.645   0.712  0.9117  2.0265  0.3629
16669TIP3    H271499   4.020   0.619   0.638  0.1215 -0.3492 -0.2199
16670TIP3   OH271500   2.909   0.012  14.751 -0.7410 -0.4256 -0.3431
16670TIP3    H171501   2.834   0.030  14.809 -1.8908  0.0270 -1.9375
16670TIP3    H271502   2.869  -0.007  14.666  0.9820  0.2060 -1.3140
16671TIP3   OH271503   2.008   0.796  12.330  0.0865 -0.2744 -0.1979
16671TIP3    H171504   2.099   0.790  12.361 -0.0637 -1.4878  0.0402
16671TIP3    H271505   1.956   0.801  12.411 -0.1674 -1.4034 -0.2743
16672TIP3   OH271506   0.342   0.599   0.242 -0.3603 -0.1411 -0.0003
16672TIP3    H171507   0.375   0.546   0.169  0.6920  1.0997 -0.4440
16672TIP3    H271508   0.255   0.627   0.214 -0.7804 -1.3028  0.0834
16673TIP3   OH271509   3.896   4.769   1.235  0.0002 -0.2652  0.2047
16673TIP3    H171510   3.989   4.781   1.256  0.0837 -2.3751  1.1438
16673TIP3    H271511   3.861   4.720   1.310 -1.2980 -1.7121 -1.3178
16674TIP3   OH271512   0.321   4.488   1.187  0.1966 -0.2079 -0.3368
16674TIP3    H171513   0.247   4.447   1.143  0.4333 -1.2837  0.2493
16674TIP3    H271514   0.347   4.559   1.129 -1.9542  0.8653 -0.0470
16675TIP3   OH271515   0.022   4.096  15.592 -0.0283 -0.4409 -0.0580
16675TIP3    H171516  -0.007   4.108  15.682 -0.0994 -0.9784 -0.0065
16675TIP3    H271517   0.072   4.015  15.593 -0.0375 -0.4556 -0.5045
16676TIP3   OH271518   1.780   3.937   5.327  0.2501 -0.4934  0.1934
16676TIP3    H171519   1.857   3.986   5.357 -0.2577  0.7952 -0.5638
16676TIP3    H271520   1.705   3.986   5.361 -0.3677  1.2165 -3.3050
16677TIP3   OH271521   1.722   5.748   5.646 -0.3067 -0.8469  0.7037
16677TIP3    H171522   1.723   5.840   5.620 -1.2487  0.1832  4.0350
16677TIP3    H271523   1.629   5.726   5.652 -0.1436 -2.8952 -2.6757
16678TIP3   OH271524   4.227   1.944  11.950  0.7103 -0.2671 -0.1669
16678TIP3    H171525   4.135   1.948  11.976  0.4950  0.5952 -1.0276
16678TIP3    H271526   4.232   1.867  11.893  0.8717 -1.2826  1.2081
16679TIP3   OH271527   3.632   4.272  14.678 -0.0228 -0.1072 -0.1665
16679TIP3    H171528   3.657   4.350  14.629  1.8273  0.4431  1.5730
16679TIP3    H271529   3.624   4.303  14.768  0.8898 -1.9697  0.5578
16680TIP3   OH271530   3.891   3.464  12.546 -0.2865  0.2959  0.7371
16680TIP3    H171531   3.834   3.539  12.563 -0.4589  0.0842  1.0892
16680TIP3    H271532   3.976   3.489  12.582 -0.0338  0.7882 -0.1734
16681TIP3   OH271533   1.455   2.067   3.779 -0.0185  0.2022  0.0911
16681TIP3    H171534   1.475   2.050   3.687 -2.3616  1.2606 -0.6720
16681TIP3    H271535   1.494   2.152   3.797 -1.2055  0.8874 -0.5132
16682TIP3   OH271536   3.189   5.839  15.590 -0.0931  0.4798  0.0060
16682TIP3    H171537   3.267   5.783  15.586 -0.5936 -0.2335  0.1585
16682TIP3    H271538   3.117   5.778  15.606 -0.5859  1.2204  0.6121
16683TIP3   OH271539   6.456   3.115  12.803  0.8609  0.2633 -0.1121
16683TIP3    H171540   6.540   3.083  12.835  2.0365  2.2071 -1.1726
16683TIP3    H271541   6.476   3.155  12.718 -0.7226  2.8531  0.6841
16684TIP3   OH271542   6.660   0.074  14.519 -1.0282 -0.3571  0.0673
16684TIP3    H171543   6.697  -0.013  14.536 -1.1013 -0.1236  1.4777
16684TIP3    H271544   6.589   0.082  14.582 -1.2717  0.5814 -0.3205
16685TIP3   OH271545   6.605   1.671  14.430  0.2188 -0.6018 -0.9056
16685TIP3    H171546   6.581   1.680  14.338  0.5230 -1.0475 -1.0267
16685TIP3    H271547   6.622   1.761  14.459 -1.6680 -0.2566 -0.7848
16686TIP3   OH271548   1.424   2.168  13.674 -0.3035 -0.0687  0.1761
16686TIP3    H171549   1.388   2.153  13.587 -1.5619  1.1021  0.4873
16686TIP3    H271550   1.415   2.262  13.688 -1.3867 -0.4412  2.1202
16687TIP3   OH271551   3.022   5.696  15.139 -0.3845 -0.0263  0.4043
16687TIP3    H171552   2.940   5.693  15.089 -0.4584 -0.9960  0.5622
16687TIP3    H271553   3.002   5.751  15.214 -0.6203  0.4845 -0.0331
16688TIP3   OH271554   4.566   2.057  12.703 -0.3047  0.2617  0.2097
16688TIP3    H171555   4.578   1.964  12.721  0.7959  0.2962 -0.3261
16688TIP3    H271556   4.489   2.060  12.646 -0.9681 -0.2197  1.0525
16689TIP3   OH271557   3.451   1.113   1.064  0.5426  0.0158 -0.8231
16689TIP3    H171558   3.463   1.133   0.971  1.0892  0.1284 -0.7260
16689TIP3    H271559   3.357   1.095   1.072  0.0153  2.5358 -0.9113
16690TIP3   OH271560   1.565   4.656  16.635  0.1656  0.2950  0.4841
16690TIP3    H171561   1.477   4.637  16.668  0.0449  1.2669  0.7541
16690TIP3    H271562   1.577   4.749  16.654  1.3386  0.1132  0.6529
16691TIP3   OH271563   0.137   5.665  11.791  0.0714  0.1845 -0.4217
16691TIP3    H171564   0.213   5.721  11.778 -0.7839  1.3106 -0.5939
16691TIP3    H271565   0.087   5.672  11.710 -0.2219 -0.5503 -0.3103
16692TIP3   OH271566   5.623   0.662   2.687 -0.3672 -0.1035 -0.1132
16692TIP3    H171567   5.596   0.602   2.618 -0.6200 -0.4217  0.2568
16692TIP3    H271568   5.542   0.702   2.717 -0.0441  1.6002 -1.4132
16693TIP3   OH271569   6.185   6.308  17.011 -0.0046 -0.0954  0.1229
16693TIP3    H171570   6.107   6.258  16.984  0.1559 -0.1394 -0.2747
16693TIP3    H271571   6.251   6.283  16.946  0.6931 -0.9936  1.1677
16694TIP3   OH271572   2.608   2.773  11.707 -0.4076 -0.0495 -0.2656
16694TIP3    H171573   2.587   2.866  11.702 -0.1347 -0.0337 -1.1240
16694TIP3    H271574   2.703   2.769  11.708 -0.4180 -0.3144  0.0164
16695TIP3   OH271575   4.420   0.204   6.387 -0.1139 -0.8991  0.3716
16695TIP3    H171576   4.424   0.116   6.350 -0.6233 -0.2662 -1.2407
16695TIP3    H271577   4.326   0.222   6.394 -0.0106 -0.5806  0.9523
16696TIP3   OH271578   6.178   4.483  16.110  0.3409 -0.3049  0.1852
16696TIP3    H171579   6.231   4.423  16.059 -0.2164 -1.9579  1.5200
16696TIP3    H271580   6.088   4.465  16.083  0.0182 -1.3650  1.9040
16697TIP3   OH271581   3.843   4.468   4.483  0.4544  0.2326 -0.8183
16697TIP3    H171582   3.846   4.442   4.391 -2.0986  0.7643 -1.0871
16697TIP3    H271583   3.833   4.385   4.531 -0.8788  0.1501 -1.2175
16698TIP3   OH271584   4.900   3.032  13.988  0.2845  0.4054  0.6377
16698TIP3    H171585   4.922   2.941  14.008 -1.1073 -0.2957 -0.8964
16698TIP3    H271586   4.814   3.046  14.027 -0.1103  0.6317 -0.2932
16699TIP3   OH271587   6.185   3.197  17.076  0.6289  0.1538 -0.0163
16699TIP3    H171588   6.145   3.170  16.993 -1.2592  0.4875  0.7540
16699TIP3    H271589   6.278   3.206  17.056  0.3075 -0.4935 -1.9152
16700TIP3   OH271590   6.812   3.601  16.399 -0.1761 -0.1411  0.4195
16700TIP3    H171591   6.834   3.651  16.477  2.6272 -1.0060  0.2194
16700TIP3    H271592   6.820   3.663  16.327 -0.7409  0.1286  0.5821
16701TIP3   OH271593   0.769   1.920  11.585  0.4392  0.1229 -0.2519
16701TIP3    H171594   0.834   1.885  11.524  0.0819 -2.2364  0.6478
16701TIP3    H271595   0.820   1.971  11.648  1.0570  0.7251 -1.2217
16702TIP3   OH271596   2.574   2.170   2.572 -0.2152  0.2021  0.2001
16702TIP3    H171597   2.555   2.238   2.507 -0.3790  0.4907  0.5506
16702TIP3    H271598   2.494   2.163   2.623 -0.7317 -1.3152 -0.7775
16703TIP3   OH271599   3.619   3.100   5.031  0.1195  0.4283 -0.2449
16703TIP3    H171600   3.608   3.073   5.122 -1.6496  0.1519 -0.5161
16703TIP3    H271601   3.617   3.196   5.034 -1.9053  0.4090 -0.1850
16704TIP3   OH271602   1.758   6.342  11.823 -0.0879  0.6636 -0.1936
16704TIP3    H171603   1.674   6.297  11.818 -0.0503  0.4882  0.6538
16704TIP3    H271604   1.735   6.433  11.843 -0.0901  0.6846 -0.2936
16705TIP3   OH271605   3.595   4.551   2.816 -0.6030  0.0466  0.1882
16705TIP3    H171606   3.598   4.526   2.908 -1.2867 -0.9203 -0.0451
16705TIP3    H271607   3.670   4.609   2.804  0.5074 -1.2283  0.9441
16706TIP3   OH271608   1.843   4.467   5.521 -0.4368 -0.3513 -0.3132
16706TIP3    H171609   1.932   4.431   5.515 -0.2674 -0.7728  3.4999
16706TIP3    H271610   1.855   4.554   5.560 -1.4729  0.9673 -2.8096
16707TIP3   OH271611   3.048   6.800   5.240 -0.3308 -0.1548  0.2553
16707TIP3    H171612   3.056   6.892   5.265  0.0573 -0.2452  0.4603
16707TIP3    H271613   3.008   6.757   5.315 -1.1976 -0.0174 -0.1241
16708TIP3   OH271614   5.648   1.578  15.822  0.2157  0.0840 -0.0386
16708TIP3    H171615   5.646   1.505  15.884 -0.4516  0.4506  0.3787
16708TIP3    H271616   5.559   1.582  15.787  0.5428 -0.0051 -0.8932
16709TIP3   OH271617   4.803   3.029  13.387 -0.2761 -0.3001  0.9780
16709TIP3    H171618   4.872   2.978  13.430  0.6642 -0.5569 -0.7880
16709TIP3    H271619   4.738   2.964  13.359  1.1571 -0.6442 -1.7099
16710TIP3   OH271620   1.214   3.586  16.414  0.2273 -0.2604  0.2231
16710TIP3    H171621   1.122   3.574  16.389  0.4655 -1.8312  0.0515
16710TIP3    H271622   1.211   3.648  16.487 -1.2086 -2.1724  1.8599
16711TIP3   OH271623   3.363   1.454  12.277 -0.3258 -0.5293 -0.3520
16711TIP3    H171624   3.364   1.361  12.302 -0.2979 -0.6213 -0.6947
16711TIP3    H271625   3.441   1.490  12.317  0.2832 -0.9094 -1.1838
16712TIP3   OH271626   6.639   3.512   5.008  0.0584 -0.3487  0.4261
16712TIP3    H171627   6.605   3.448   5.071  0.1520  0.8564  1.7183
16712TIP3    H271628   6.648   3.593   5.058  0.3818  0.5686 -1.0762
16713TIP3   OH271629   2.500   1.514  16.280  0.0932 -0.7842 -0.8685
16713TIP3    H171630   2.510   1.529  16.374 -2.4244 -0.1598 -0.6600
16713TIP3    H271631   2.560   1.578  16.239 -0.8915  0.9285  0.2905
16714TIP3   OH271632   2.516   4.825  13.342 -0.4273  0.5436 -0.4966
16714TIP3    H171633   2.543   4.883  13.412 -0.2293  0.7850 -0.7757
16714TIP3    H271634   2.587   4.828  13.278  1.0698 -2.3942  0.8964
16715TIP3   OH271635   4.356   2.626  15.107 -0.1105  0.3239 -0.4020
16715TIP3    H171636   4.406   2.615  15.188 -0.5621 -2.0703 -0.4195
16715TIP3    H271637   4.420   2.617  15.037 -0.2115 -0.7040 -0.3715
16716TIP3   OH271638   1.547   1.173  14.894  0.5099  0.0373  0.0999
16716TIP3    H171639   1.539   1.267  14.877 -0.7808 -0.1378 -0.3394
16716TIP3    H271640   1.602   1.141  14.822 -0.9482  0.0942 -1.0758
16717TIP3   OH271641   2.186   2.359  16.273  0.5223  0.4100  0.3026
16717TIP3    H171642   2.149   2.419  16.337  1.9669  0.4068  1.1760
16717TIP3    H271643   2.278   2.350  16.299  0.9866 -0.0564 -1.4307
16718TIP3   OH271644   2.798   0.425  13.744  0.6759 -0.6969 -0.2798
16718TIP3    H171645   2.877   0.381  13.775 -0.4274 -0.7083  2.6101
16718TIP3    H271646   2.727   0.386  13.795 -1.1501 -0.1777 -2.3311
16719TIP3   OH271647   3.760   5.817  15.095 -0.4132 -0.2940  0.0662
16719TIP3    H171648   3.725   5.839  15.182  0.5475  1.1230  0.1068
16719TIP3    H271649   3.691   5.765  15.055 -1.4202  0.1215  1.2005
16720TIP3   OH271650   3.229   6.631   1.606  0.1219 -0.6764 -0.6415
16720TIP3    H171651   3.203   6.723   1.612  0.3713 -0.5041 -2.1057
16720TIP3    H271652   3.147   6.583   1.605 -0.0053 -0.4891  0.3625
16721TIP3   OH271653   6.205   2.687   0.904  0.1581 -0.0648  0.3792
16721TIP3    H171654   6.152   2.662   0.980 -0.4731 -0.9558 -0.3498
16721TIP3    H271655   6.242   2.605   0.872 -2.1865 -0.1800 -2.2107
16722TIP3   OH271656   5.076   2.327   3.756  0.3302  0.1041 -0.4038
16722TIP3    H171657   5.109   2.238   3.744  2.2263  0.8377 -0.7421
16722TIP3    H271658   5.083   2.344   3.849  2.7306  0.9407 -0.7214
16723TIP3   OH271659   2.481   1.009   4.289  0.3692  0.2695  0.2418
16723TIP3    H171660   2.536   0.948   4.337 -0.0890 -0.2233  0.1530
16723TIP3    H271661   2.464   0.965   4.205  3.2125  2.1869 -1.3986
16724TIP3   OH271662   0.628   1.237  11.977  0.2424  0.0971  0.4113
16724TIP3    H171663   0.592   1.226  11.889 -1.4354  1.4146  0.9242
16724TIP3    H271664   0.617   1.330  11.996  0.3422 -0.2302  2.1233
16725TIP3   OH271665   1.245   4.265  10.929 -0.5167 -0.7941 -0.1837
16725TIP3    H171666   1.265   4.309  11.012 -1.8083 -0.0528 -0.2560
16725TIP3    H271667   1.219   4.177  10.954 -0.5512 -0.6845  0.1685
16726TIP3   OH271668   3.550   4.607   3.635  0.3276 -0.0502  0.3932
16726TIP3    H171669   3.554   4.618   3.540 -0.3820 -1.7398  0.1480
16726TIP3    H271670   3.635   4.569   3.658 -0.4061 -1.9872  0.0638
16727TIP3   OH271671   6.206   3.656  15.785  0.1497  0.2924 -0.1246
16727TIP3    H171672   6.148   3.732  15.779 -0.0122  0.0768 -1.2598
16727TIP3    H271673   6.247   3.664  15.872 -2.4761 -0.2160  1.2003
16728TIP3   OH271674   3.365   5.708   0.127 -0.1095 -0.3854 -0.2742
16728TIP3    H171675   3.333   5.627   0.166  0.4783  1.0787  3.5654
16728TIP3    H271676   3.445   5.728   0.177 -0.2109  2.4917 -1.1680
16729TIP3   OH271677   5.255   6.645   2.317 -0.0761  0.7385  0.1757
16729TIP3    H171678   5.192   6.676   2.252 -0.1006 -0.1796 -0.2442
16729TIP3    H271679   5.232   6.553   2.330  1.0194  0.4653  0.2018
16730TIP3   OH271680   3.893   1.631   0.256  0.6753  0.6787  0.5972
16730TIP3    H171681   3.942   1.652   0.177 -0.3686  2.2234  0.3362
16730TIP3    H271682   3.850   1.548   0.237  1.6044  0.3156  0.0973
16731TIP3   OH271683   3.900   4.662  14.592 -0.2153 -0.6668  0.2509
16731TIP3    H171684   3.955   4.651  14.515  0.1096  2.1066  0.0262
16731TIP3    H271685   3.960   4.662  14.666 -0.5426 -3.4951  0.5762
16732TIP3   OH271686   1.885   4.306   4.891  0.0160  0.3164 -0.4508
16732TIP3    H171687   1.977   4.279   4.892 -0.5363 -1.6998 -0.8995
16732TIP3    H271688   1.857   4.289   4.801  0.0245  3.9711 -1.2384
16733TIP3   OH271689   3.632   0.996   0.653 -0.1493  0.2284  0.5422
16733TIP3    H171690   3.678   1.043   0.723 -1.2083  1.6148  0.3258
16733TIP3    H271691   3.539   1.006   0.675 -0.4244 -0.8777 -0.0883
16734TIP3   OH271692   6.009   0.466   0.344  0.2783 -0.1955 -0.2792
16734TIP3    H171693   6.091   0.460   0.393  0.2826  2.8684  0.1954
16734TIP3    H271694   5.998   0.560   0.327 -3.0968 -0.5455 -0.3668
16735TIP3   OH271695   1.589   4.583   3.434 -0.0532 -0.3543 -0.2859
16735TIP3    H171696   1.572   4.630   3.353 -0.3524  0.2536  0.1293
16735TIP3    H271697   1.522   4.514   3.436 -0.4125 -0.0020 -0.2619
16736TIP3   OH271698   2.378   1.361   0.958 -0.7049 -0.1706  0.4976
16736TIP3    H171699   2.296   1.395   0.994 -1.1117 -1.1662  0.5369
16736TIP3    H271700   2.398   1.284   1.012 -0.1363 -0.3622  0.0264
16737TIP3   OH271701   6.417   4.532   4.142  0.4349  0.0742 -0.1364
16737TIP3    H171702   6.440   4.623   4.123  1.1258  0.0902  0.7502
16737TIP3    H271703   6.452   4.483   4.067 -0.4215  0.5883 -0.8852
16738TIP3   OH271704   6.304   6.186   1.296 -0.7196 -0.6048  0.2289
16738TIP3    H171705   6.358   6.244   1.241 -0.2570 -0.8829  0.3851
16738TIP3    H271706   6.273   6.118   1.235 -0.9275 -0.4194  0.1293
16739TIP3   OH271707   5.597   3.326   1.461  0.1895  0.0908 -0.1165
16739TIP3    H171708   5.546   3.249   1.435 -0.2542  0.1742  0.5165
16739TIP3    H271709   5.561   3.397   1.407 -1.1934  0.4060  1.2024
16740TIP3   OH271710   6.673   4.504  16.809  0.0584  0.3918 -0.2480
16740TIP3    H171711   6.695   4.573  16.871 -1.6577  0.4844  0.2742
16740TIP3    H271712   6.680   4.423  16.860 -2.4530  0.5507  0.4093
16741TIP3   OH271713   5.620   3.908  17.128  0.0556  0.1695 -0.5385
16741TIP3    H171714   5.665   3.853  17.064 -0.1321 -0.9608  0.2724
16741TIP3    H271715   5.530   3.875  17.129 -0.7774  2.3404 -2.0694
16742TIP3   OH271716   1.557   4.008   0.197 -0.1588  0.1697  0.8081
16742TIP3    H171717   1.503   4.058   0.136 -0.0298  0.8312  1.2256
16742TIP3    H271718   1.504   3.931   0.218  0.4267 -0.8400 -1.2873
16743TIP3   OH271719   0.571   0.516  17.117  0.2165  0.0151  0.8056
16743TIP3    H171720   0.629   0.547  17.186 -0.1965  0.9291  0.7465
16743TIP3    H271721   0.616   0.539  17.035 -0.4350  1.1269  0.7560
16744TIP3   OH271722   5.862   5.385   4.409  0.4310 -0.3861 -0.2402
16744TIP3    H171723   5.849   5.480   4.420 -1.9775 -0.8712  1.6734
16744TIP3    H271724   5.923   5.361   4.479  0.2135 -0.4003 -0.0527
16745TIP3   OH271725   2.464   2.196  16.712  0.4379  0.2482  0.0514
16745TIP3    H171726   2.552   2.218  16.680  0.4645  0.8917  0.5536
16745TIP3    H271727   2.457   2.101  16.700  2.1312 -0.1962  2.2724
16746TIP3   OH271728   3.605   4.724  14.394 -0.7352  0.0505  0.1138
16746TIP3    H171729   3.527   4.768  14.359 -0.9587 -0.8288 -0.5107
16746TIP3    H271730   3.645   4.684  14.317 -1.7227 -2.7014  0.9797
16747TIP3   OH271731   0.472   0.630   2.488 -0.0275 -0.1842 -0.3938
16747TIP3    H171732   0.508   0.658   2.404  0.9102  0.3467  0.1823
16747TIP3    H271733   0.461   0.535   2.478  1.3119 -0.3239 -0.6604
16748TIP3   OH271734   2.159   1.030  16.510 -0.0286 -0.1649  0.6939
16748TIP3    H171735   2.189   0.939  16.499 -2.1982 -1.1006  2.2629
16748TIP3    H271736   2.118   1.032  16.597 -1.3878  1.9231  0.0471
16749TIP3   OH271737   5.306   4.275  14.955 -0.2083  0.2797  0.0986
16749TIP3    H171738   5.312   4.180  14.945 -2.3321  0.3285 -2.2512
16749TIP3    H271739   5.383   4.299  15.005 -0.4383 -2.8779  2.1002
16750TIP3   OH271740   0.196   3.983   3.167 -0.2832  0.1836 -1.0269
16750TIP3    H171741   0.197   3.994   3.072  0.0804 -1.6320 -1.2617
16750TIP3    H271742   0.158   3.896   3.181  1.7116 -0.5215  0.3454
16751TIP3   OH271743   6.639   6.706  15.563  0.3199 -0.1758  0.1994
16751TIP3    H171744   6.668   6.699  15.472 -0.5895 -1.9175  0.0249
16751TIP3    H271745   6.615   6.798  15.573  0.2976  0.0012 -1.3619
16752TIP3   OH271746   3.842   6.619  11.102 -0.3891 -0.2170 -0.2100
16752TIP3    H171747   3.801   6.592  11.020 -0.6406  1.7097 -0.7409
16752TIP3    H271748   3.871   6.709  11.086 -0.6105  0.2483  1.8645
16753TIP3   OH271749   2.276   2.522   5.966  0.5237 -0.2362  0.0353
16753TIP3    H171750   2.291   2.439   6.012 -2.4401 -1.6764 -1.4463
16753TIP3    H271751   2.255   2.585   6.034 -0.3916 -1.5054  0.9379
16754TIP3   OH271752   5.768   3.578   6.702  0.4345 -0.5448  0.2344
16754TIP3    H171753   5.711   3.525   6.758  1.5638 -0.8583  1.1151
16754TIP3    H271754   5.841   3.602   6.759  0.7045  0.6524 -0.6088
16755TIP3   OH271755   0.158   2.349  15.417  0.0948 -0.2704 -0.2272
16755TIP3    H171756   0.219   2.332  15.345  0.3174 -0.8779  0.1053
16755TIP3    H271757   0.089   2.402  15.377  1.9335  2.3428 -0.1414
16756TIP3   OH271758   5.761   5.489   3.074 -0.6177  0.4530 -0.5395
16756TIP3    H171759   5.781   5.544   2.998  0.2595 -1.8369 -2.0225
16756TIP3    H271760   5.675   5.451   3.053 -0.2749 -0.3482 -0.4994
16757TIP3   OH271761   5.697   5.207   5.205 -0.5138  0.3502 -0.1590
16757TIP3    H171762   5.651   5.243   5.129 -1.1105 -0.3762 -0.1500
16757TIP3    H271763   5.643   5.134   5.233  0.0736  0.1778  0.5432
16758TIP3   OH271764   3.391   2.479  13.596 -0.0923  0.4427 -0.0620
16758TIP3    H171765   3.298   2.495  13.577 -0.0703  1.1012  0.3634
16758TIP3    H271766   3.390   2.417  13.669 -0.1900 -0.3682 -0.7475
16759TIP3   OH271767   6.121   3.266   0.038  0.1690  0.6110  0.0646
16759TIP3    H171768   6.110   3.356   0.066  1.3898  1.0847 -0.9536
16759TIP3    H271769   6.105   3.268  -0.057  1.2147 -0.0459 -0.1361
16760TIP3   OH271770   5.013   3.978  13.968 -0.1092 -0.1624 -0.6760
16760TIP3    H171771   5.045   4.022  14.046 -0.2952 -1.5159  0.1740
16760TIP3    H271772   5.069   4.010  13.897  0.5826  0.4395  0.1422
16761TIP3   OH271773   5.841   0.555  12.002 -0.1093 -0.0477 -0.5455
16761TIP3    H171774   5.850   0.484  12.065 -1.1401  1.6522  1.6244
16761TIP3    H271775   5.929   0.568  11.967  0.2210 -1.8978 -0.4486
16762TIP3   OH271776   1.128   5.289  14.408 -0.1434 -0.5467 -0.0597
16762TIP3    H171777   1.217   5.262  14.384  0.9889  1.5543  1.5412
16762TIP3    H271778   1.085   5.208  14.434  1.6282 -1.4761  0.1017
16763TIP3   OH271779   3.173   1.807   4.637 -0.3632  0.0306 -0.0417
16763TIP3    H171780   3.267   1.796   4.653 -1.0472 -1.1315  3.6669
16763TIP3    H271781   3.146   1.723   4.599 -0.4536 -0.9544  2.0911
16764TIP3   OH271782   3.971   4.931  16.433 -0.0565  0.2122  0.0986
16764TIP3    H171783   3.998   4.839  16.433 -0.8723 -0.0486  2.3444
16764TIP3    H271784   4.021   4.971  16.504  1.1881  1.8090 -1.6234
16765TIP3   OH271785   0.886   4.900   5.721 -0.0775 -0.0812 -0.2456
16765TIP3    H171786   0.913   4.905   5.629  0.5860 -0.4770 -0.0803
16765TIP3    H271787   0.793   4.922   5.720  0.4109  2.0699 -0.7387
16766TIP3   OH271788   2.717   3.598  13.744  1.0879  0.0390 -0.1639
16766TIP3    H171789   2.798   3.600  13.795  1.6924 -0.8608 -1.0729
16766TIP3    H271790   2.672   3.519  13.775  1.3569 -0.3902 -0.8646
16767TIP3   OH271791   4.728   5.093  15.884 -0.1588 -0.6547  0.0019
16767TIP3    H171792   4.661   5.030  15.857  0.9737 -1.8333 -0.0944
16767TIP3    H271793   4.698   5.176  15.847 -0.0739 -1.7020 -2.5353
16768TIP3   OH271794   0.599   3.502  11.618  0.1214 -0.3260  0.5814
16768TIP3    H171795   0.623   3.534  11.705  1.1884  0.5529 -0.0309
16768TIP3    H271796   0.568   3.413  11.634 -0.5397  0.1411  1.9769
16769TIP3   OH271797   5.502   6.620  16.243 -0.4519  0.8231  0.3024
16769TIP3    H171798   5.485   6.687  16.308 -2.7220  1.3815 -0.8396
16769TIP3    H271799   5.495   6.665  16.159 -1.9133 -0.8015 -0.4700
16770TIP3   OH271800   4.413   5.598  16.197  0.0502 -0.4015  0.2200
16770TIP3    H171801   4.461   5.677  16.171  0.5449 -0.0179  2.2827
16770TIP3    H271802   4.406   5.548  16.116  0.4478  1.3742 -0.9515
16771TIP3   OH271803   4.055   1.093  11.496  0.8774  0.0370  0.2636
16771TIP3    H171804   4.129   1.061  11.444 -1.0518 -1.3664 -1.6811
16771TIP3    H271805   4.014   1.160  11.441  0.7982  0.9809  1.4409
16772TIP3   OH271806   3.657   1.385  14.202 -0.1976 -0.1387 -0.3707
16772TIP3    H171807   3.600   1.322  14.246 -0.2421  0.1721  0.0174
16772TIP3    H271808   3.600   1.457  14.177 -0.1238 -0.1946 -0.7083
16773TIP3   OH271809   0.228   6.441  15.490  0.1357 -0.0095 -0.3681
16773TIP3    H171810   0.227   6.492  15.409 -0.9096 -0.4730 -0.6524
16773TIP3    H271811   0.314   6.459  15.529 -0.2795  2.0849 -0.3783
16774TIP3   OH271812   6.032   1.186  13.776 -0.1800  0.0134  0.1761
16774TIP3    H171813   6.011   1.131  13.851  0.0506 -1.5567 -0.8653
16774TIP3    H271814   6.087   1.130  13.721  0.7778  1.6030 -0.5118
16775TIP3   OH271815   5.129   2.781  14.651 -0.2560 -0.0737  0.5259
16775TIP3    H171816   5.137   2.710  14.715 -1.1031 -0.0123  0.7054
16775TIP3    H271817   5.064   2.748  14.588 -0.7892  0.6242  0.7118
16776TIP3   OH271818   4.434   3.369  14.741 -0.6964 -0.0727  0.2807
16776TIP3    H171819   4.494   3.417  14.684  0.0214 -1.1107  0.1561
16776TIP3    H271820   4.487   3.344  14.816 -1.2664  0.0039  0.7113
16777TIP3   OH271821   5.303   6.523  13.808  0.3108  0.4288  0.3215
16777TIP3    H171822   5.357   6.463  13.859 -0.3866 -0.5562 -0.0819
16777TIP3    H271823   5.277   6.473  13.731 -1.4100  0.7705  0.6407
16778TIP3   OH271824   1.725   4.677   4.684 -0.1701  0.6323 -0.2424
16778TIP3    H171825   1.820   4.688   4.687 -0.1940  0.7414  0.2895
16778TIP3    H271826   1.705   4.622   4.759 -0.4122 -0.3390 -1.0160
16779TIP3   OH271827   1.813   0.707   0.556  0.2766 -0.0914  0.0506
16779TIP3    H171828   1.773   0.771   0.615  1.0219 -0.8862  1.4539
16779TIP3    H271829   1.828   0.755   0.474 -2.8575  0.4143 -0.2873
16780TIP3   OH271830   6.799   4.947   2.888 -0.3427 -0.5657  0.2732
16780TIP3    H171831   6.858   4.882   2.926  0.1091 -0.3739 -0.1032
16780TIP3    H271832   6.855   5.005   2.837 -1.1477 -1.9785 -2.3219
16781TIP3   OH271833   5.006   4.329   5.014 -0.8126  0.4378  0.0603
16781TIP3    H171834   5.003   4.392   5.086 -3.8986  1.4753 -0.8734
16781TIP3    H271835   4.985   4.382   4.936  1.1522 -0.9068 -1.4334
16782TIP3   OH271836   0.941   4.576  16.305  0.5080  0.2191  0.3190
16782TIP3    H171837   1.000   4.649  16.324  0.4944 -0.1756  1.9656
16782TIP3    H271838   0.994   4.515  16.253  1.2203  0.3436  0.8969
16783TIP3   OH271839   2.586   5.582   1.792 -0.1218  0.1049  0.3031
16783TIP3    H171840   2.506   5.605   1.840 -1.1291 -2.5349 -0.0163
16783TIP3    H271841   2.655   5.631   1.836 -1.5093  0.2658  2.3829
16784TIP3   OH271842   5.947   3.759   3.168  0.1594  0.1637  0.1581
16784TIP3    H171843   6.008   3.691   3.197 -0.8224 -0.1837  1.4282
16784TIP3    H271844   5.864   3.736   3.210 -1.1947 -0.0916 -2.5244
16785TIP3   OH271845   4.557   2.204  14.938 -0.2236 -0.1364  0.1831
16785TIP3    H171846   4.545   2.161  14.854 -0.2552 -0.6527  0.4497
16785TIP3    H271847   4.561   2.133  15.001  3.1504  0.0665  0.2443
16786TIP3   OH271848   4.999   3.105  13.742  0.1004  0.5403 -0.3518
16786TIP3    H171849   4.954   3.186  13.719 -2.4996 -0.7520  0.0201
16786TIP3    H271850   4.979   3.091  13.834  0.9228 -0.2971 -0.2889
16787TIP3   OH271851   5.272   5.856  14.879 -0.1857 -0.3867 -0.0482
16787TIP3    H171852   5.311   5.906  14.808  1.7513 -0.0609  1.1777
16787TIP3    H271853   5.212   5.916  14.922 -0.2778 -0.1335 -0.5376
16788TIP3   OH271854   4.635   4.194   3.359 -0.4086 -0.4076 -0.2159
16788TIP3    H171855   4.549   4.225   3.329 -1.0820 -2.5724 -0.6326
16788TIP3    H271856   4.615   4.126   3.423  1.0033 -0.6587 -0.0260
16789TIP3   OH271857   2.516   0.394  12.284 -0.0001 -0.0101 -0.3994
16789TIP3    H171858   2.548   0.341  12.357 -0.1937  2.2096  1.3536
16789TIP3    H271859   2.592   0.405  12.227  0.5724 -0.4277  0.2795
16790TIP3   OH271860   3.050   0.819  13.657 -0.0916  0.0890  0.2502
16790TIP3    H171861   3.111   0.885  13.624  2.5233 -1.2095  2.2867
16790TIP3    H271862   3.087   0.735  13.628 -1.3635 -0.6806  0.8075
16791TIP3   OH271863   2.989   4.367   3.572  0.3885  0.6670 -0.1070
16791TIP3    H171864   3.009   4.322   3.654  0.9559  1.3127  0.1103
16791TIP3    H271865   3.075   4.385   3.534  0.1181 -0.1072 -1.1022
16792TIP3   OH271866   3.750   2.017  10.272 -0.5821 -0.0868 -0.3416
16792TIP3    H171867   3.664   2.046  10.243  0.0543  0.7648 -1.4426
16792TIP3    H271868   3.744   1.922  10.274 -1.7781  0.0005  0.3231
16793TIP3   OH271869   2.574   3.501   3.776  0.6456 -0.6230 -0.0484
16793TIP3    H171870   2.529   3.450   3.708 -1.8082 -1.0959  1.8266
16793TIP3    H271871   2.652   3.535   3.734 -0.2219 -1.8755 -2.7590
16794TIP3   OH271872   2.820   0.133  15.381  0.5077 -0.0539 -0.0601
16794TIP3    H171873   2.741   0.083  15.401 -0.0474 -0.0388 -2.0949
16794TIP3    H271874   2.787   0.220  15.357  1.3146  0.6494  1.3700
16795TIP3   OH271875   5.141   2.328  17.264  0.4115 -0.0814 -0.1118
16795TIP3    H171876   5.103   2.413  17.288 -0.9857 -1.0650  1.2589
16795TIP3    H271877   5.076   2.264  17.292  1.7640 -1.6557 -0.5061
16796TIP3   OH271878   5.170   4.866   1.426 -0.0645  0.1708  0.7070
16796TIP3    H171879   5.148   4.959   1.417  1.7949  0.5777  0.2241
16796TIP3    H271880   5.157   4.847   1.519 -2.1084  0.4614  0.5069
16797TIP3   OH271881   4.248   5.683   5.398  0.2528 -0.0158 -0.1981
16797TIP3    H171882   4.278   5.594   5.412 -1.0421 -0.2271  1.4841
16797TIP3    H271883   4.322   5.728   5.356  2.6890 -0.6598  3.2016
16798TIP3   OH271884   2.152   2.984  12.058  0.0569 -0.5229  0.0173
16798TIP3    H171885   2.084   2.960  12.121  0.4306  0.4689  0.8126
16798TIP3    H271886   2.131   2.934  11.979  0.1825 -2.6198  1.2669
16799TIP3   OH271887   3.581   6.579   4.425  0.3039 -0.2729  0.1430
16799TIP3    H171888   3.648   6.537   4.479  2.1521 -0.1127 -1.9158
16799TIP3    H271889   3.622   6.660   4.395 -1.4517  0.6479  0.2058
16800TIP3   OH271890   4.770   3.182   2.167  0.2209  0.3767 -0.1521
16800TIP3    H171891   4.818   3.264   2.178  0.9293  0.0259 -0.5834
16800TIP3    H271892   4.790   3.132   2.246  2.5618 -0.7615 -1.4114
16801TIP3   OH271893   6.580   6.163   1.674 -0.2606 -0.0274  0.3924
16801TIP3    H171894   6.573   6.142   1.767 -1.5242 -0.3191  0.2386
16801TIP3    H271895   6.644   6.100   1.640  1.3447  1.0654  1.3514
16802TIP3   OH271896   5.289   4.439  14.743  0.0576  0.2848  0.0819
16802TIP3    H171897   5.349   4.512  14.760  0.6538 -0.2058  0.1013
16802TIP3    H271898   5.306   4.376  14.814 -1.5120  0.7815  0.9255
16803TIP3   OH271899   1.743   4.410   5.282  0.1442  0.0833 -0.9565
16803TIP3    H171900   1.766   4.421   5.374  0.7950  0.4733 -1.1655
16803TIP3    H271901   1.819   4.368   5.243  0.1150  0.4642 -1.4357
16804TIP3   OH271902   5.152   4.377   2.098 -0.0982 -1.2325 -0.1975
16804TIP3    H171903   5.241   4.404   2.123 -1.0879 -0.2557  2.4525
16804TIP3    H271904   5.124   4.320   2.169 -1.8861 -0.9310 -0.6489
16805TIP3   OH271905   0.472   1.340  15.602 -0.1031 -0.2281  0.2352
16805TIP3    H171906   0.517   1.275  15.656 -0.0631  0.8395  1.5120
16805TIP3    H271907   0.421   1.289  15.540  1.2301 -1.4699  0.1448
16806TIP3   OH271908   0.898   5.093  12.880 -0.3282 -0.1452  0.1177
16806TIP3    H171909   0.964   5.140  12.930 -0.8858 -0.1974  0.9066
16806TIP3    H271910   0.834   5.161  12.856 -0.5258 -0.2837  0.2510
16807TIP3   OH271911   1.290   4.145  14.261  0.3353 -0.8353  0.2107
16807TIP3    H171912   1.335   4.133  14.344 -1.6706  2.3340  1.8782
16807TIP3    H271913   1.201   4.114  14.277  0.0249 -0.5093 -0.8495
16808TIP3   OH271914   1.206   5.020  13.188 -0.1436 -0.2085  0.6284
16808TIP3    H171915   1.168   4.933  13.188  0.9841 -0.7203  1.1341
16808TIP3    H271916   1.254   5.025  13.105  0.2313 -0.2765  0.8384
16809TIP3   OH271917   4.552   1.666   2.911 -0.7295  0.1604 -0.2149
16809TIP3    H171918   4.489   1.600   2.885 -1.8629  0.8388  0.7823
16809TIP3    H271919   4.533   1.683   3.003  0.4317  0.8939 -0.0973
16810TIP3   OH271920   3.038   2.802  11.117  0.0559  0.3718  0.1854
16810TIP3    H171921   3.017   2.884  11.073  0.4820 -1.2120 -3.1412
16810TIP3    H271922   2.952   2.765  11.140 -0.3277  0.1596 -1.4661
16811TIP3   OH271923   2.925   3.019   5.474  0.0745 -0.3085  0.2670
16811TIP3    H171924   2.852   2.963   5.446  0.6924 -0.8725 -0.2435
16811TIP3    H271925   3.001   2.962   5.471  0.8407  0.7295 -0.9731
16812TIP3   OH271926   6.513   2.918  16.250  0.4010 -0.6440  0.2089
16812TIP3    H171927   6.575   2.988  16.269 -0.8486  0.8516 -1.1367
16812TIP3    H271928   6.567   2.839  16.243  2.1099  0.5956 -0.6837
16813TIP3   OH271929   4.275   6.124  15.193 -0.5432 -0.2200 -0.5324
16813TIP3    H171930   4.276   6.130  15.288 -1.7544 -0.1399 -0.5213
16813TIP3    H271931   4.354   6.171  15.165 -0.7840  0.7382  0.3798
16814TIP3   OH271932   5.246   6.106  17.066 -0.1035 -0.7588 -0.8280
16814TIP3    H171933   5.186   6.053  17.119 -1.5460  0.4110 -1.2343
16814TIP3    H271934   5.235   6.073  16.977 -1.4690  0.5694 -1.1858
16815TIP3   OH271935   2.900   0.095   3.349 -0.1419  0.3518  0.1326
16815TIP3    H171936   2.865   0.122   3.434 -1.4145 -1.0351  0.0735
16815TIP3    H271937   2.835   0.033   3.315  1.8603 -1.4370 -0.4839
16816TIP3   OH271938   0.190   2.885  13.598 -0.2960 -0.2796  0.2391
16816TIP3    H171939   0.149   2.832  13.667 -1.7862  0.9819  0.3698
16816TIP3    H271940   0.210   2.968  13.641 -1.2505  0.5215 -0.8213
16817TIP3   OH271941   5.612   2.243   4.826 -0.7020 -0.3127  0.4256
16817TIP3    H171942   5.668   2.320   4.826 -0.8930 -0.1609  1.3760
16817TIP3    H271943   5.622   2.207   4.914 -0.5562 -1.4175 -0.0338
16818TIP3   OH271944   6.434   6.461  11.672  0.5474  0.2926  0.6628
16818TIP3    H171945   6.381   6.394  11.630  1.0401  0.7627 -0.7466
16818TIP3    H271946   6.394   6.474  11.758 -1.1770  0.1260 -0.0978
16819TIP3   OH271947   5.653   4.681  11.549 -0.4606 -0.2272  0.2571
16819TIP3    H171948   5.657   4.749  11.482  0.9092 -0.0749  0.4786
16819TIP3    H271949   5.585   4.621  11.519 -2.4605  1.7882  0.6037
16820TIP3   OH271950   1.279   0.172  14.334 -0.0227  0.8860 -0.6291
16820TIP3    H171951   1.249   0.234  14.267 -0.5475  1.2559 -0.0551
16820TIP3    H271952   1.203   0.116  14.350  0.5651 -0.1380 -1.4083
16821TIP3   OH271953   2.856   2.786  15.063 -0.1150 -0.0645  0.0100
16821TIP3    H171954   2.833   2.864  15.113  0.5383  0.1646 -0.0437
16821TIP3    H271955   2.848   2.813  14.971 -0.5687 -0.2689 -0.0166
16822TIP3   OH271956   4.502   5.908  15.452  0.3935 -0.5625  0.0290
16822TIP3    H171957   4.534   5.990  15.489  0.8996 -1.4810  1.6845
16822TIP3    H271958   4.579   5.870  15.409  0.6118 -0.9902  0.7819
16823TIP3   OH271959   5.232   1.620   4.600  0.4252  0.2610  0.1144
16823TIP3    H171960   5.250   1.711   4.576 -0.7264  0.1119 -1.4157
16823TIP3    H271961   5.236   1.619   4.696 -2.1484  2.5067  0.3060
16824TIP3   OH271962   2.950   2.117  15.814  0.2636  0.2329 -0.1082
16824TIP3    H171963   2.905   2.042  15.776  1.9659  0.6136 -3.0421
16824TIP3    H271964   2.983   2.085  15.898 -0.6840 -1.6837 -0.4289
16825TIP3   OH271965   2.057   2.792   5.897  0.1585  0.2357  0.1866
16825TIP3    H171966   2.139   2.796   5.947 -0.1328 -2.0918  0.9006
16825TIP3    H271967   1.994   2.753   5.958 -0.6181 -1.1080 -1.4672
16826TIP3   OH271968   0.204   3.377   3.630 -0.1715  0.1159 -0.0923
16826TIP3    H171969   0.242   3.311   3.571 -0.9758 -1.1555  0.7963
16826TIP3    H271970   0.220   3.461   3.585  1.9943 -0.5450 -0.6340
16827TIP3   OH271971   4.667   5.909  11.995  0.3800  0.2881 -0.1281
16827TIP3    H171972   4.712   5.993  11.997 -0.6214  0.8211  0.1538
16827TIP3    H271973   4.652   5.892  11.902  0.4328  0.5029 -0.1756
16828TIP3   OH271974   0.093   6.471   3.756  0.2811  0.2974 -0.4787
16828TIP3    H171975   0.106   6.466   3.662 -0.6995 -0.4759 -0.5824
16828TIP3    H271976   0.167   6.522   3.788  0.9157  0.0930 -1.6014
16829TIP3   OH271977   6.423   1.879  16.717 -0.1855  0.5595 -0.0101
16829TIP3    H171978   6.474   1.852  16.793 -0.5738 -0.1208  0.0128
16829TIP3    H271979   6.486   1.922  16.659  0.0473  1.4233  0.8616
16830TIP3   OH271980   3.975   3.408  15.344  0.1789  0.0508 -0.2506
16830TIP3    H171981   3.980   3.412  15.440  1.6513 -0.5620 -0.2918
16830TIP3    H271982   3.892   3.452  15.323 -1.2007 -1.6672  1.4293
16831TIP3   OH271983   2.272   2.357   1.295  0.4474 -0.3584  0.3586
16831TIP3    H171984   2.210   2.430   1.293  1.8847  0.9310  1.5644
16831TIP3    H271985   2.237   2.294   1.232 -1.9307  0.4534  0.8061
16832TIP3   OH271986   3.815   4.190   1.720 -0.3907  0.2008  0.4781
16832TIP3    H171987   3.788   4.203   1.629 -0.5409  0.2595  0.5313
16832TIP3    H271988   3.789   4.270   1.765 -1.1068 -0.1825  0.7597
16833TIP3   OH271989   2.003   4.573  16.429 -0.3481  0.2963 -0.0072
16833TIP3    H171990   1.950   4.513  16.376 -0.8010 -0.1383  0.9235
16833TIP3    H271991   1.955   4.580  16.512  0.0794  1.3749  0.1583
16834TIP3   OH271992   1.289   4.183   6.061  0.0504 -0.1812  0.4097
16834TIP3    H171993   1.306   4.237   6.138 -0.5401 -0.0531  0.4522
16834TIP3    H271994   1.200   4.149   6.074 -0.8472  1.4693 -1.1766
16835TIP3   OH271995   5.492   4.971  15.131  0.0456 -0.0245 -0.2804
16835TIP3    H171996   5.585   4.972  15.150 -0.6353  1.0668  3.2649
16835TIP3    H271997   5.464   4.882  15.151 -0.0591  0.2269  0.6979
16836TIP3   OH271998   3.149   4.458  12.545 -0.5428  0.3527  0.4788
16836TIP3    H171999   3.212   4.529  12.537 -1.1370  0.7071 -1.4305
16836TIP3    H272000   3.192   4.383  12.502  0.0263 -0.4185  2.3570
16837TIP3   OH272001   3.428   6.721  12.888  0.3171 -0.0215  0.0943
16837TIP3    H172002   3.373   6.724  12.966 -2.2449  1.2223 -1.6507
16837TIP3    H272003   3.470   6.807  12.885 -2.2440  1.2529 -1.6187
16838TIP3   OH272004   0.667   1.671   3.069  0.7744  0.4672  0.0179
16838TIP3    H172005   0.683   1.699   3.159  1.4680  0.2331 -0.0265
16838TIP3    H272006   0.747   1.696   3.022  0.3774  0.6711 -0.5485
16839TIP3   OH272007   3.051   2.633   3.191  0.6245  0.0461  0.8828
16839TIP3    H172008   3.025   2.713   3.146  0.7008  0.2143  1.1405
16839TIP3    H272009   3.144   2.645   3.211  0.4613  0.1954  1.5644
16840TIP3   OH272010   3.568   3.386  12.124  0.3077 -0.1046 -0.3087
16840TIP3    H172011   3.640   3.340  12.167 -1.5511 -1.3919  1.5019
16840TIP3    H272012   3.570   3.354  12.033  0.9605 -1.4073  0.1598
16841TIP3   OH272013   5.828   2.639   1.907 -0.2669 -0.3014  0.1355
16841TIP3    H172014   5.787   2.654   1.993 -1.8123 -0.4727 -0.5402
16841TIP3    H272015   5.844   2.545   1.905 -1.0717 -0.4343 -0.1224
16842TIP3   OH272016   6.559   4.270  13.802 -0.0654 -0.5680  0.6944
16842TIP3    H172017   6.648   4.276  13.767 -0.3504 -0.3655 -0.0200
16842TIP3    H272018   6.570   4.265  13.897  0.7687 -1.9165  0.5454
16843TIP3   OH272019   0.310   4.347   2.364 -0.0469 -0.6273 -0.0009
16843TIP3    H172020   0.299   4.345   2.459 -0.9885  1.3004 -0.0444
16843TIP3    H272021   0.277   4.433   2.338  1.7202 -0.5003 -1.8915
16844TIP3   OH272022   0.774   5.274   2.288  0.0511  0.0564 -0.2530
16844TIP3    H172023   0.720   5.197   2.272 -0.2411  0.3982 -0.9357
16844TIP3    H272024   0.862   5.240   2.301 -0.3498 -0.5243  1.0484
16845TIP3   OH272025   0.724   1.470  13.200  0.1088 -0.0417  0.0094
16845TIP3    H172026   0.714   1.474  13.295 -0.2031 -1.0607  0.0286
16845TIP3    H272027   0.800   1.526  13.182  1.5553 -1.5862  1.1086
16846TIP3   OH272028   6.010   5.054   5.889 -0.3180 -0.1922  0.3397
16846TIP3    H172029   5.962   5.079   5.968 -1.9641  0.6868 -0.8828
16846TIP3    H272030   6.062   5.131   5.867 -0.4726 -0.1476  0.1265
16847TIP3   OH272031   0.313   0.475   6.977 -0.3194  0.0479  0.5234
16847TIP3    H172032   0.245   0.541   6.963  0.1124  0.0749 -1.5954
16847TIP3    H272033   0.383   0.499   6.916  0.0042 -2.1367 -0.0124
16848TIP3   OH272034   0.908   3.263  16.734 -0.5689 -0.1460  0.0945
16848TIP3    H172035   0.962   3.304  16.666 -0.0050  2.5627  2.0923
16848TIP3    H272036   0.843   3.329  16.756 -0.0807 -0.5486  2.9216
16849TIP3   OH272037   0.822   4.328   5.782  0.1830 -0.5383  0.5954
16849TIP3    H172038   0.806   4.334   5.876 -1.4946 -0.4175  0.3162
16849TIP3    H272039   0.917   4.323   5.774  0.3976  0.6631  2.2235
16850TIP3   OH272040   0.305   6.770   1.025 -0.1168 -0.4026  0.0301
16850TIP3    H172041   0.345   6.833   0.966 -1.1037 -0.2906 -0.5196
16850TIP3    H272042   0.379   6.719   1.059  0.5553  0.2279 -0.4749
16851TIP3   OH272043   3.792   1.224  16.330  0.1992 -0.2776  0.2457
16851TIP3    H172044   3.805   1.237  16.424  1.1613 -2.3225  0.4009
16851TIP3    H272045   3.706   1.183  16.323 -0.2462  0.6420  0.1464
16852TIP3   OH272046   3.435   2.501  13.230 -0.1477 -0.0271 -0.5041
16852TIP3    H172047   3.520   2.544  13.236 -0.0386  0.2321 -3.2589
16852TIP3    H272048   3.452   2.411  13.259  0.8141  0.3306  0.0522
16853TIP3   OH272049   5.956   6.061   1.868 -0.2404  1.0135 -0.1868
16853TIP3    H172050   5.965   6.035   1.776  1.5517  1.5892 -0.1746
16853TIP3    H272051   5.984   6.152   1.871 -1.3771  1.3524  0.7507
16854TIP3   OH272052   3.710   4.285   3.814  0.3432 -0.2160  0.7717
16854TIP3    H172053   3.738   4.282   3.723 -1.6355 -3.5852  0.2026
16854TIP3    H272054   3.790   4.305   3.863  1.7634 -0.0469 -1.5528
16855TIP3   OH272055   6.217   3.485  13.853  0.5874  0.5817 -0.1082
16855TIP3    H172056   6.255   3.553  13.910  2.2707  0.7795 -1.4494
16855TIP3    H272057   6.241   3.512  13.765 -1.5282 -0.0436 -0.8914
16856TIP3   OH272058   3.752   0.730  17.248  0.5413 -0.7080  0.3071
16856TIP3    H172059   3.713   0.646  17.227 -2.1976  0.2004  1.6038
16856TIP3    H272060   3.736   0.742  17.341  1.1142  1.1313  0.1915
16857TIP3   OH272061   4.456   6.389   3.821  0.5109 -0.0100  0.3828
16857TIP3    H172062   4.432   6.339   3.899 -0.3118 -0.9734 -0.4772
16857TIP3    H272063   4.442   6.481   3.846 -0.2534 -0.3418  1.1893
16858TIP3   OH272064   4.560   3.824   1.355  0.3466  0.5536 -0.4061
16858TIP3    H172065   4.512   3.903   1.382  0.9797  0.5312  0.8197
16858TIP3    H272066   4.525   3.754   1.410  1.2183  0.3871 -0.0515
16859TIP3   OH272067   5.846   4.449  11.144 -0.1822  0.1015  0.1548
16859TIP3    H172068   5.862   4.493  11.061  0.8463 -0.6565 -0.0576
16859TIP3    H272069   5.770   4.393  11.127 -0.3487  0.4052 -0.1023
16860TIP3   OH272070   5.660   0.267   3.411 -0.0472 -0.0377  0.6525
16860TIP3    H172071   5.685   0.330   3.343 -1.0366  1.0804  1.2766
16860TIP3    H272072   5.564   0.275   3.415 -0.1671 -1.5576  0.7826
16861TIP3   OH272073   6.257   1.329  10.222  0.0418  0.4510  0.3707
16861TIP3    H172074   6.326   1.289  10.274  0.9330  0.4438 -0.7830
16861TIP3    H272075   6.274   1.423  10.228  0.1712  0.4488  0.0763
16862TIP3   OH272076   0.381   5.185  14.274  0.0574  1.0073  0.0073
16862TIP3    H172077   0.448   5.149  14.215 -0.7035 -1.9843  0.8734
16862TIP3    H272078   0.421   5.264  14.309  2.0920  0.7121 -1.5266
16863TIP3   OH272079   1.488   6.793  14.304  0.5829 -0.6433  0.0329
16863TIP3    H172080   1.457   6.704  14.316  0.3609 -0.4337  1.1415
16863TIP3    H272081   1.410   6.845  14.287  0.5447 -0.4516  0.7515
16864TIP3   OH272082   4.479   1.083  10.274 -0.2407 -0.8668 -0.2248
16864TIP3    H172083   4.483   1.003  10.221 -1.0017 -1.3324  0.3948
16864TIP3    H272084   4.551   1.137  10.243 -0.6234 -1.1706 -1.6734
16865TIP3   OH272085   5.608   5.723  15.968 -0.4104  0.2103 -0.3901
16865TIP3    H172086   5.674   5.733  15.900 -0.6902  0.6936 -0.5972
16865TIP3    H272087   5.639   5.778  16.040 -0.2494 -0.0906 -0.2286
16866TIP3   OH272088   0.533   4.001   5.118  0.0568  0.0899  0.9528
16866TIP3    H172089   0.614   4.034   5.156  0.6161  1.1513 -1.1180
16866TIP3    H272090   0.470   4.073   5.130 -0.8483 -1.0139  3.2515
16867TIP3   OH272091   4.556   5.425  14.800 -0.2616 -0.0709 -0.4806
16867TIP3    H172092   4.535   5.515  14.823 -0.4608 -0.2951  0.2442
16867TIP3    H272093   4.591   5.430  14.711 -0.9350  0.6305 -0.7095
16868TIP3   OH272094   1.383   3.256  15.989 -0.2333 -0.2151 -0.1376
16868TIP3    H172095   1.456   3.246  16.051 -0.0781  0.2048 -0.2567
16868TIP3    H272096   1.361   3.349  15.992 -1.3488 -0.4931  0.5660
16869TIP3   OH272097   1.433   0.322  16.382 -0.1187 -0.6165  0.2446
16869TIP3    H172098   1.423   0.268  16.460  0.3932 -1.7942 -0.4878
16869TIP3    H272099   1.345   0.328  16.346  0.0334 -2.2710 -0.4944
16870TIP3   OH272100   5.949   3.077   2.855  0.1855  0.6373  0.5836
16870TIP3    H172101   5.874   3.023   2.878  0.0879  1.4752  2.2853
16870TIP3    H272102   6.025   3.026   2.881  0.1481  0.5400  0.5020
16871TIP3   OH272103   3.196   5.903   5.919 -0.1833 -0.1210 -0.1063
16871TIP3    H172104   3.211   5.965   5.991 -1.9868  2.4845 -1.8649
16871TIP3    H272105   3.263   5.836   5.931  3.0817  3.1249  0.8518
16872TIP3   OH272106   2.835   6.144   4.374  0.2182  0.6700 -0.3639
16872TIP3    H172107   2.915   6.148   4.428  0.2958  2.1578 -0.5613
16872TIP3    H272108   2.776   6.086   4.422  0.4390  1.6743  1.1511
16873TIP3   OH272109   0.138   0.816   4.053 -0.2961  1.0063 -0.6224
16873TIP3    H172110   0.106   0.868   4.127 -0.6680  0.2716 -0.2617
16873TIP3    H272111   0.087   0.847   3.978  0.6573  2.3337 -0.7465
16874TIP3   OH272112   6.105   1.568  15.928  0.2157  0.4547 -0.0331
16874TIP3    H172113   6.032   1.623  15.955 -1.4581 -1.4078 -0.6514
16874TIP3    H272114   6.178   1.629  15.915 -2.0219  2.7589 -2.3044
16875TIP3   OH272115   1.136   5.276   1.930 -0.9482 -0.0903 -0.1267
16875TIP3    H172116   1.188   5.290   2.009 -2.3208  2.4591  0.3872
16875TIP3    H272117   1.167   5.192   1.895  3.4880  1.2809  0.1613
16876TIP3   OH272118   4.793   5.330   3.610 -0.6582 -0.0153 -0.3190
16876TIP3    H172119   4.780   5.350   3.703  0.6872 -1.1584  0.1381
16876TIP3    H272120   4.888   5.336   3.597 -0.9562  1.6254 -1.9896
16877TIP3   OH272121   6.634   4.896  16.490  0.2324  0.3816 -0.2888
16877TIP3    H172122   6.702   4.841  16.451  1.4496  0.5311  1.5162
16877TIP3    H272123   6.642   4.880  16.584 -1.6747  1.0670  0.0176
16878TIP3   OH272124   5.390   3.553   2.961  0.1279 -0.6111  0.6692
16878TIP3    H172125   5.348   3.519   3.041 -0.5703  0.4386  0.7549
16878TIP3    H272126   5.483   3.554   2.981  0.0061 -0.9331  1.2562
16879TIP3   OH272127   4.368   6.780  15.819 -0.2661 -0.2698 -0.0973
16879TIP3    H172128   4.409   6.788  15.733  0.9493  0.3788  0.5312
16879TIP3    H272129   4.426   6.723  15.869  0.8164  1.9892  1.3325
16880TIP3   OH272130   3.274   4.462  16.682  0.8617  0.2473 -0.4941
16880TIP3    H172131   3.344   4.525  16.699  0.9570 -0.0724  0.3393
16880TIP3    H272132   3.316   4.392  16.632  1.0110  0.3156 -0.4626
16881TIP3   OH272133   4.431   0.482   1.407  0.1478  0.5955  0.2277
16881TIP3    H172134   4.455   0.398   1.367 -0.4013  1.0060 -0.9810
16881TIP3    H272135   4.388   0.458   1.489  0.2270 -0.2995  0.0145
16882TIP3   OH272136   2.009   6.041  14.645  0.2294 -0.0633 -0.1858
16882TIP3    H172137   1.980   6.029  14.736 -0.1732 -0.9666 -0.4235
16882TIP3    H272138   1.949   6.107  14.610  0.0486 -0.0922  0.0605
16883TIP3   OH272139   0.161   2.374  11.737  0.5058 -0.1424  0.2989
16883TIP3    H172140   0.114   2.396  11.657  0.2018 -0.5329  0.3719
16883TIP3    H272141   0.175   2.459  11.780  2.0214  0.2420 -0.9042
16884TIP3   OH272142   1.072   3.256  14.049 -0.5093 -0.0950 -0.1298
16884TIP3    H172143   0.990   3.243  14.096 -1.6232  0.0792 -1.9707
16884TIP3    H272144   1.112   3.169  14.046 -0.6998 -0.2106  0.6227
16885TIP3   OH272145   0.689   1.280   5.681 -0.4689  0.1472  0.2506
16885TIP3    H172146   0.663   1.348   5.619 -1.0271  0.7541  1.1509
16885TIP3    H272147   0.680   1.320   5.767  1.4685 -0.3017  0.6964
16886TIP3   OH272148   3.262   1.432   3.652  0.2405  0.6081  0.0572
16886TIP3    H172149   3.246   1.370   3.724  0.4060  1.4271  0.8008
16886TIP3    H272150   3.352   1.462   3.665  0.9134 -0.5935 -1.5395
16887TIP3   OH272151   5.187   5.687  13.005 -0.7531 -0.1054 -0.2202
16887TIP3    H172152   5.139   5.714  13.083 -1.4176  1.1615 -1.0597
16887TIP3    H272153   5.279   5.697  13.029 -0.9088 -1.6679  1.0787
16888TIP3   OH272154   5.677   2.195   3.449 -0.6382 -0.1054 -0.1856
16888TIP3    H172155   5.694   2.158   3.362  0.6264  1.4503 -0.6210
16888TIP3    H272156   5.709   2.128   3.509  2.1699  0.4534 -0.9702
16889TIP3   OH272157   3.619   3.919   4.432  0.5741  0.3303  0.0309
16889TIP3    H172158   3.598   4.007   4.461  0.6771  0.1159  0.7707
16889TIP3    H272159   3.708   3.904   4.463  0.9337  0.3418 -0.9817
16890TIP3   OH272160   4.934   1.481   6.079 -0.1069  0.2440  0.3360
16890TIP3    H172161   5.013   1.427   6.075 -1.1267 -1.2113 -0.3216
16890TIP3    H272162   4.936   1.520   6.167  0.7549 -0.6618  0.7251
16891TIP3   OH272163   5.722   3.936  12.519  0.9771 -0.6095  0.1575
16891TIP3    H172164   5.743   3.862  12.463  1.4308 -0.0863 -0.3689
16891TIP3    H272165   5.806   3.975  12.541  0.7295 -0.1080  0.2331
16892TIP3   OH272166   5.572   6.515   5.291 -0.2013 -0.2452 -0.1201
16892TIP3    H172167   5.580   6.458   5.368 -0.0717 -1.7774 -1.2264
16892TIP3    H272168   5.489   6.561   5.303  0.0784 -0.0895  1.1888
16893TIP3   OH272169   6.085   4.643   4.335 -0.0455  0.0326 -0.5559
16893TIP3    H172170   6.103   4.575   4.400  0.5247 -0.2038 -0.9653
16893TIP3    H272171   6.111   4.724   4.378 -0.8515  0.0201 -0.0157
16894TIP3   OH272172   1.911   3.483   3.448  0.0962  0.1283 -0.4603
16894TIP3    H172173   1.944   3.509   3.361  0.0761 -0.0419 -0.5201
16894TIP3    H272174   1.975   3.519   3.509  0.4188 -0.2305 -0.5788
16895TIP3   OH272175   3.135   3.706   2.273  0.0470  0.6236  0.7517
16895TIP3    H172176   3.211   3.763   2.285 -0.1900  1.0203  0.3620
16895TIP3    H272177   3.076   3.729   2.344  0.8858 -0.6573  1.8865
16896TIP3   OH272178   5.355   2.703   1.617 -0.3688  0.1142 -0.6973
16896TIP3    H172179   5.356   2.783   1.565 -2.1768  0.3887 -0.3310
16896TIP3    H272180   5.308   2.726   1.697 -0.4267 -1.1619 -0.3426
16897TIP3   OH272181   0.727   4.358   0.500  0.6841 -0.2668 -0.7653
16897TIP3    H172182   0.723   4.438   0.551  0.2961 -0.0738 -1.0975
16897TIP3    H272183   0.712   4.386   0.410  0.6632 -0.6966 -0.8981
16898TIP3   OH272184   0.080   3.335  16.470  0.1056  0.0303  0.1444
16898TIP3    H172185   0.006   3.286  16.504  0.0932 -0.2948 -0.3497
16898TIP3    H272186   0.041   3.412  16.427 -0.0654 -0.9315 -1.4840
16899TIP3   OH272187   1.916   1.313   0.518  0.3549  0.2455 -0.1714
16899TIP3    H172188   1.874   1.233   0.551 -0.4150  0.9464  0.5852
16899TIP3    H272189   1.996   1.282   0.475 -0.1671 -0.9724 -0.2894
16900TIP3   OH272190   2.889   3.406   0.170 -0.3350 -0.0979  0.3596
16900TIP3    H172191   2.929   3.423   0.255 -0.5440  1.8340  0.0796
16900TIP3    H272192   2.795   3.397   0.189 -0.6221  2.1928  0.0948
16901TIP3   OH272193   2.294   0.166  15.015  0.4924  0.0246 -0.3426
16901TIP3    H172194   2.203   0.163  14.985 -0.0836 -0.4859  1.4063
16901TIP3    H272195   2.346   0.158  14.934 -1.0137 -1.2584 -1.2192
16902TIP3   OH272196   5.309   3.633  11.738  0.2699 -0.0983  0.4250
16902TIP3    H172197   5.376   3.680  11.788 -0.3221  0.5624  0.6139
16902TIP3    H272198   5.274   3.568  11.799  1.0962 -0.7880  0.1622
16903TIP3   OH272199   5.476   1.876   6.862  0.3341 -0.7114  0.1801
16903TIP3    H172200   5.560   1.839   6.889  0.0600 -1.0131  0.6263
16903TIP3    H272201   5.443   1.815   6.796  2.2697  1.4415 -2.9064
16904TIP3   OH272202   0.335   5.422  16.311  0.7524 -0.0518  0.0509
16904TIP3    H172203   0.418   5.467  16.295  0.9558 -0.3212  0.3388
16904TIP3    H272204   0.276   5.456  16.243  0.2163  2.3699  1.6825
16905TIP3   OH272205   4.609   2.366  11.149  0.0709  0.0618  0.5348
16905TIP3    H172206   4.608   2.388  11.242 -1.7262 -3.1355  1.3479
16905TIP3    H272207   4.524   2.397  11.117 -0.6891 -1.8013  0.7264
16906TIP3   OH272208   2.252   3.380  11.596  0.2896 -0.0186  0.0985
16906TIP3    H172209   2.259   3.471  11.624 -0.6592  0.2772 -0.5894
16906TIP3    H272210   2.341   3.356  11.570  0.3105  1.1301 -0.9604
16907TIP3   OH272211   1.619   1.080   3.094 -0.2057 -0.8813 -0.0867
16907TIP3    H172212   1.665   1.108   3.015 -1.9577  1.1942 -0.4396
16907TIP3    H272213   1.526   1.085   3.070 -0.7439 -0.6413  1.9585
16908TIP3   OH272214   0.269   0.307  12.763 -0.0343  0.5465  0.0981
16908TIP3    H172215   0.363   0.319  12.777 -0.2411  2.2138  0.0971
16908TIP3    H272216   0.247   0.367  12.693 -1.1561  0.3285  0.2495
16909TIP3   OH272217   0.305   3.774   0.629  0.1943 -0.2842  0.8365
16909TIP3    H172218   0.344   3.857   0.656  0.9271  0.4678 -2.2982
16909TIP3    H272219   0.357   3.707   0.675  2.0667  0.8904  0.5061
16910TIP3   OH272220   4.741   6.370  12.874  0.5955 -0.1895  0.2992
16910TIP3    H172221   4.703   6.361  12.786  1.5995  2.0711 -0.3926
16910TIP3    H272222   4.807   6.301  12.878 -0.2422 -1.0459 -0.2818
16911TIP3   OH272223   6.264   3.402   3.484  0.3848  0.2544 -0.0854
16911TIP3    H172224   6.265   3.481   3.429  1.6589  0.7862  0.6815
16911TIP3    H272225   6.249   3.435   3.573 -1.2771 -0.5636 -0.0491
16912TIP3   OH272226   4.507   2.899  13.431 -0.0219  0.0249 -0.5865
16912TIP3    H172227   4.525   2.838  13.360 -4.4023 -0.2223 -1.6545
16912TIP3    H272228   4.522   2.849  13.511 -1.6716 -1.9245 -1.4356
16913TIP3   OH272229   1.622   0.983  12.419  0.7846  0.0379  0.5671
16913TIP3    H172230   1.588   0.894  12.416  2.0663 -0.4300 -0.6506
16913TIP3    H272231   1.547   1.038  12.394 -0.1515 -0.6437  1.8800
16914TIP3   OH272232   1.056   5.085   2.749  0.3666  0.1618 -0.9813
16914TIP3    H172233   0.971   5.041   2.741  0.4933 -0.5736  1.1955
16914TIP3    H272234   1.036   5.178   2.741 -0.7268  0.0181 -0.1516
16915TIP3   OH272235   4.842   6.408   5.012 -0.2846  0.1089 -0.3015
16915TIP3    H172236   4.931   6.434   4.991  0.2084 -0.5166  0.9708
16915TIP3    H272237   4.819   6.343   4.945 -0.7384  2.1231 -2.1686
16916TIP3   OH272238   5.202   3.963  11.676 -0.5110 -0.0073  0.3669
16916TIP3    H172239   5.254   3.913  11.614  0.6622 -0.0585  1.3731
16916TIP3    H272240   5.223   4.055  11.657  1.9857 -0.0972  2.4770
16917TIP3   OH272241   2.173   0.768  16.441 -0.0276 -0.2591  0.0804
16917TIP3    H172242   2.156   0.690  16.494  1.2001 -0.4429  0.2093
16917TIP3    H272243   2.179   0.735  16.352 -0.1582 -0.2142  0.0553
16918TIP3   OH272244   2.361   1.397  12.042  0.1973 -0.1396 -0.6132
16918TIP3    H172245   2.299   1.418  12.111 -1.2897 -1.4944 -1.5141
16918TIP3    H272246   2.404   1.480  12.022  1.2264  0.1279  2.4672
16919TIP3   OH272247   4.395   0.625  16.624 -0.1667 -0.0940 -0.6963
16919TIP3    H172248   4.340   0.563  16.576 -0.9364 -0.8381  1.0935
16919TIP3    H272249   4.406   0.699  16.564 -1.8549 -0.6126 -1.6730
16920TIP3   OH272250   1.613   3.756   6.318  0.3424  0.3208  0.4695
16920TIP3    H172251   1.691   3.791   6.276 -0.4923  0.1555 -1.2812
16920TIP3    H272252   1.577   3.830   6.367  2.8496 -0.2106  3.2879
16921TIP3   OH272253   4.852   3.901   5.465  0.2063 -0.0481 -0.7733
16921TIP3    H172254   4.762   3.935   5.460 -0.0020 -0.1235  1.8292
16921TIP3    H272255   4.846   3.813   5.427 -0.8181 -0.0407 -0.6465
16922TIP3   OH272256   3.804   6.646  12.887  0.1138 -0.3459 -0.5226
16922TIP3    H172257   3.868   6.716  12.903 -0.5695 -0.0502  0.9887
16922TIP3    H272258   3.734   6.664  12.949 -0.3229 -2.0776 -0.5109
16923TIP3   OH272259   1.145   4.088  13.629  0.6083  0.3465  0.1792
16923TIP3    H172260   1.058   4.094  13.668  0.3731  2.4575 -0.6125
16923TIP3    H272261   1.195   4.157  13.671  1.5231  0.0068 -0.3340
16924TIP3   OH272262   3.722   1.479  15.434 -0.3950 -0.1117 -0.3629
16924TIP3    H172263   3.646   1.459  15.379  0.6938 -0.8555 -1.6221
16924TIP3    H272264   3.779   1.531  15.378  0.6783 -0.7830  0.0881
16925TIP3   OH272265   6.764   0.352  13.917  0.6936 -0.5818 -0.2359
16925TIP3    H172266   6.756   0.262  13.884  2.3784 -2.2346  3.5475
16925TIP3    H272267   6.855   0.375  13.902  0.5524  0.0430 -0.1468
16926TIP3   OH272268   2.515   1.509   5.486 -0.6429 -0.0987  0.0652
16926TIP3    H172269   2.460   1.518   5.564 -1.0023  0.9911 -0.3065
16926TIP3    H272270   2.589   1.457   5.515  0.0880  1.7387  1.5818
16927TIP3   OH272271   0.126   3.793   0.172 -0.0971  0.1040 -0.2891
16927TIP3    H172272   0.189   3.795   0.100 -0.9107  0.0769 -1.0159
16927TIP3    H272273   0.166   3.845   0.241  1.8677 -2.0151  0.2232
16928TIP3   OH272274   4.208   3.117   1.967  0.6582 -0.2736 -0.3266
16928TIP3    H172275   4.123   3.144   2.002  1.3435  1.5936 -0.0620
16928TIP3    H272276   4.257   3.087   2.043 -0.1434 -2.4665 -0.6357
16929TIP3   OH272277   0.926   4.965  14.806 -0.1113 -0.3705 -0.0509
16929TIP3    H172278   0.871   5.028  14.760 -0.4955 -0.4160  0.3499
16929TIP3    H272279   1.012   4.973  14.764 -0.1061  0.5516  0.1338
16930TIP3   OH272280   3.541   6.376   3.290  0.3465  0.3936  0.1187
16930TIP3    H172281   3.522   6.381   3.384  1.9876  0.6052  0.4636
16930TIP3    H272282   3.635   6.355   3.287  0.0118 -0.9594 -1.4632
16931TIP3   OH272283   3.981   3.894   1.364  0.3114 -0.0291  0.4577
16931TIP3    H172284   4.036   3.880   1.441  0.1146 -0.7791  0.4581
16931TIP3    H272285   4.042   3.927   1.297  0.6728 -0.4103  0.5992
16932TIP3   OH272286   2.138   1.228  13.479  0.6256 -0.6379 -0.1335
16932TIP3    H172287   2.132   1.226  13.384 -0.9330 -2.4629 -0.0080
16932TIP3    H272288   2.208   1.166  13.500 -0.5449 -1.8976  0.0344
16933TIP3   OH272289   6.309   1.461  16.789 -0.3770 -0.3657  0.3812
16933TIP3    H172290   6.383   1.458  16.728 -0.1963  2.6325  0.3805
16933TIP3    H272291   6.246   1.398  16.753  0.1563  0.5682 -2.3393
16934TIP3   OH272292   2.742   5.634  14.135  0.4094  0.0543  0.7680
16934TIP3    H172293   2.726   5.727  14.149 -1.8392 -0.0564 -0.7837
16934TIP3    H272294   2.736   5.623  14.040 -1.6377 -2.0268  1.0855
16935TIP3   OH272295   1.942   2.959   3.773  0.2643  0.5076 -0.2859
16935TIP3    H172296   1.847   2.968   3.765  0.1643  0.2404  0.5712
16935TIP3    H272297   1.960   2.966   3.867  1.0563  0.2299 -0.4077
16936TIP3   OH272298   1.683   5.392   4.579 -0.2599 -0.3093  0.2388
16936TIP3    H172299   1.772   5.395   4.615 -0.8381 -0.7234  1.7147
16936TIP3    H272300   1.694   5.419   4.488  1.4069 -0.4880  0.3625
16937TIP3   OH272301   5.686   2.119   6.785 -0.3594 -0.2647  0.4470
16937TIP3    H172302   5.717   2.204   6.754 -1.2728 -0.9135 -2.3604
16937TIP3    H272303   5.612   2.140   6.842 -0.4447  0.8375 -0.0520
16938TIP3   OH272304   2.230   2.710  11.176  0.3150 -0.6045 -0.5405
16938TIP3    H172305   2.293   2.758  11.123  0.9203  0.6761  1.2595
16938TIP3    H272306   2.271   2.705  11.263 -2.1094  0.4506  0.7304
16939TIP3   OH272307   1.402   0.522   0.818  0.2322  0.4392 -0.4544
16939TIP3    H172308   1.344   0.448   0.804  0.5225  0.0630  0.3241
16939TIP3    H272309   1.343   0.597   0.826 -0.1502  0.0725  0.2350
16940TIP3   OH272310   0.422   4.201  10.879  0.0336  0.8092  0.2014
16940TIP3    H172311   0.399   4.177  10.969 -1.4154 -1.2756 -0.6786
16940TIP3    H272312   0.512   4.168  10.869 -1.0698 -2.3096 -0.2045
16941TIP3   OH272313   0.405   6.650   4.155 -0.1103  0.5630  0.1375
16941TIP3    H172314   0.490   6.611   4.177 -0.4799  0.4233  1.3790
16941TIP3    H272315   0.341   6.592   4.195 -0.8253  0.2515 -1.4645
16942TIP3   OH272316   3.060   2.686  10.418  0.5524  0.3538  0.0549
16942TIP3    H172317   3.106   2.620  10.471 -0.3058 -0.2988 -0.0022
16942TIP3    H272318   2.968   2.677  10.442  0.3448  1.0985 -0.4320
16943TIP3   OH272319   6.472   4.923  17.016 -0.1404  0.0911 -0.1715
16943TIP3    H172320   6.556   4.968  17.007  0.4295 -1.1203 -0.9396
16943TIP3    H272321   6.430   4.932  16.931 -1.5907  2.2078  0.7062
16944TIP3   OH272322   4.872   0.706   2.541 -0.3269 -0.3881 -0.2325
16944TIP3    H172323   4.868   0.630   2.483 -1.4111  0.1503 -0.8958
16944TIP3    H272324   4.797   0.695   2.600 -1.6554  1.0916 -1.5594
16945TIP3   OH272325   3.650   1.654  16.337  0.3891  0.6492 -0.1133
16945TIP3    H172326   3.613   1.740  16.318  0.4815  0.9263  0.8947
16945TIP3    H272327   3.580   1.592  16.317  0.1728  0.9886 -0.4169
16946TIP3   OH272328   3.651   3.899   5.302  0.3536 -0.0596 -0.3032
16946TIP3    H172329   3.612   3.968   5.249  2.3603  0.4765 -1.1159
16946TIP3    H272330   3.583   3.878   5.367 -0.4723  2.3149 -0.3364
16947TIP3   OH272331   5.969   5.497   4.832 -0.4871 -0.2347  0.0674
16947TIP3    H172332   5.921   5.579   4.846 -0.7047 -0.5775  1.3178
16947TIP3    H272333   6.029   5.518   4.761 -1.5516  0.5899 -0.6251
16948TIP3   OH272334   1.639   0.570   2.520 -0.0757 -0.2575  0.0752
16948TIP3    H172335   1.672   0.571   2.610 -0.6680  0.7284  0.2982
16948TIP3    H272336   1.717   0.566   2.465  0.2425 -2.2971  0.6489
16949TIP3   OH272337   5.390   4.120   2.021 -0.0838  0.2199 -0.0334
16949TIP3    H172338   5.445   4.066   1.965  1.1861  0.3755  1.0407
16949TIP3    H272339   5.329   4.059   2.062  0.2239 -0.1526 -0.1310
16950TIP3   OH272340   2.734   1.938   0.466  0.0609 -0.3351  0.0436
16950TIP3    H172341   2.736   1.847   0.438 -0.3628 -0.3333 -0.0027
16950TIP3    H272342   2.740   1.934   0.562  0.9997 -0.3649 -0.0203
16951TIP3   OH272343   1.960   4.928  12.439 -0.3100 -0.5694 -0.3971
16951TIP3    H172344   1.958   4.957  12.348 -0.0695 -0.7301 -0.4553
16951TIP3    H272345   1.891   4.978  12.482  0.1443  0.1378 -0.4815
16952TIP3   OH272346   6.000   5.173  15.341 -0.4078  0.4046  0.1960
16952TIP3    H172347   5.998   5.210  15.253 -2.0654  0.0312  0.0624
16952TIP3    H272348   6.008   5.249  15.399  0.5213  0.6593 -0.2536
16953TIP3   OH272349   2.647   5.341  12.965 -0.0114  0.0879  0.8405
16953TIP3    H172350   2.685   5.429  12.971  1.9696 -0.7123  0.4271
16953TIP3    H272351   2.591   5.345  12.888  1.3658  0.5376 -0.1672
16954TIP3   OH272352   3.714   0.963  13.742  0.3486 -0.0516  0.2379
16954TIP3    H172353   3.722   0.884  13.795  2.1572  0.6498  1.0373
16954TIP3    H272354   3.796   1.010  13.756  1.1129 -0.1277 -3.6513
16955TIP3   OH272355   3.736   5.067   2.223 -0.4714 -0.0087  0.7293
16955TIP3    H172356   3.715   5.057   2.130  1.4950 -0.8484  0.3515
16955TIP3    H272357   3.742   4.978   2.256  2.0194  0.1949  0.8962
16956TIP3   OH272358   5.005   4.566   1.028  0.0730  0.2974  0.0443
16956TIP3    H172359   4.962   4.608   1.103 -0.4158 -1.7250  0.9455
16956TIP3    H272360   4.979   4.619   0.953 -1.0185  1.2422  1.0517
16957TIP3   OH272361   4.967   4.847  17.058  0.3530 -0.3217  0.4340
16957TIP3    H172362   5.034   4.911  17.032  1.0428 -1.4653 -0.6518
16957TIP3    H272363   5.014   4.784  17.113  0.3121 -1.4791 -0.8495
16958TIP3   OH272364   4.145   1.068   1.844 -0.3675  0.2095 -0.2646
16958TIP3    H172365   4.191   1.116   1.775 -0.0621 -0.2894 -0.4087
16958TIP3    H272366   4.192   1.090   1.924  0.4043 -0.6566 -0.4747
16959TIP3   OH272367   1.129   5.016   3.589 -0.1890  0.3294 -0.5713
16959TIP3    H172368   1.199   5.070   3.625  2.4539 -1.4196 -2.9501
16959TIP3    H272369   1.073   5.078   3.541  0.2412  1.5762  0.5098
16960TIP3   OH272370   6.284   6.186  15.972  0.1876 -0.1228  0.0575
16960TIP3    H172371   6.341   6.146  15.907 -0.8735  1.4600 -1.9308
16960TIP3    H272372   6.344   6.236  16.029  0.9522  0.0742 -0.9056
16961TIP3   OH272373   5.879   0.301  14.196  0.5962  0.0140  0.3758
16961TIP3    H172374   5.940   0.227  14.190  0.3149 -0.0613 -2.8505
16961TIP3    H272375   5.792   0.260  14.202  0.7483  0.1231  4.1382
16962TIP3   OH272376   2.498   3.632   2.023 -0.3586  0.1937  0.1841
16962TIP3    H172377   2.407   3.614   2.044  0.5625 -0.8784  3.5276
16962TIP3    H272378   2.513   3.722   2.052 -0.4479  0.5614 -0.8599
16963TIP3   OH272379   5.966   5.330  16.382  0.2711  0.2032 -0.5576
16963TIP3    H172380   5.952   5.300  16.472  2.4927  0.7804  0.0106
16963TIP3    H272381   5.887   5.381  16.361  1.3379  3.3099  2.4818
16964TIP3   OH272382   3.857   6.586   4.580 -0.3472 -0.0903 -0.3197
16964TIP3    H172383   3.948   6.607   4.599  0.6374 -2.3114 -2.3442
16964TIP3    H272384   3.823   6.548   4.661  1.2097 -1.4254 -0.2896
16965TIP3   OH272385   3.663   3.260   1.807  0.0179 -0.1197  0.2353
16965TIP3    H172386   3.577   3.220   1.807  0.2210 -0.5630  0.0393
16965TIP3    H272387   3.675   3.292   1.717 -0.2867  0.6925  0.4819
16966TIP3   OH272388   0.684   2.417   1.589  0.3567 -0.8098 -0.0192
16966TIP3    H172389   0.775   2.438   1.566  0.4972 -0.9746  0.3719
16966TIP3    H272390   0.666   2.472   1.665  0.0322 -0.5616 -0.2759
16967TIP3   OH272391   5.490   5.902  12.975  0.5323  0.4873  0.1142
16967TIP3    H172392   5.531   5.856  12.903  0.5021  0.6278  0.0066
16967TIP3    H272393   5.471   5.834  13.040  1.7075  0.5340  0.5296
16968TIP3   OH272394   3.796   1.355  13.372  0.5197  0.2984 -0.0469
16968TIP3    H172395   3.809   1.260  13.381  0.8487  0.4190  0.7727
16968TIP3    H272396   3.879   1.387  13.337  0.2364  0.2223 -0.8038
16969TIP3   OH272397   1.801   6.519   0.511  0.5193  0.5439 -0.2177
16969TIP3    H172398   1.771   6.504   0.600  0.6051  1.4710 -0.0288
16969TIP3    H272399   1.762   6.448   0.460 -0.5496  0.7192  0.3397
16970TIP3   OH272400   5.175   2.930   5.465 -0.5124  0.6144 -0.2128
16970TIP3    H172401   5.116   2.999   5.434  0.1966  1.5204  0.4030
16970TIP3    H272402   5.130   2.893   5.541 -0.4751  1.0276  0.0122
16971TIP3   OH272403   3.863   3.820  12.919  0.1850  0.0061  0.8538
16971TIP3    H172404   3.950   3.827  12.958  0.7242  1.2996 -0.5378
16971TIP3    H272405   3.875   3.846  12.828 -1.4791 -0.7720  0.3904
16972TIP3   OH272406   1.153   6.400  12.470  0.2531  0.2040 -0.0865
16972TIP3    H172407   1.072   6.407  12.520 -0.7933 -0.8212 -1.5777
16972TIP3    H272408   1.197   6.485  12.482  0.0919 -0.0764  2.6019
16973TIP3   OH272409   2.390   2.345  12.093  0.1304  0.3840  0.3754
16973TIP3    H172410   2.480   2.345  12.125  0.1831 -1.7311  0.3461
16973TIP3    H272411   2.348   2.417  12.140  0.9508 -0.7980  3.0569
16974TIP3   OH272412   2.307   2.574  16.734 -0.8694  0.1526  0.2234
16974TIP3    H172413   2.234   2.582  16.796  2.5259 -2.1337  4.7750
16974TIP3    H272414   2.289   2.494  16.686  0.2182 -2.3270  3.7541
16975TIP3   OH272415   6.594   5.731   0.396 -0.6320  0.0281  0.0787
16975TIP3    H172416   6.687   5.737   0.377 -0.4000 -1.8452  0.4571
16975TIP3    H272417   6.553   5.722   0.310 -0.4294  0.4111 -0.0597
16976TIP3   OH272418   0.390   5.620  16.860 -0.5625 -0.2281  0.1721
16976TIP3    H172419   0.371   5.581  16.775 -0.5949 -0.1087  0.1245
16976TIP3    H272420   0.485   5.610  16.871 -0.2100  1.7328 -0.8687
16977TIP3   OH272421   3.006   6.494   1.812 -0.9041  0.0074  0.3999
16977TIP3    H172422   3.007   6.519   1.905 -1.5839  0.8351  0.1874
16977TIP3    H272423   2.919   6.519   1.781 -1.1745 -1.5781 -0.1195
16978TIP3   OH272424   6.776   3.865  10.821  0.1690  0.0998 -0.1062
16978TIP3    H172425   6.864   3.834  10.797  0.3945  1.3067 -0.9010
16978TIP3    H272426   6.783   3.960  10.816 -1.0164  0.2228  0.4793
16979TIP3   OH272427   1.885   1.061  14.993  1.3147  0.4734  0.1046
16979TIP3    H172428   1.833   1.010  15.055 -0.6444  1.7162 -0.4321
16979TIP3    H272429   1.849   1.150  15.000  2.0168  0.9248 -1.7736
16980TIP3   OH272430   5.600   5.795   4.370 -0.0312  0.3816  0.3317
16980TIP3    H172431   5.579   5.766   4.282 -1.2172 -0.2870  0.8194
16980TIP3    H272432   5.696   5.791   4.375 -0.0177 -0.5716 -0.5805
16981TIP3   OH272433   0.096   5.235   5.953 -0.1368  0.0489 -0.0093
16981TIP3    H172434   0.066   5.146   5.971  2.2877 -0.8965 -0.4220
16981TIP3    H272435   0.135   5.265   6.035 -0.7180  0.6244  0.0555
16982TIP3   OH272436   1.918   1.138   4.900  0.0450  0.4323 -0.7910
16982TIP3    H172437   1.838   1.191   4.908 -0.8239 -1.1183  1.1572
16982TIP3    H272438   1.978   1.193   4.850 -1.0558  3.0051  0.6225
16983TIP3   OH272439   5.915   4.490   5.160 -0.2493 -0.1253  0.2366
16983TIP3    H172440   5.978   4.535   5.216  0.2611 -1.6289  0.8791
16983TIP3    H272441   5.831   4.534   5.178  0.4070  1.2040  0.1313
16984TIP3   OH272442   6.067   1.551  13.359  0.0982 -0.4446 -0.2438
16984TIP3    H172443   6.062   1.520  13.449 -0.6973  1.0175  0.2336
16984TIP3    H272444   6.129   1.492  13.317  0.4145 -1.1954  1.2388
16985TIP3   OH272445   6.527   3.736   2.435 -0.0693 -0.3496 -0.4710
16985TIP3    H172446   6.595   3.729   2.367  0.1882  1.6637 -0.4383
16985TIP3    H272447   6.575   3.727   2.517  0.1135  0.7760 -0.4559
16986TIP3   OH272448   0.311   1.798  11.683 -0.6251  0.8362  0.0618
16986TIP3    H172449   0.283   1.846  11.761 -0.5704  1.2006 -0.1382
16986TIP3    H272450   0.255   1.721  11.680 -0.5080  0.7262  0.5589
16987TIP3   OH272451   5.123   1.477  12.248 -0.1175  0.6133 -0.1578
16987TIP3    H172452   5.141   1.449  12.158 -0.5635  0.7371 -0.2885
16987TIP3    H272453   5.117   1.395  12.298  0.9381  0.5836 -0.0856
16988TIP3   OH272454   5.455   5.703   5.946 -0.1585  0.3605 -0.0431
16988TIP3    H172455   5.547   5.708   5.971 -0.2581 -0.8106  0.5899
16988TIP3    H272456   5.416   5.783   5.981  0.9639  1.7675 -1.8612
16989TIP3   OH272457   6.338   0.273   2.952 -0.1446 -0.0206 -0.0914
16989TIP3    H172458   6.272   0.204   2.946 -0.4705  0.2534  0.3552
16989TIP3    H272459   6.294   0.345   2.997  0.7519 -0.1855  1.0590
16990TIP3   OH272460   6.559   2.156   1.921 -0.2192 -0.3146  0.6885
16990TIP3    H172461   6.543   2.233   1.867 -0.9488 -0.8003  0.1891
16990TIP3    H272462   6.569   2.190   2.009  2.1334  0.5957  0.0873
16991TIP3   OH272463   3.538   5.810   1.927  0.4169  0.2980 -0.3611
16991TIP3    H172464   3.533   5.886   1.985  3.2060 -0.5142  0.9999
16991TIP3    H272465   3.461   5.758   1.949 -0.0980  1.4147  0.5475
16992TIP3   OH272466   2.947   3.858   2.694 -0.2698 -0.0841 -0.2172
16992TIP3    H172467   3.034   3.853   2.734  0.5368  1.2017 -1.7657
16992TIP3    H272468   2.914   3.945   2.720 -1.1376 -0.6052  0.4482
16993TIP3   OH272469   3.159   6.064   5.711  0.1836 -0.1562  0.2507
16993TIP3    H172470   3.106   6.121   5.767 -0.0223  1.3741 -1.4593
16993TIP3    H272471   3.182   5.990   5.767 -2.2289  0.0462  1.5618
16994TIP3   OH272472   0.266   5.925   5.578  0.7054 -0.5365 -0.0189
16994TIP3    H172473   0.341   5.983   5.590 -0.0062  0.8788 -2.2012
16994TIP3    H272474   0.278   5.888   5.491 -0.7569 -0.8391 -0.1024
16995TIP3   OH272475   4.041   4.295  13.512  0.4688  0.0497 -0.2649
16995TIP3    H172476   4.111   4.354  13.484  0.9462 -1.3521 -2.1154
16995TIP3    H272477   3.960   4.340  13.488  0.7816  0.8692  0.2173
16996TIP3   OH272478   2.310   1.909   6.314  0.2548  0.8123  0.1867
16996TIP3    H172479   2.226   1.865   6.327  0.2554  1.3532  2.2937
16996TIP3    H272480   2.332   1.892   6.223 -2.3069  0.9451 -0.5181
16997TIP3   OH272481   6.394   4.624  14.587  0.4867 -0.2526 -0.0560
16997TIP3    H172482   6.320   4.675  14.618 -0.0904 -0.3738 -1.1974
16997TIP3    H272483   6.365   4.533  14.593  1.0629 -0.3823  0.8202
16998TIP3   OH272484   5.535   3.994   4.979  0.5535 -0.6367  0.4431
16998TIP3    H172485   5.464   3.999   5.043  0.7985 -0.6630  0.7188
16998TIP3    H272486   5.499   3.943   4.906  0.8856 -2.2233  1.3616
16999TIP3   OH272487   1.130   1.422  16.364 -0.0801 -0.2829  0.0097
16999TIP3    H172488   1.051   1.420  16.310  0.3721  0.5721 -0.6973
16999TIP3    H272489   1.196   1.379  16.309  0.1952 -0.0814  0.1871
17000TIP3   OH272490   2.113   1.123  14.822  0.3565 -0.0519 -0.2617
17000TIP3    H172491   2.096   1.193  14.759  0.7823  0.0106 -0.3077
17000TIP3    H272492   2.028   1.105  14.862  0.3573  0.8982  0.1726
17001TIP3   OH272493   3.414   2.819  13.231 -0.1834  0.8095 -0.2204
17001TIP3    H172494   3.464   2.788  13.155 -1.5418  0.3005 -0.9198
17001TIP3    H272495   3.337   2.763  13.233 -0.7104  1.5658  0.8813
17002TIP3   OH272496   3.746   6.586  14.166 -0.4722  0.4096  0.4615
17002TIP3    H172497   3.756   6.624  14.078 -2.1536 -0.0066  0.0679
17002TIP3    H272498   3.802   6.509  14.166 -0.4218  0.4439 -0.2408
17003TIP3   OH272499   4.813   0.076   1.052 -0.3488  0.1551 -0.5593
17003TIP3    H172500   4.766   0.078   1.135  2.9587 -0.5400  1.4206
17003TIP3    H272501   4.855   0.161   1.045  1.3188 -0.6404 -0.3475
17004TIP3   OH272502   0.350   6.075   2.768  0.2121 -0.7860  0.0271
17004TIP3    H172503   0.335   6.162   2.729 -0.6677 -1.4497 -1.1533
17004TIP3    H272504   0.445   6.062   2.759  0.3687  0.0878  0.3069
17005TIP3   OH272505   4.099   6.233   3.696  0.0664 -0.5644 -0.3107
17005TIP3    H172506   4.045   6.309   3.675  0.4880 -0.3040 -0.4499
17005TIP3    H272507   4.090   6.222   3.790  0.5477  0.0680 -0.1895
17006TIP3   OH272508   0.883   1.639  15.349  0.1489  0.4146  0.1075
17006TIP3    H172509   0.826   1.637  15.426  1.1348  0.4462  0.8484
17006TIP3    H272510   0.878   1.550  15.313  0.9806 -0.0669  1.1728
17007TIP3   OH272511   6.135   5.384   5.557  0.6689  0.0259 -0.0594
17007TIP3    H172512   6.112   5.322   5.487 -0.0307 -0.3424  0.4952
17007TIP3    H272513   6.161   5.329   5.631  0.5322  0.3996  0.2692
17008TIP3   OH272514   2.648   3.255  13.225 -1.3205  0.4947 -0.0929
17008TIP3    H172515   2.733   3.292  13.203 -1.0075 -0.6225 -0.7681
17008TIP3    H272516   2.586   3.306  13.173 -0.9013  0.1668 -0.9213
17009TIP3   OH272517   5.448   2.659   2.255  0.2363  0.0916 -0.0740
17009TIP3    H172518   5.358   2.686   2.236 -0.1776 -1.0710  0.2166
17009TIP3    H272519   5.465   2.693   2.343 -0.1912 -0.3640  0.1871
17010TIP3   OH272520   5.791   1.162  16.450  0.2401 -0.3045  0.1342
17010TIP3    H172521   5.862   1.223  16.470 -2.2459  2.5808  0.4730
17010TIP3    H272522   5.794   1.151  16.355  0.4124  0.7620  0.0103
17011TIP3   OH272523   5.334   2.351   2.472  0.4486  0.3969  0.5915
17011TIP3    H172524   5.262   2.288   2.475  1.3096 -0.6794 -0.7412
17011TIP3    H272525   5.357   2.357   2.379  2.0297  0.7585  0.9926
17012TIP3   OH272526   2.858   0.672   5.232  0.0406 -0.2321 -0.4346
17012TIP3    H172527   2.762   0.663   5.231  0.0086  0.1828 -1.8910
17012TIP3    H272528   2.874   0.757   5.191  1.0270 -0.1092  0.1976
17013TIP3   OH272529   0.273   5.709  14.166 -0.7621 -0.3879 -0.1539
17013TIP3    H172530   0.270   5.664  14.250 -1.5630 -1.8123 -0.9285
17013TIP3    H272531   0.347   5.670  14.120 -0.9084 -0.2847 -0.4809
17014TIP3   OH272532   5.454   2.622   0.041  0.2503  0.9365 -0.5691
17014TIP3    H172533   5.546   2.596   0.039  0.4342  1.5810 -0.5662
17014TIP3    H272534   5.433   2.641  -0.051 -0.2105 -0.3242 -0.7446
17015TIP3   OH272535   2.192   1.344   5.866 -0.1388  0.4684 -0.1708
17015TIP3    H172536   2.230   1.285   5.930 -0.5123 -0.6724 -0.9928
17015TIP3    H272537   2.145   1.410   5.918  0.9335  0.5024  0.7590
17016TIP3   OH272538   2.370   1.690   1.166  0.4664 -0.3873 -0.1909
17016TIP3    H172539   2.315   1.713   1.240  0.1346  1.7426 -1.0700
17016TIP3    H272540   2.312   1.641   1.107 -0.9959  3.2327 -1.8593
17017TIP3   OH272541   5.795   0.630   2.251  0.1426 -0.0422  0.4146
17017TIP3    H172542   5.820   0.559   2.191 -0.6369 -1.1002  1.3336
17017TIP3    H272543   5.792   0.588   2.337  1.1517  1.4538  1.1911
17018TIP3   OH272544   0.119   6.502   5.914 -0.1108  0.2380 -0.0366
17018TIP3    H172545   0.147   6.553   5.990  1.0196  1.3735 -1.1825
17018TIP3    H272546   0.024   6.509   5.914  0.0282  2.6164 -0.3119
17019TIP3   OH272547   4.899   3.004  12.954 -0.2860  0.2708  0.8109
17019TIP3    H172548   4.981   3.051  12.941 -0.6947  1.0109  0.8670
17019TIP3    H272549   4.925   2.914  12.972  0.6104  0.9154  2.9111
17020TIP3   OH272550   4.637   0.667   5.529  0.2775 -0.4793 -0.7911
17020TIP3    H172551   4.588   0.593   5.565 -1.3546  0.6380 -0.6456
17020TIP3    H272552   4.684   0.703   5.604 -1.6714  0.7265 -0.1075
17021TIP3   OH272553   1.092   3.076  12.468  0.6556 -0.1344  0.3432
17021TIP3    H172554   1.117   2.998  12.516  2.5315  0.2050 -0.0435
17021TIP3    H272555   0.997   3.082  12.479  0.2009 -3.4919 -1.1340
17022TIP3   OH272556   0.951   2.312   6.277 -0.5625  0.1786  0.0415
17022TIP3    H172557   0.996   2.231   6.299  0.7942  0.8020 -0.3888
17022TIP3    H272558   1.020   2.370   6.243 -1.6363  1.2362 -0.3886
17023TIP3   OH272559   0.709   5.328   2.818 -0.0942 -0.7989 -0.3052
17023TIP3    H172560   0.657   5.348   2.741 -1.1813 -1.2306  0.3150
17023TIP3    H272561   0.800   5.326   2.786 -0.4159  0.3320 -1.3050
17024TIP3   OH272562   2.676   5.917  14.151  0.3378  0.3558 -0.7459
17024TIP3    H172563   2.685   6.012  14.145  0.8403  0.2473 -1.8229
17024TIP3    H272564   2.582   5.902  14.165  0.4400  1.0619  0.7281
17025TIP3   OH272565   1.475   1.914   1.856  0.1276  0.1306  0.0585
17025TIP3    H172566   1.443   1.860   1.928 -0.9424  1.0880  0.3261
17025TIP3    H272567   1.568   1.893   1.850 -0.4018 -2.2759 -0.3416
17026TIP3   OH272568   3.591   6.618  11.651 -0.1993 -0.4382  0.2548
17026TIP3    H172569   3.580   6.597  11.558 -0.4516  1.5684 -0.1977
17026TIP3    H272570   3.629   6.539  11.689 -1.2664 -1.7405 -1.3026
17027TIP3   OH272571   2.374   5.569  12.905 -0.1389 -0.6417 -0.4139
17027TIP3    H172572   2.460   5.574  12.946 -0.4776  1.1514  0.1112
17027TIP3    H272573   2.359   5.657  12.870 -2.0987 -0.7106  0.1957
17028TIP3   OH272574   2.124   0.042   4.898  0.3669  0.0183  0.3203
17028TIP3    H172575   2.105  -0.040   4.852 -0.2260 -0.4762  1.4352
17028TIP3    H272576   2.122   0.019   4.991 -4.0927  2.1343  0.8938
17029TIP3   OH272577   1.794   2.365   4.182  0.5092  0.0217 -0.1986
17029TIP3    H172578   1.872   2.411   4.150 -0.5664  0.3427 -2.4959
17029TIP3    H272579   1.826   2.282   4.215  1.6393 -0.8078 -3.1979
17030TIP3   OH272580   6.189   5.604  14.986 -0.2630 -0.2695  0.0170
17030TIP3    H172581   6.163   5.599  15.078 -3.1829 -0.2627 -0.7671
17030TIP3    H272582   6.150   5.526  14.947 -0.6131  0.6929 -1.5769
17031TIP3   OH272583   2.244   6.050   2.864  0.3298  0.0772 -0.6969
17031TIP3    H172584   2.194   5.989   2.918 -0.9560  1.5760 -0.1723
17031TIP3    H272585   2.286   6.109   2.926 -1.9153  2.4022 -1.3133
17032TIP3   OH272586   3.932   6.138   0.420  0.2559  0.1901 -0.2912
17032TIP3    H172587   4.027   6.140   0.408  0.3113 -1.1460 -0.1230
17032TIP3    H272588   3.898   6.190   0.347  1.0781  0.1613 -0.7058
17033TIP3   OH272589   1.024   0.236  14.767  0.9700 -0.1922  0.0512
17033TIP3    H172590   1.091   0.204  14.827  0.4099  1.5823  1.6780
17033TIP3    H272591   1.072   0.265  14.690  1.7316 -2.2253 -0.2644
17034TIP3   OH272592   4.137   5.129  16.108 -0.0287  0.2786 -0.3492
17034TIP3    H172593   4.095   5.198  16.160  0.5734  0.9551 -0.7565
17034TIP3    H272594   4.095   5.135  16.022 -0.6801 -0.5222 -0.0987
17035TIP3   OH272595   3.116   6.540   4.784 -0.1636  0.2974 -0.2023
17035TIP3    H172596   3.158   6.563   4.866  1.6435 -2.7132 -0.1981
17035TIP3    H272597   3.095   6.447   4.793 -0.2288 -0.0209 -2.9885
17036TIP3   OH272598   2.967   0.769   2.908 -0.5746  0.2100  0.2791
17036TIP3    H172599   3.012   0.686   2.892 -0.4312  0.1958  0.7291
17036TIP3    H272600   2.989   0.823   2.832 -3.9999 -1.5178 -2.0399
17037TIP3   OH272601   1.720   3.035   3.432 -0.4117  0.3411 -0.3673
17037TIP3    H172602   1.795   2.980   3.407 -1.4050 -1.6687  0.9492
17037TIP3    H272603   1.648   3.000   3.380 -1.3289 -0.4291  1.3948
17038TIP3   OH272604   1.305   1.354   3.789 -0.1565  0.2476 -0.7146
17038TIP3    H172605   1.383   1.298   3.783 -0.2232  0.2011 -1.1719
17038TIP3    H272606   1.294   1.370   3.883 -0.5200 -1.0498 -0.5289
17039TIP3   OH272607   3.155   4.637  10.709  0.8239  0.1241  0.1840
17039TIP3    H172608   3.237   4.603  10.674 -0.2308 -1.4525 -0.7987
17039TIP3    H272609   3.148   4.598  10.796  0.5640 -0.6420 -0.1790
17040TIP3   OH272610   2.480   4.500   3.427 -0.4519  0.0922 -0.3484
17040TIP3    H172611   2.441   4.415   3.446 -1.9842  0.5542 -1.3900
17040TIP3    H272612   2.488   4.543   3.513 -1.1704 -0.4531 -0.0124
17041TIP3   OH272613   3.638   5.655   4.360  0.1954  0.0834 -0.3868
17041TIP3    H172614   3.644   5.688   4.270 -0.0940  2.0153  0.2896
17041TIP3    H272615   3.605   5.728   4.410  1.3093 -0.6750  1.4971
17042TIP3   OH272616   3.900   2.878   1.295 -0.2806 -0.2073  0.6803
17042TIP3    H172617   3.893   2.954   1.237 -1.3159 -1.7394 -1.2744
17042TIP3    H272618   3.974   2.899   1.352 -0.5003  2.2379  0.1602
17043TIP3   OH272619   0.186   4.985  11.883  0.4571  0.2859 -0.2325
17043TIP3    H172620   0.126   4.990  11.958  1.0172 -0.6170  0.2926
17043TIP3    H272621   0.262   5.037  11.909  0.7456 -0.2081 -0.0812
17044TIP3   OH272622   3.685   3.200  12.428 -0.0124  0.0530  0.0259
17044TIP3    H172623   3.726   3.123  12.467  0.8526  0.2722 -0.4218
17044TIP3    H272624   3.658   3.170  12.341 -0.1367  0.1100  0.0462
17045TIP3   OH272625   2.623   3.592  15.439 -0.1444  0.1845  0.0071
17045TIP3    H172626   2.624   3.522  15.373 -1.4164  1.1418 -1.0462
17045TIP3    H272627   2.712   3.627  15.439  0.6142 -1.6960  0.8434
17046TIP3   OH272628   2.106   5.817  15.635 -0.1481  0.6765 -0.0751
17046TIP3    H172629   2.154   5.745  15.675 -0.0665  1.0133  0.4407
17046TIP3    H272630   2.018   5.782  15.620  0.5042 -0.2401 -1.8834
17047TIP3   OH272631   2.170   3.855  13.107 -0.2950 -0.0561 -0.4841
17047TIP3    H172632   2.101   3.841  13.172 -0.5967  0.7759 -0.6130
17047TIP3    H272633   2.250   3.822  13.149 -0.0875  2.4540  1.2094
17048TIP3   OH272634   5.969   3.141  13.390 -0.1618  0.2704  0.3830
17048TIP3    H172635   5.949   3.226  13.431 -3.6644 -0.0579 -0.4277
17048TIP3    H272636   5.921   3.143  13.307 -0.0788 -2.4050  0.2295
17049TIP3   OH272637   0.128   0.662   0.072  0.1234 -0.2516  0.1777
17049TIP3    H172638   0.191   0.644   0.002 -0.4701  0.0217 -0.4400
17049TIP3    H272639   0.051   0.610   0.048  0.2124 -0.7941  1.0728
17050TIP3   OH272640   6.374   4.479  13.710 -0.0861 -0.4832  0.5961
17050TIP3    H172641   6.378   4.571  13.736 -0.1830 -0.5347  0.7973
17050TIP3    H272642   6.465   4.450  13.708 -0.0668 -0.4302  0.7094
17051TIP3   OH272643   6.432   2.102  13.092  0.5500  0.8700 -0.3771
17051TIP3    H172644   6.378   2.041  13.042  2.5213  0.4317 -2.0049
17051TIP3    H272645   6.483   2.047  13.151 -0.1002  1.2220  0.5347
17052TIP3   OH272646   6.265   4.363   3.605 -0.0720  0.2200 -0.8330
17052TIP3    H172647   6.255   4.438   3.546 -0.0746  0.7483 -0.1694
17052TIP3    H272648   6.240   4.287   3.553 -1.0976  0.8000 -1.1838
17053TIP3   OH272649   4.567   3.285   2.960  0.3742 -0.2789  0.7971
17053TIP3    H172650   4.483   3.241   2.948  1.3501 -1.6793 -1.2852
17053TIP3    H272651   4.568   3.354   2.893  1.3180 -1.0134  0.0264
17054TIP3   OH272652   3.844   3.347  10.659 -0.3190 -0.6684  0.3779
17054TIP3    H172653   3.862   3.368  10.751  0.1643 -2.8661  0.8019
17054TIP3    H272654   3.753   3.374  10.645 -0.0813  0.6117  1.1955
17055TIP3   OH272655   2.497   1.280   3.287  0.4513 -0.1615 -0.4585
17055TIP3    H172656   2.485   1.372   3.311  0.2508 -0.1046 -0.7776
17055TIP3    H272657   2.563   1.281   3.218 -2.1751  0.0801 -3.0459
17056TIP3   OH272658   3.787   4.498  11.960 -0.1042 -0.0512  0.0317
17056TIP3    H172659   3.720   4.530  12.021 -1.4186 -0.6695 -1.0674
17056TIP3    H272660   3.765   4.539  11.876 -0.0050 -1.4564 -0.6901
17057TIP3   OH272661   3.396   0.677   4.041 -0.4531 -0.4120 -0.2737
17057TIP3    H172662   3.491   0.682   4.055 -0.2260 -1.9530 -1.1675
17057TIP3    H272663   3.366   0.609   4.102 -0.3286 -2.9335 -2.9229
17058TIP3   OH272664   2.713   3.452   0.715  0.4005 -0.0456 -0.2559
17058TIP3    H172665   2.660   3.501   0.652  1.3102 -0.0675 -1.0354
17058TIP3    H272666   2.706   3.503   0.796  2.7214  2.3447 -1.4918
17059TIP3   OH272667   5.926   1.153   4.003  0.5002 -0.1028  0.2240
17059TIP3    H172668   5.882   1.103   4.072 -2.2115  1.1548 -0.5336
17059TIP3    H272669   5.931   1.093   3.929 -0.2747 -0.1405  0.1986
17060TIP3   OH272670   2.803   6.693  13.398  0.2541 -0.4856 -0.4007
17060TIP3    H172671   2.873   6.635  13.427 -0.5853 -0.7914  1.0505
17060TIP3    H272672   2.840   6.739  13.323  1.5837 -1.5236 -0.4015
17061TIP3   OH272673   6.781   5.968  10.639 -0.3554 -0.1824  0.2183
17061TIP3    H172674   6.778   6.042  10.699  1.9505  1.3581 -1.4528
17061TIP3    H272675   6.799   5.892  10.694 -0.6177  0.8273  1.7170
17062TIP3   OH272676   1.607   3.737  16.260  0.1245  1.0765  0.3201
17062TIP3    H172677   1.633   3.762  16.172  2.5936 -1.3169  0.2968
17062TIP3    H272678   1.640   3.648  16.270 -3.2698 -0.0660  2.3832
17063TIP3   OH272679   3.882   3.378  13.306  0.6797  0.2388 -0.0093
17063TIP3    H172680   3.976   3.392  13.298  0.6780 -0.1255 -0.7148
17063TIP3    H272681   3.844   3.465  13.295  0.9546  0.4532  0.7014
17064TIP3   OH272682   0.148   1.208  17.003  0.3690  0.0449 -0.3533
17064TIP3    H172683   0.180   1.196  16.913  1.3311  1.0086 -0.1488
17064TIP3    H272684   0.201   1.280  17.038  0.1203 -0.4416  1.0489
17065TIP3   OH272685   3.423   1.534  15.399  0.5943  0.2826 -0.4312
17065TIP3    H172686   3.436   1.451  15.353  0.8237  1.1161 -1.8707
17065TIP3    H272687   3.330   1.553  15.388  0.3837 -0.1266  0.5183
17066TIP3   OH272688   3.393   2.834  16.409 -0.0252  0.0111  0.1756
17066TIP3    H172689   3.336   2.822  16.485  0.1841 -0.4252  0.2652
17066TIP3    H272690   3.417   2.745  16.383  2.0022  0.2622  1.1728
17067TIP3   OH272691   6.053   5.306  12.191  0.0546  0.2636 -0.0460
17067TIP3    H172692   6.074   5.398  12.204  1.1159 -0.0932  0.8624
17067TIP3    H272693   6.020   5.301  12.101 -2.8381  2.0015  0.8552
17068TIP3   OH272694   4.838   2.588  16.448 -0.1680 -0.1894 -0.0086
17068TIP3    H172695   4.855   2.495  16.460  1.4062 -0.0817 -1.2634
17068TIP3    H272696   4.905   2.617  16.387 -1.3738  1.5232 -0.5646
17069TIP3   OH272697   3.871   5.271  12.907 -0.3379 -0.2616  0.2720
17069TIP3    H172698   3.905   5.249  12.821 -0.9637 -1.4342  0.3040
17069TIP3    H272699   3.861   5.186  12.951 -0.8521  0.2523  1.1700
17070TIP3   OH272700   2.975   4.001   4.389 -0.0979  0.7775 -0.0687
17070TIP3    H172701   3.018   3.916   4.396 -2.1987 -0.3299 -0.3090
17070TIP3    H272702   2.978   4.037   4.477 -0.1972 -0.0546  0.2782
17071TIP3   OH272703   2.568   1.364  13.924 -0.3812  0.0737  0.1084
17071TIP3    H172704   2.526   1.310  13.990  1.3686  1.1250  2.1314
17071TIP3    H272705   2.628   1.420  13.973  1.1607  0.6936 -2.4018
17072TIP3   OH272706   3.861   6.123  13.702  1.3198 -0.0888 -0.2482
17072TIP3    H172707   3.856   6.175  13.622  0.4800 -0.6301 -0.5477
17072TIP3    H272708   3.910   6.179  13.764 -0.4766  1.5057 -0.2229
17073TIP3   OH272709   4.326   4.651   0.581 -0.0952  0.2046 -0.0729
17073TIP3    H172710   4.328   4.678   0.489 -1.5841  1.9436  0.3573
17073TIP3    H272711   4.275   4.570   0.582  0.6420 -0.2716 -0.8742
17074TIP3   OH272712   1.855   4.968   3.780 -0.3425  0.7760  0.0854
17074TIP3    H172713   1.886   4.887   3.740 -0.7517  0.8359 -0.3588
17074TIP3    H272714   1.901   5.038   3.732  0.0873  0.8059  0.5348
17075TIP3   OH272715   1.263   6.131  11.505  0.3660 -0.6519 -0.1244
17075TIP3    H172716   1.350   6.102  11.479  1.2459  2.3222 -0.7732
17075TIP3    H272717   1.206   6.105  11.432  1.2803  0.0667 -1.1048
17076TIP3   OH272718   3.339   0.521  14.783  0.6119  0.7614 -0.5384
17076TIP3    H172719   3.339   0.597  14.725  1.2913  0.8532 -0.4212
17076TIP3    H272720   3.347   0.445  14.725  0.9266  0.8341 -0.5889
17077TIP3   OH272721   0.874   4.879   0.821  0.2291 -0.0131 -0.0352
17077TIP3    H172722   0.964   4.870   0.852  0.8931 -1.4961 -2.2185
17077TIP3    H272723   0.877   4.952   0.759 -0.2145  0.3355  0.3479
17078TIP3   OH272724   2.513   5.023  12.564  0.2133  0.1111  0.1462
17078TIP3    H172725   2.431   5.027  12.515  1.2078  2.0802 -1.4480
17078TIP3    H272726   2.573   4.976  12.507  0.2129 -1.3114  1.2979
17079TIP3   OH272727   0.094   3.869   4.093  0.1606 -0.5065 -0.3004
17079TIP3    H172728   0.056   3.855   4.007 -0.6096  0.3985 -0.1169
17079TIP3    H272729   0.063   3.956   4.119  0.6861 -0.6181  0.7283
17080TIP3   OH272730   2.055   2.739  14.684 -0.0515 -0.0712  0.5299
17080TIP3    H172731   2.055   2.647  14.654 -2.0299  0.0061  0.1967
17080TIP3    H272732   2.016   2.736  14.771 -0.9609  0.5626  0.1474
17081TIP3   OH272733   3.670   6.796   4.687  0.6350 -0.2004  0.1033
17081TIP3    H172734   3.732   6.822   4.619  0.1123 -1.1608 -0.7478
17081TIP3    H272735   3.680   6.702   4.695 -2.2825 -0.7496 -1.6901
17082TIP3   OH272736   2.594   1.164   1.830 -0.0855 -0.3966  0.8286
17082TIP3    H172737   2.523   1.102   1.817  0.4321 -0.3199 -2.8905
17082TIP3    H272738   2.672   1.110   1.839 -0.1273 -0.3816  1.2851
17083TIP3   OH272739   6.705   1.558  15.665 -0.2623  0.0414 -0.1109
17083TIP3    H172740   6.673   1.481  15.710 -2.4333  1.8646  1.5591
17083TIP3    H272741   6.749   1.610  15.732  0.2796  0.7451 -0.9867
17084TIP3   OH272742   4.302   4.153   4.030  0.5959 -0.1503  0.4893
17084TIP3    H172743   4.209   4.177   4.036  1.2325  2.7025 -0.4715
17084TIP3    H272744   4.346   4.216   4.088  2.0700 -0.6109 -0.1256
17085TIP3   OH272745   0.775   5.698   1.711 -0.3111 -0.3187 -0.4255
17085TIP3    H172746   0.706   5.691   1.646 -0.0435  0.3049 -0.7758
17085TIP3    H272747   0.790   5.792   1.721  0.5149 -0.4515 -0.3838
17086TIP3   OH272748   2.743   0.643  14.528 -0.1996 -0.1114 -0.0381
17086TIP3    H172749   2.770   0.620  14.617 -0.5267  1.4270  0.4820
17086TIP3    H272750   2.663   0.593  14.514 -0.5190  0.1486  0.8007
17087TIP3   OH272751   2.330   5.583   0.301  0.6977  0.6320  0.0793
17087TIP3    H172752   2.294   5.494   0.299  2.4906 -0.2288  3.1508
17087TIP3    H272753   2.401   5.581   0.236 -1.1765  0.7396 -2.0188
17088TIP3   OH272754   2.072   2.400   2.909 -0.1037  0.2073  0.4489
17088TIP3    H172755   2.167   2.406   2.920 -0.1219 -1.2867  1.6013
17088TIP3    H272756   2.038   2.404   2.998 -1.0779  0.0684  0.0790
17089TIP3   OH272757   1.905   4.592   4.899  0.2297 -0.0409  0.0073
17089TIP3    H172758   1.885   4.500   4.911  1.7787 -0.1633  2.0383
17089TIP3    H272759   1.862   4.636   4.973  0.0626  0.7904 -0.5682
17090TIP3   OH272760   0.001   0.386  11.480  0.2258  0.8074  0.3128
17090TIP3    H172761   0.073   0.398  11.543  0.7436 -0.8574  0.0868
17090TIP3    H272762  -0.069   0.347  11.532 -0.8954  3.3031  0.7405
17091TIP3   OH272763   4.797   1.521  14.409  0.4209  0.1157  0.2249
17091TIP3    H172764   4.716   1.478  14.435 -0.2847  0.8594 -0.7236
17091TIP3    H272765   4.849   1.452  14.368 -0.0389 -0.1926  0.1604
17092TIP3   OH272766   4.596   3.497  14.567  0.4951 -0.3017  0.0034
17092TIP3    H172767   4.625   3.460  14.484 -0.8492 -1.3746 -0.0192
17092TIP3    H272768   4.655   3.570  14.584  1.4752 -0.7745 -1.3383
17093TIP3   OH272769   4.428   1.977   0.277 -0.7292  0.3828 -0.2279
17093TIP3    H172770   4.412   1.940   0.190 -0.7091  0.4313 -0.2519
17093TIP3    H272771   4.407   2.069   0.269 -2.6169  0.0103  0.3287
17094TIP3   OH272772   4.619   2.152  14.650 -0.1834 -0.2975 -0.1248
17094TIP3    H172773   4.699   2.189  14.686  0.3760  0.1031 -1.7313
17094TIP3    H272774   4.617   2.062  14.682 -0.1783  0.3045  1.6200
17095TIP3   OH272775   1.206   2.572  16.009  0.3654 -0.8023 -0.6409
17095TIP3    H172776   1.190   2.599  15.919 -1.7949 -2.1048 -0.6799
17095TIP3    H272777   1.123   2.533  16.037  1.9672 -3.1808  0.9103
17096TIP3   OH272778   6.553   5.434   4.288 -0.1513  0.1855  0.1763
17096TIP3    H172779   6.567   5.390   4.372  0.5719 -0.5963 -0.3375
17096TIP3    H272780   6.628   5.407   4.235 -2.1555 -1.8059 -1.7546
17097TIP3   OH272781   2.466   1.745  12.501  0.2360 -0.3150 -0.1085
17097TIP3    H172782   2.412   1.820  12.524 -0.3445 -1.5199  2.6173
17097TIP3    H272783   2.539   1.747  12.563  0.8807 -1.3144 -0.8092
17098TIP3   OH272784   5.641   1.204   4.167  0.4526 -0.0066  0.2434
17098TIP3    H172785   5.557   1.232   4.205  0.7544 -0.7678  1.4754
17098TIP3    H272786   5.616   1.155   4.089 -0.2710 -0.5634  0.8212
17099TIP3   OH272787   5.324   1.270   5.511 -0.1486  1.1056  0.0086
17099TIP3    H172788   5.407   1.311   5.533  0.9424 -0.8852 -0.3260
17099TIP3    H272789   5.287   1.243   5.595  2.3980 -3.3891 -0.1796
17100TIP3   OH272790   3.411   0.568   4.895  0.2498  0.4554  0.1109
17100TIP3    H172791   3.377   0.657   4.906  1.0709  0.7133  0.5956
17100TIP3    H272792   3.336   0.512   4.912  0.4870  0.9615  3.0942
17101TIP3   OH272793   0.678   2.059   3.151  0.3647 -0.1749 -0.0363
17101TIP3    H172794   0.654   2.037   3.241  1.6773 -2.7763 -0.2643
17101TIP3    H272795   0.768   2.091   3.157  1.5913 -3.3332 -0.7416
17102TIP3   OH272796   1.730   5.384   0.188  0.1770  0.0332 -0.4289
17102TIP3    H172797   1.721   5.404   0.094  0.0301 -0.7899 -0.5966
17102TIP3    H272798   1.702   5.292   0.195 -1.0908  0.4952  0.6330
17103TIP3   OH272799   1.697   6.088   3.567 -0.4535 -0.0263 -0.3564
17103TIP3    H172800   1.669   6.136   3.645 -0.9260 -0.2837 -0.3696
17103TIP3    H272801   1.742   6.010   3.602 -2.3935 -1.1597 -0.3377
17104TIP3   OH272802   5.756   3.553  12.783  0.4245  0.1019  0.7952
17104TIP3    H172803   5.751   3.520  12.694 -0.4739 -0.9149  1.2051
17104TIP3    H272804   5.688   3.620  12.788  0.6336  0.3238  0.6478
17105TIP3   OH272805   2.646   5.760  14.747 -0.1998  0.4022 -0.3643
17105TIP3    H172806   2.670   5.711  14.825 -0.9315  1.5059  0.5680
17105TIP3    H272807   2.727   5.767  14.696 -0.0023 -1.3824 -0.3022
17106TIP3   OH272808   0.274   5.284   4.663  0.3413  0.3015 -0.3164
17106TIP3    H172809   0.261   5.362   4.716  2.6399  0.9094 -0.5719
17106TIP3    H272810   0.281   5.317   4.573  1.9343 -0.1025 -0.3575
17107TIP3   OH272811   3.389   5.364   5.035 -0.0490  0.5273  0.2868
17107TIP3    H172812   3.412   5.439   5.091 -1.6864  1.9138 -0.8561
17107TIP3    H272813   3.351   5.301   5.095 -0.1808  1.2812  1.0155
17108TIP3   OH272814   2.399   2.104   1.390  0.0377  0.2879 -0.3339
17108TIP3    H172815   2.396   2.054   1.309  0.0583  2.3479 -1.6249
17108TIP3    H272816   2.386   2.195   1.364  0.6335  1.0614  1.9015
17109TIP3   OH272817   0.703   5.788  13.545 -0.2396  0.0655  0.1848
17109TIP3    H172818   0.696   5.871  13.499 -0.9793 -1.1170 -1.8964
17109TIP3    H272819   0.618   5.777  13.588 -0.9667 -0.6719 -1.4115
17110TIP3   OH272820   1.460   2.057   0.119  0.1884 -0.4242  0.9493
17110TIP3    H172821   1.381   2.027   0.074  0.7294  2.2080 -1.8889
17110TIP3    H272822   1.506   1.976   0.143 -0.7493 -1.9490 -2.1581
17111TIP3   OH272823   6.605   0.880  16.283 -0.2899  0.0857  0.0231
17111TIP3    H172824   6.562   0.961  16.308 -0.2589  0.6012 -1.5616
17111TIP3    H272825   6.535   0.826  16.245  0.1208  0.2798 -1.0342
17112TIP3   OH272826   6.634   0.961   4.773  0.6850  0.4286 -0.0677
17112TIP3    H172827   6.703   0.939   4.711  0.0791  1.3357 -1.0791
17112TIP3    H272828   6.571   0.890   4.765  0.2469  0.9204 -1.0412
17113TIP3   OH272829   5.820   3.232   1.347  0.1387 -0.2354 -0.8344
17113TIP3    H172830   5.747   3.283   1.382 -0.4021 -1.6650  0.1919
17113TIP3    H272831   5.785   3.191   1.268  0.4739  0.6953 -1.4783
17114TIP3   OH272832   1.093   5.484   3.330 -0.7865  0.3656 -0.7074
17114TIP3    H172833   1.009   5.483   3.285 -1.7731  1.0860  1.0639
17114TIP3    H272834   1.071   5.501   3.422  1.1107 -1.8194  0.1932
17115TIP3   OH272835   0.632   1.138   1.195  0.0826 -0.2450 -0.0997
17115TIP3    H172836   0.649   1.231   1.208  0.9998 -0.4931  0.5327
17115TIP3    H272837   0.538   1.133   1.175 -0.5097  0.5866  2.2294
17116TIP3   OH272838   5.609   6.637  13.148 -0.0943  0.5451 -0.2258
17116TIP3    H172839   5.550   6.606  13.216  1.8763  1.9372  2.1640
17116TIP3    H272840   5.594   6.732  13.145  0.7699  0.6668 -0.8265
17117TIP3   OH272841   1.109   3.820   4.846  0.3249  0.1997  0.2557
17117TIP3    H172842   1.087   3.736   4.886 -2.0816  1.0359  0.7805
17117TIP3    H272843   1.197   3.839   4.877  0.8184 -2.0097  0.3106
17118TIP3   OH272844   3.395   5.191  13.674 -0.3682  0.1736 -0.5658
17118TIP3    H172845   3.365   5.276  13.643  1.1510 -0.1352 -3.0557
17118TIP3    H272846   3.341   5.127  13.627 -1.8402 -0.2461  1.6598
17119TIP3   OH272847   3.767   5.180   1.695  0.3960  0.2364  0.6301
17119TIP3    H172848   3.851   5.210   1.729 -0.0460  1.1841  0.9068
17119TIP3    H272849   3.708   5.254   1.708  0.6426  1.3495 -3.9171
17120TIP3   OH272850   1.914   6.429  13.115 -0.4121  0.6934 -0.2553
17120TIP3    H172851   1.996   6.477  13.105 -0.3779  0.3307 -1.8783
17120TIP3    H272852   1.900   6.388  13.029 -4.0599  3.5491 -1.1720
17121TIP3   OH272853   2.858   2.426   2.803  0.2643 -0.0462 -0.2915
17121TIP3    H172854   2.809   2.395   2.879 -0.3240  1.3722 -0.0767
17121TIP3    H272855   2.863   2.521   2.814  0.5091  0.1390 -1.8243
17122TIP3   OH272856   1.946   2.224   3.459  0.0076  0.4205 -0.1908
17122TIP3    H172857   1.930   2.188   3.546 -1.1546 -0.3213 -0.6932
17122TIP3    H272858   1.994   2.154   3.413 -2.6756 -0.7544 -1.3249
17123TIP3   OH272859   1.318   0.197   1.800 -0.2266 -0.9058 -0.7757
17123TIP3    H172860   1.363   0.228   1.722 -0.3761 -1.8625 -1.2494
17123TIP3    H272861   1.388   0.163   1.856  0.0896  1.4005  0.3074
17124TIP3   OH272862   6.612   2.419  14.130  0.0816 -0.1933 -0.3483
17124TIP3    H172863   6.602   2.512  14.110  1.2807  0.3796  1.5349
17124TIP3    H272864   6.586   2.412  14.222 -0.5339 -1.8321 -0.6281
17125TIP3   OH272865   0.680   5.988   0.315  0.1215 -0.6376  0.0481
17125TIP3    H172866   0.713   5.916   0.262  2.3404 -1.7226  2.7783
17125TIP3    H272867   0.740   6.061   0.299  0.7203 -0.9273  0.9578
17126TIP3   OH272868   4.922   1.527   3.018 -0.2022  0.4981  0.0285
17126TIP3    H172869   4.849   1.546   2.959  0.4534  0.8349 -0.6912
17126TIP3    H272870   4.998   1.568   2.976  0.8518 -1.8017 -0.4314
17127TIP3   OH272871   2.323   1.019   4.522  0.7311  0.3075  0.5301
17127TIP3    H172872   2.386   1.032   4.450  0.5537  1.6126  0.5974
17127TIP3    H272873   2.337   0.929   4.550 -2.0644 -1.6415 -3.8674
17128TIP3   OH272874   6.614   0.833  15.784  0.0623  0.1337 -0.0480
17128TIP3    H172875   6.638   0.821  15.876  0.3550 -0.3007 -0.1789
17128TIP3    H272876   6.696   0.818  15.736 -0.1935 -0.1016 -0.4115
17129TIP3   OH272877   3.163   2.730  13.026  0.3067 -0.3122  0.0088
17129TIP3    H172878   3.171   2.825  13.027  0.6091 -0.3321 -0.4062
17129TIP3    H272879   3.170   2.704  13.118 -0.6215  0.1363  0.2024
17130TIP3   OH272880   1.264   2.042  11.167 -0.2331  0.0893  0.5148
17130TIP3    H172881   1.183   2.026  11.216 -1.2237  0.5754 -0.9244
17130TIP3    H272882   1.236   2.094  11.091  1.0426 -1.8326 -1.3241
17131TIP3   OH272883   4.178   4.048   6.058 -0.2523 -0.0517 -0.4477
17131TIP3    H172884   4.171   4.005   5.973 -0.1833 -1.2653  0.1491
17131TIP3    H272885   4.087   4.060   6.087 -0.2855  0.6587 -0.8280
17132TIP3   OH272886   0.044   4.676  15.692  1.0804 -0.3578 -0.0494
17132TIP3    H172887   0.133   4.706  15.675  1.0779 -0.3161  0.0092
17132TIP3    H272888  -0.013   4.747  15.663  1.0364 -0.6626 -0.7168
17133TIP3   OH272889   4.275   5.458  16.718  0.2890 -0.0078 -0.3658
17133TIP3    H172890   4.293   5.389  16.655 -0.3594 -0.6008  0.0965
17133TIP3    H272891   4.355   5.510  16.721  1.8543 -2.4644  1.5049
17134TIP3   OH272892   1.374   3.411  15.042  0.4917 -0.0424  0.0768
17134TIP3    H172893   1.321   3.471  14.990 -0.8460 -0.0193  1.4457
17134TIP3    H272894   1.341   3.420  15.131  2.5681 -0.2785  0.9090
17135TIP3   OH272895   5.238   1.448  11.598  0.2784 -0.8752 -0.2304
17135TIP3    H172896   5.260   1.513  11.531 -0.5883 -1.4790 -1.0999
17135TIP3    H272897   5.156   1.480  11.636  0.5364 -0.7697  0.2446
17136TIP3   OH272898   5.866   6.600  13.228 -0.3038  0.4179 -0.2102
17136TIP3    H172899   5.777   6.611  13.194  0.4536  4.2920 -1.2470
17136TIP3    H272900   5.869   6.655  13.306  0.4427 -1.8019  1.3551
17137TIP3   OH272901   6.660   4.802  16.753 -0.3226  0.5244  0.0469
17137TIP3    H172902   6.695   4.791  16.842 -1.1605  1.7726  0.5477
17137TIP3    H272903   6.603   4.726  16.741 -0.9978  0.8718  0.9709
17138TIP3   OH272904   3.025   5.920  14.563 -0.2674 -0.4600 -0.3910
17138TIP3    H172905   3.109   5.960  14.585 -0.5112 -0.8909  1.4547
17138TIP3    H272906   2.964   5.953  14.630 -0.9817 -2.0778 -0.2073
17139TIP3   OH272907   5.947   5.938  15.480  0.1883 -0.2169 -0.5033
17139TIP3    H172908   5.946   6.015  15.422 -0.7453  0.3087  0.1960
17139TIP3    H272909   6.037   5.935  15.513  0.3258  0.3826 -0.8024
17140TIP3   OH272910   6.533   3.736   3.518 -0.0877  0.2501  0.1398
17140TIP3    H172911   6.510   3.765   3.606 -0.4567  2.2665 -0.6054
17140TIP3    H272912   6.584   3.808   3.481  0.2216 -0.6533 -1.2394
17141TIP3   OH272913   0.412   4.443  14.852 -0.0679  0.1140 -0.2211
17141TIP3    H172914   0.418   4.453  14.947 -1.3143  1.1886 -0.2530
17141TIP3    H272915   0.406   4.532  14.819  3.3022 -0.0758 -1.5497
17142TIP3   OH272916   1.625   3.893  16.703 -0.2090  0.5514 -0.2208
17142TIP3    H172917   1.667   3.856  16.780  1.1159 -0.5984 -1.4582
17142TIP3    H272918   1.601   3.816  16.650  2.4970  1.4073 -2.7897
17143TIP3   OH272919   0.744   2.454   4.870  0.2462  0.1662  0.2148
17143TIP3    H172920   0.673   2.515   4.849 -0.9644 -0.8172  1.3639
17143TIP3    H272921   0.704   2.368   4.867  1.0651 -0.3190  2.1159
17144TIP3   OH272922   1.637   6.055   6.524 -0.1430 -0.2516 -0.3440
17144TIP3    H172923   1.542   6.055   6.537 -0.2005  1.9552 -0.5028
17144TIP3    H272924   1.668   5.980   6.574 -1.4971  1.7343  3.7998
17145TIP3   OH272925   4.629   1.792  12.762 -0.0702  0.5821  0.0738
17145TIP3    H172926   4.637   1.746  12.678 -1.0165  2.6263 -1.1753
17145TIP3    H272927   4.579   1.733  12.818 -1.0205 -0.0401 -1.4113
17146TIP3   OH272928   1.050   5.598  13.354  0.4137  0.3500 -0.2756
17146TIP3    H172929   1.028   5.663  13.420 -1.1326 -0.6505  0.2190
17146TIP3    H272930   0.997   5.622  13.278 -0.9282 -0.8849  0.2421
17147TIP3   OH272931   4.643   2.074   2.695  0.4461  0.2540  0.3450
17147TIP3    H172932   4.575   2.008   2.683  1.7821 -0.8792 -1.2127
17147TIP3    H272933   4.698   2.067   2.617  0.3830  3.5183 -0.0820
17148TIP3   OH272934   1.891   2.772  17.260  0.1201 -0.0294  0.2450
17148TIP3    H172935   1.873   2.866  17.249  0.6410  0.0111 -0.3218
17148TIP3    H272936   1.813   2.737  17.304 -0.7112  0.3925 -0.8816
17149TIP3   OH272937   3.027   1.879  17.210 -0.2814  0.3503  0.2479
17149TIP3    H172938   3.000   1.954  17.157 -0.3140  1.1405  1.3538
17149TIP3    H272939   2.957   1.870  17.275  0.5265  0.4006  1.1342
17150TIP3   OH272940   5.107   3.725   4.426  0.4398  0.5888  0.1353
17150TIP3    H172941   5.065   3.648   4.464  0.5688  2.1611  3.6693
17150TIP3    H272942   5.201   3.709   4.436  0.4567  1.9304  2.6161
17151TIP3   OH272943   4.398   6.186   1.489  0.3361 -0.6709  0.0636
17151TIP3    H172944   4.416   6.164   1.397 -0.9006 -3.9190  0.5566
17151TIP3    H272945   4.306   6.164   1.502  0.9449 -1.8970  2.5421
17152TIP3   OH272946   5.449   3.499  14.907 -0.0474  0.1556  0.3670
17152TIP3    H172947   5.433   3.521  14.815 -0.4833  0.9835  0.6320
17152TIP3    H272948   5.410   3.412  14.917  1.5468 -0.6980 -0.6514
17153TIP3   OH272949   0.738   1.442  15.880 -0.3209  0.0623  0.3774
17153TIP3    H172950   0.645   1.418  15.884  0.6619 -3.8879  1.9723
17153TIP3    H272951   0.763   1.455  15.972  0.9735  0.0584  0.0344
17154TIP3   OH272952   1.655   6.524   2.880 -0.1575  0.2704  0.6181
17154TIP3    H172953   1.733   6.470   2.870  0.7696  0.8717  4.2233
17154TIP3    H272954   1.688   6.614   2.879 -0.9468  0.5675  1.1662
17155TIP3   OH272955   3.200   1.252   1.224  0.0611  0.1994  0.1068
17155TIP3    H172956   3.108   1.270   1.204  0.0296  1.2792  1.1333
17155TIP3    H272957   3.248   1.319   1.174  0.1101  1.4431  1.7776
17156TIP3   OH272958   2.914   1.100   4.735  0.0161  0.2737 -0.0321
17156TIP3    H172959   2.825   1.095   4.771 -0.1281 -1.0838 -0.5601
17156TIP3    H272960   2.969   1.059   4.801 -0.1930 -1.8387 -1.1345
17157TIP3   OH272961   2.030   1.328   0.063  0.2582  0.0499  0.3366
17157TIP3    H172962   2.090   1.276   0.009  0.9254  0.4638  0.6723
17157TIP3    H272963   2.064   1.417   0.057 -0.1519  0.2338  0.7699
17158TIP3   OH272964   5.413   4.643   5.931  0.6263 -0.4092  0.2954
17158TIP3    H172965   5.485   4.587   5.902  0.3584  0.2537 -1.7153
17158TIP3    H272966   5.451   4.730   5.941  0.3649 -0.2982  0.3418
17159TIP3   OH272967   2.197   0.097   0.883  0.1499  0.1689  0.1431
17159TIP3    H172968   2.216   0.117   0.791 -1.9854  1.0248 -0.1364
17159TIP3    H272969   2.252   0.158   0.932  0.3996  0.5345 -0.5771
17160TIP3   OH272970   1.573   5.124   4.448  0.4389 -0.4014 -0.1568
17160TIP3    H172971   1.511   5.190   4.479  0.9525  0.0073 -0.0017
17160TIP3    H272972   1.587   5.067   4.524  2.8329  1.4519  0.8479
17161TIP3   OH272973   5.228   3.009  13.270 -0.4809 -0.0863  0.3962
17161TIP3    H172974   5.186   3.095  13.275  0.8258  0.5683  0.3457
17161TIP3    H272975   5.245   2.986  13.362  0.3442  0.3088  0.3482
17162TIP3   OH272976   4.453   0.045  11.918  0.1706 -0.5339 -0.5212
17162TIP3    H172977   4.482  -0.009  11.844 -0.1854 -0.3598 -0.7884
17162TIP3    H272978   4.358   0.053  11.906  0.2489  0.3357 -0.6127
17163TIP3   OH272979   5.520   5.249   4.718  0.0717  0.0334  0.6121
17163TIP3    H172980   5.438   5.235   4.671  1.3445 -2.2014 -1.0626
17163TIP3    H272981   5.565   5.317   4.668 -0.0713  0.1175  0.5983
17164TIP3   OH272982   0.114   0.366   1.333  0.5398 -0.3546  0.0306
17164TIP3    H172983   0.082   0.326   1.414  2.1956 -0.1542  0.8049
17164TIP3    H272984   0.129   0.292   1.274 -0.9495 -0.4796 -0.2194
17165TIP3   OH272985   1.829   6.756  12.708  0.3993 -0.0270 -0.1209
17165TIP3    H172986   1.836   6.851  12.723 -0.4028 -0.0201  0.2588
17165TIP3    H272987   1.788   6.749  12.622  0.1241 -0.0235  0.0096
17166TIP3   OH272988   3.028   1.324  11.480  0.1844 -0.0970  0.1190
17166TIP3    H172989   3.024   1.238  11.521  1.1103 -0.6890 -0.9874
17166TIP3    H272990   2.968   1.378  11.531 -1.7732 -1.8391 -0.2765
17167TIP3   OH272991   4.359   0.994   0.898 -0.2880  0.1628  0.0309
17167TIP3    H172992   4.403   1.045   0.830  0.0500  0.6280  0.6068
17167TIP3    H272993   4.364   1.048   0.977 -2.8300  0.7368 -0.1323
17168TIP3   OH272994   3.908   1.961   0.017  0.2417  0.0897  0.0069
17168TIP3    H172995   3.965   1.995   0.085  1.3044  2.3611 -1.9539
17168TIP3    H272996   3.826   2.008   0.029 -0.5207 -1.5127  1.3825
17169TIP3   OH272997   1.936   0.560   1.492 -0.0626 -0.3808  0.3704
17169TIP3    H172998   1.887   0.543   1.411  0.2337  0.7313 -0.0539
17169TIP3    H272999   1.965   0.474   1.521 -0.2060 -0.7965 -0.6880
17170TIP3   OH273000   5.731   6.115  12.665  0.5671  0.3210 -0.1725
17170TIP3    H173001   5.695   6.031  12.693  0.5620  0.4742  0.2922
17170TIP3    H273002   5.803   6.132  12.726  1.6673 -0.1601 -1.3251
17171TIP3   OH273003   1.767   1.091  13.523  0.1519  0.8363  0.2887
17171TIP3    H173004   1.778   1.146  13.601  4.2380 -0.0737  0.4798
17171TIP3    H273005   1.731   1.150  13.457 -0.9278  2.2681  2.1109
17172TIP3   OH273006   5.990   4.785   3.829  0.0173  0.0392 -0.0285
17172TIP3    H173007   5.941   4.867   3.841  0.5222  0.2845  0.4181
17172TIP3    H273008   5.957   4.728   3.898  0.3625  0.2103  0.2829
17173TIP3   OH273009   4.619   0.409  12.389  0.3896 -0.0618  0.0907
17173TIP3    H173010   4.685   0.471  12.359  0.2012  1.1344  2.0848
17173TIP3    H273011   4.667   0.349  12.447 -0.1683  0.5557  1.2117
17174TIP3   OH273012   2.455   2.208  16.309  0.8654  0.4550  0.5999
17174TIP3    H173013   2.518   2.273  16.340  0.6058  0.5054  1.0371
17174TIP3    H273014   2.503   2.125  16.312  0.5203  0.2933  2.1979
17175TIP3   OH273015   1.118   0.238  15.110  0.1615  0.3895  0.3101
17175TIP3    H173016   1.083   0.150  15.098 -0.3685  0.5613  0.5753
17175TIP3    H273017   1.054   0.281  15.166  2.4930 -0.3533  3.6695
17176TIP3   OH273018   1.014   5.792  15.077 -0.2676  0.5742  0.7000
17176TIP3    H173019   1.034   5.712  15.029 -0.7198  1.9571 -1.8837
17176TIP3    H273020   1.097   5.819  15.116  0.2013 -0.3594  0.3510
17177TIP3   OH273021   6.689   1.660   5.127 -0.1705  0.0199 -0.3594
17177TIP3    H173022   6.706   1.748   5.094  0.0348  0.4049  0.7809
17177TIP3    H273023   6.775   1.623   5.146 -0.1326 -1.0797 -2.4611
17178TIP3   OH273024   4.296   6.367   2.644 -0.3476  0.6905 -0.4198
17178TIP3    H173025   4.292   6.383   2.738  1.0154 -1.2713  0.0119
17178TIP3    H273026   4.273   6.275   2.635 -1.9141  1.2233 -2.1708
17179TIP3   OH273027   0.731   4.565   5.645  0.1927  0.4195 -0.5767
17179TIP3    H173028   0.761   4.485   5.688  1.5935  0.6406 -1.0966
17179TIP3    H273029   0.731   4.631   5.715 -0.5378  0.0697 -0.2453
17180TIP3   OH273030   2.294   1.799   4.810 -0.2191  0.2665 -0.2559
17180TIP3    H173031   2.360   1.846   4.861 -0.6160 -0.1557  0.6629
17180TIP3    H273032   2.210   1.830   4.845 -0.5093  0.4770 -1.1192
17181TIP3   OH273033   3.761   4.602  14.875  0.1470  0.0149 -0.3785
17181TIP3    H173034   3.761   4.545  14.952  3.2835  1.8935  1.1130
17181TIP3    H273035   3.825   4.563  14.816  0.2633  0.4797 -0.5575
17182TIP3   OH273036   6.447   5.243   6.478  0.3150  0.4414  0.1239
17182TIP3    H173037   6.391   5.306   6.524  0.9099  2.2837 -1.5936
17182TIP3    H273038   6.395   5.212   6.405  1.4613  2.1537 -1.4736
17183TIP3   OH273039   2.466   6.688   2.784 -0.5157 -0.5691 -0.1560
17183TIP3    H173040   2.415   6.757   2.743 -2.3105 -1.4930  0.4514
17183TIP3    H273041   2.552   6.693   2.742 -1.2820  0.6370 -1.6255
17184TIP3   OH273042   1.397   5.103   0.771  0.0019 -0.0370  0.6944
17184TIP3    H173043   1.414   5.169   0.839 -3.3648 -0.3347  1.9235
17184TIP3    H273044   1.316   5.132   0.729 -0.4542 -2.3044 -0.0716
17185TIP3   OH273045   0.987   3.946   0.882  0.4597 -0.2204 -0.2243
17185TIP3    H173046   0.984   3.911   0.972  0.3884  0.2532 -0.0398
17185TIP3    H273047   1.072   3.919   0.849  0.4524 -0.4733 -0.0434
17186TIP3   OH273048   1.394   4.560  14.484  0.2035  0.1215 -0.0540
17186TIP3    H173049   1.466   4.497  14.491  0.9779  0.9767 -0.2649
17186TIP3    H273050   1.331   4.518  14.425  0.7448 -0.4259 -0.2436
17187TIP3   OH273051   5.608   3.871  13.942  0.0730  0.1147 -0.1853
17187TIP3    H173052   5.692   3.895  13.980 -0.4372  1.8160 -0.0476
17187TIP3    H273053   5.582   3.949  13.893 -1.0782 -0.6590 -0.8283
17188TIP3   OH273054   6.308   4.674   5.647  0.1524  0.6235 -0.0731
17188TIP3    H173055   6.238   4.736   5.668 -0.4765 -0.6161  1.5861
17188TIP3    H273056   6.379   4.698   5.706  0.6797  1.1047 -0.9058
17189TIP3   OH273057   4.659   2.798  13.231  0.5890 -0.2392 -0.0064
17189TIP3    H173058   4.584   2.795  13.172 -0.6908  0.3340  1.5588
17189TIP3    H273059   4.734   2.775  13.175 -0.1678  2.9728 -2.4974
17190TIP3   OH273060   2.346   0.403   4.527  0.3518 -0.3840 -0.1788
17190TIP3    H173061   2.262   0.378   4.487 -0.0124 -0.9817  0.9421
17190TIP3    H273062   2.333   0.388   4.620  0.3746  3.3118  0.4824
17191TIP3   OH273063   6.701   6.513   5.119 -0.2118  0.1608 -0.3793
17191TIP3    H173064   6.666   6.489   5.205 -1.2956  2.0784 -0.2702
17191TIP3    H273065   6.647   6.586   5.090 -0.2499 -0.8496 -2.9820
17192TIP3   OH273066   1.784   5.889   4.311 -0.5660 -0.1126  0.2490
17192TIP3    H173067   1.801   5.797   4.327 -2.8735 -0.7132 -0.5942
17192TIP3    H273068   1.870   5.930   4.312  0.7201 -2.6464 -1.6033
17193TIP3   OH273069   0.076   5.984   4.443  0.2154  0.0916 -0.4537
17193TIP3    H173070   0.028   5.916   4.396 -0.3517  0.3040 -0.1860
17193TIP3    H273071   0.125   5.935   4.510  1.5840 -0.2781 -1.7176
17194TIP3   OH273072   5.634   5.997  15.765 -0.2802  0.6552 -0.2501
17194TIP3    H173073   5.699   6.065  15.747  1.6604 -0.8533  0.8702
17194TIP3    H273074   5.672   5.917  15.729  0.2844 -0.9856  3.6740
17195TIP3   OH273075   6.558   2.715  14.081 -0.3560 -0.3378  0.3037
17195TIP3    H173076   6.487   2.704  14.018 -0.7121 -0.4995  0.7252
17195TIP3    H273077   6.534   2.794  14.130 -0.2196 -0.3651  0.4111
17196TIP3   OH273078   0.104   2.599   2.448  0.1934  0.4471 -0.0429
17196TIP3    H173079   0.140   2.570   2.364 -0.8527  0.4631 -0.5163
17196TIP3    H273080   0.178   2.638   2.495  1.2949 -1.6530 -0.0023
17197TIP3   OH273081   2.293   3.066   5.713  0.1131  0.9326  0.1506
17197TIP3    H173082   2.290   3.037   5.804 -0.9601  0.6116  0.0096
17197TIP3    H273083   2.289   2.986   5.661  1.3879  1.0730 -0.1773
17198TIP3   OH273084   4.288   5.060   3.900 -0.7718  0.0440  0.1650
17198TIP3    H173085   4.251   5.146   3.879 -1.2695  0.1075  1.2779
17198TIP3    H273086   4.213   5.009   3.931  0.0017  0.0527  2.0661
17199TIP3   OH273087   4.344   2.145  13.018  0.0486  0.0653  0.0273
17199TIP3    H173088   4.265   2.175  13.064 -0.1936 -1.6060  0.7496
17199TIP3    H273089   4.399   2.109  13.088  0.6096 -0.5240 -0.7151
17200TIP3   OH273090   3.930   0.918   3.415  0.0773 -0.2469 -0.1090
17200TIP3    H173091   4.023   0.919   3.435 -0.0875  0.7618  0.6552
17200TIP3    H273092   3.901   1.008   3.434 -1.1647 -0.7184  0.2509
17201TIP3   OH273093   3.967   2.471   0.637 -0.0923 -0.3206  0.6056
17201TIP3    H173094   4.053   2.447   0.671  0.2840  1.6976  1.1267
17201TIP3    H273095   3.979   2.561   0.604 -2.1414  0.1808  1.2158
17202TIP3   OH273096   6.530   4.310   2.093 -0.1376 -0.1381  0.3583
17202TIP3    H173097   6.583   4.279   2.168  0.0027 -0.3119  0.1870
17202TIP3    H273098   6.517   4.403   2.111  1.4376  0.2219 -0.3114
17203TIP3   OH273099   2.626   6.398   3.385 -0.3163  0.4117  0.4448
17203TIP3    H173100   2.686   6.468   3.412 -0.0529  1.6524 -3.1488
17203TIP3    H273101   2.674   6.348   3.320 -1.6887 -1.1840  0.6308
17204TIP3   OH273102   6.314   2.057  12.513 -0.2656 -0.6787  0.2396
17204TIP3    H173103   6.224   2.034  12.487 -0.4135  0.5031 -0.3405
17204TIP3    H273104   6.312   2.152  12.521  1.1918 -0.5539 -0.7812
17205TIP3   OH273105   1.863   1.649  16.108 -0.2703 -0.5575 -0.0222
17205TIP3    H173106   1.837   1.674  16.197 -0.2447 -1.1933  0.1688
17205TIP3    H273107   1.790   1.678  16.053  0.9805  2.4572 -0.1946
17206TIP3   OH273108   4.256   1.049   1.543 -0.5748 -0.0383  0.6757
17206TIP3    H173109   4.311   1.027   1.468 -0.6325  1.6131  0.1337
17206TIP3    H273110   4.182   0.989   1.536  2.3329 -4.1670  2.9325
17207TIP3   OH273111   3.564   5.696  14.939  0.1363 -0.1795  0.2561
17207TIP3    H173112   3.524   5.664  14.858  1.9290 -1.9499  0.0443
17207TIP3    H273113   3.494   5.690  15.004 -1.0037  0.2189 -0.9072
17208TIP3   OH273114   3.982   3.727  12.314 -0.1750  0.1668  0.3382
17208TIP3    H173115   4.057   3.698  12.366  1.5264  2.0624 -0.9949
17208TIP3    H273116   3.987   3.674  12.234  0.6488  1.3692 -0.4112
17209TIP3   OH273117   6.049   3.227  11.764  0.1938 -0.1669  0.5076
17209TIP3    H173118   6.108   3.300  11.782 -0.0356 -0.2775  1.7266
17209TIP3    H273119   6.005   3.211  11.847 -0.6838 -0.8680 -0.0907
17210TIP3   OH273120   4.965   1.303   1.662 -0.0144 -0.3214  0.0633
17210TIP3    H173121   5.029   1.249   1.616 -1.1537 -1.6197 -0.0166
17210TIP3    H273122   4.968   1.272   1.753 -0.3380 -0.2052  0.1135
17211TIP3   OH273123   6.622   3.971   5.647 -0.1147 -0.4943  0.2528
17211TIP3    H173124   6.663   3.900   5.697  0.6842 -0.5317 -0.4502
17211TIP3    H273125   6.589   3.928   5.568  0.7539 -0.0065 -0.3789
17212TIP3   OH273126   5.169   6.786  13.958  0.1974  0.1135 -0.6021
17212TIP3    H173127   5.105   6.724  13.923  0.3325 -0.4592  0.1510
17212TIP3    H273128   5.252   6.761  13.917  0.3053 -0.3832 -0.0798
17213TIP3   OH273129   5.296   2.609  15.636  0.1729  0.1005  0.3255
17213TIP3    H173130   5.254   2.667  15.700 -0.8457  0.0942 -0.3128
17213TIP3    H273131   5.390   2.618  15.653  0.1008  2.6429 -0.3415
17214TIP3   OH273132   3.143   1.016   0.557  0.0222 -0.1116 -0.3224
17214TIP3    H173133   3.143   0.931   0.515 -1.4959 -0.9825  1.3600
17214TIP3    H273134   3.133   1.079   0.485 -2.1171 -1.5256 -1.2926
17215TIP3   OH273135   5.799   6.744  16.049 -0.0027  0.3349 -0.5409
17215TIP3    H173136   5.707   6.727  16.032  0.4500 -1.8262 -0.8966
17215TIP3    H273137   5.846   6.686  15.990  1.5908 -0.6942  1.6852
17216TIP3   OH273138   2.273   2.897  12.694  0.2700  0.6944 -0.1080
17216TIP3    H173139   2.241   2.835  12.629  0.5790  0.0926  0.3060
17216TIP3    H273140   2.368   2.882  12.697  0.0506 -0.5305  1.7443
17217TIP3   OH273141   4.705   1.654   0.443  0.5766  0.2605  0.6459
17217TIP3    H173142   4.741   1.737   0.410 -0.8294  1.2285  1.4893
17217TIP3    H273143   4.763   1.587   0.407  1.9075  1.6265  0.1791
17218TIP3   OH273144   5.889   4.115   1.401  0.4731  0.0849  0.0605
17218TIP3    H173145   5.936   4.086   1.322  0.5155  0.6360 -0.1171
17218TIP3    H273146   5.954   4.109   1.471  1.0626  1.6662 -0.3388
17219TIP3   OH273147   1.392   4.143  16.261 -0.0242  0.1017 -0.0308
17219TIP3    H173148   1.382   4.068  16.320  2.2029  0.6210  1.0461
17219TIP3    H273149   1.476   4.129  16.217 -0.0557  1.4535 -0.5605
17220TIP3   OH273150   0.971   5.828  13.008  0.1474  0.5024 -0.0013
17220TIP3    H173151   0.945   5.761  13.071 -0.3053  1.7788  1.2133
17220TIP3    H273152   1.010   5.780  12.935 -1.5073 -1.1510  0.1792
17221TIP3   OH273153   5.512   6.286  16.072 -0.2007  0.2766  0.1159
17221TIP3    H173154   5.581   6.338  16.114 -1.9889  1.1652  1.9983
17221TIP3    H273155   5.486   6.222  16.138  0.0256 -1.2506 -1.2198
17222TIP3   OH273156   3.584   1.463  13.850  0.0426  0.1627 -1.0827
17222TIP3    H173157   3.678   1.453  13.833  0.1188 -0.6229 -0.2389
17222TIP3    H273158   3.543   1.392  13.800  0.2262 -1.8439  1.5003
17223TIP3   OH273159   4.213   2.210   5.477 -0.1801 -0.4897 -0.0459
17223TIP3    H173160   4.199   2.270   5.404  0.5629 -0.1711  0.0709
17223TIP3    H273161   4.268   2.258   5.538  1.3705 -1.6867 -0.4666
17224TIP3   OH273162   5.118   6.111  15.612 -0.4467 -0.5053  0.7152
17224TIP3    H173163   5.093   6.202  15.631 -0.3159 -0.9519  3.1103
17224TIP3    H273164   5.206   6.101  15.648  0.1560 -1.1891 -0.8601
17225TIP3   OH273165   5.196   2.068   3.672  0.6152  0.4067  0.7248
17225TIP3    H173166   5.273   2.125   3.670  0.9105  0.0162  1.0012
17225TIP3    H273167   5.199   2.020   3.589 -0.1930  1.5306  0.0359
17226TIP3   OH273168   4.492   5.823  12.571  0.1883  0.1731  0.5149
17226TIP3    H173169   4.544   5.848  12.495 -0.8310  0.8462  0.0345
17226TIP3    H273170   4.484   5.903  12.623  0.0568 -0.0465  0.8382
17227TIP3   OH273171   3.400   1.051  12.727 -0.0126  0.0849 -0.1205
17227TIP3    H173172   3.311   1.049  12.692 -0.2624  1.3900  0.4069
17227TIP3    H273173   3.442   0.972  12.691 -0.4840  0.9704 -2.7614
17228TIP3   OH273174   3.626   3.672  11.516 -0.3454  0.2395  0.2250
17228TIP3    H173175   3.665   3.688  11.430 -0.3545 -0.1680  0.1424
17228TIP3    H273176   3.692   3.703  11.578  0.0149 -0.2192  0.0810
17229TIP3   OH273177   1.074   3.643   6.024 -0.4088  0.3519  0.5460
17229TIP3    H173178   1.040   3.602   5.944 -1.4811  0.3371  1.0147
17229TIP3    H273179   1.081   3.571   6.087  3.0304 -0.1919 -0.3332
17230TIP3   OH273180   5.993   1.423  12.969  0.5939  0.2895 -0.6228
17230TIP3    H173181   6.075   1.470  12.983 -0.3149  2.2972 -1.8620
17230TIP3    H273182   6.000   1.386  12.881  0.4365 -0.1458 -0.4585
17231TIP3   OH273183   0.065   5.800   3.180 -0.2219 -0.0693 -0.5261
17231TIP3    H173184   0.147   5.764   3.146  0.7502  1.7157 -0.1417
17231TIP3    H273185   0.040   5.866   3.116  0.4935  1.8173  1.1090
17232TIP3   OH273186   3.266   0.086   1.723  0.0388  0.1755 -0.5536
17232TIP3    H173187   3.239   0.150   1.657  0.9683  0.1752 -0.9498
17232TIP3    H273188   3.347   0.122   1.759 -0.4559  0.1646  0.5813
17233TIP3   OH273189   1.442   6.413  17.077 -0.1681  0.0189  0.0972
17233TIP3    H173190   1.531   6.381  17.061 -0.7837 -0.8193 -1.6452
17233TIP3    H273191   1.386   6.354  17.028 -1.5672  1.6648 -0.3058
17234TIP3   OH273192   6.362   6.589   1.645 -0.2870  0.0412  0.3786
17234TIP3    H173193   6.384   6.633   1.727 -0.2416  1.3564 -0.3280
17234TIP3    H273194   6.441   6.541   1.621  0.1551  0.7571  0.4002
17235TIP3   OH273195   3.638   3.533  15.047  0.1019  0.1547  0.3761
17235TIP3    H173196   3.620   3.603  14.984  1.1638  0.4056  0.3465
17235TIP3    H273197   3.700   3.475  15.002  0.4664  0.0569  0.9930
17236TIP3   OH273198   2.572   4.657  12.485  0.1960  0.6273  0.2612
17236TIP3    H173199   2.626   4.682  12.410  0.0278  2.0544  0.6069
17236TIP3    H273200   2.628   4.601  12.538 -0.3268 -2.0919 -1.9292
17237TIP3   OH273201   5.413   2.874   0.635 -0.3723 -0.7158 -0.2610
17237TIP3    H173202   5.481   2.808   0.645 -1.4592 -2.0050 -1.1266
17237TIP3    H273203   5.440   2.926   0.560 -0.4934 -1.4312 -0.8071
17238TIP3   OH273204   0.108   1.360   1.234 -0.0867 -0.1841 -0.4272
17238TIP3    H173205   0.019   1.325   1.232 -0.1112 -0.1473  0.0026
17238TIP3    H273206   0.135   1.351   1.325 -0.7290  2.4822  0.0845
17239TIP3   OH273207   3.221   2.690  12.757 -0.0680 -0.4566  0.3371
17239TIP3    H173208   3.213   2.703  12.851  0.0153  0.7822  0.1866
17239TIP3    H273209   3.173   2.764  12.719  0.4506 -0.5936 -0.5919
17240TIP3   OH273210   5.817   0.056  17.177 -0.3527 -0.2616 -0.3479
17240TIP3    H173211   5.790   0.099  17.259 -0.0247 -2.5422  1.0020
17240TIP3    H273212   5.780   0.111  17.108 -0.1121  2.0657  1.3038
17241TIP3   OH273213   4.988   2.728  13.004  0.1469 -0.0209 -0.3988
17241TIP3    H173214   4.924   2.657  12.997  0.8259 -1.0576  2.8587
17241TIP3    H273215   5.055   2.706  12.939 -0.0323 -1.9914  0.0411
17242TIP3   OH273216   2.932   0.021   3.820  0.1356 -0.3311 -0.2093
17242TIP3    H173217   2.990  -0.001   3.893  2.1320 -0.3681 -1.7282
17242TIP3    H273218   2.992   0.037   3.747 -1.5765  3.8607 -0.8170
17243TIP3   OH273219   6.252   4.011   3.232  0.0721 -0.0989  0.1177
17243TIP3    H173220   6.319   4.027   3.166  2.1669  1.7787  2.6172
17243TIP3    H273221   6.169   4.018   3.183  1.5582  0.3245 -2.4718
17244TIP3   OH273222   2.053   1.136   4.521 -0.4181 -0.2664  0.1275
17244TIP3    H173223   2.053   1.196   4.595 -0.7637 -0.1549  0.0388
17244TIP3    H273224   2.144   1.134   4.492 -0.1077 -1.0146  1.1137
17245TIP3   OH273225   1.683   4.208   3.358  0.4364 -0.4404  0.0320
17245TIP3    H173226   1.660   4.275   3.422  2.7591 -0.2096  0.6598
17245TIP3    H273227   1.698   4.256   3.276  0.1743 -0.4153  0.0001
17246TIP3   OH273228   3.229   0.544   4.269 -0.9365  0.9737 -0.0017
17246TIP3    H173229   3.223   0.620   4.326 -1.5492 -0.6552  2.1680
17246TIP3    H273230   3.296   0.489   4.309 -1.7447 -0.4356 -0.5574
17247TIP3   OH273231   3.137   5.239   4.396  0.1841  0.0434  0.2186
17247TIP3    H173232   3.182   5.250   4.312 -0.0602  0.0436  0.0890
17247TIP3    H273233   3.198   5.187   4.449  0.8447  1.0103  0.4379
17248TIP3   OH273234   1.979   2.900   2.525 -0.1311 -0.6038 -0.9467
17248TIP3    H173235   2.071   2.883   2.544 -0.2311 -0.2470 -0.1040
17248TIP3    H273236   1.953   2.831   2.465  0.6656 -0.7537 -1.1234
17249TIP3   OH273237   3.155   4.234   4.189 -0.2784 -0.6813 -0.4530
17249TIP3    H173238   3.202   4.317   4.193  0.4777 -1.1699  2.4056
17249TIP3    H273239   3.088   4.241   4.258  1.5470 -3.3855  1.7409
17250TIP3   OH273240   5.503   4.365   5.346 -0.3484 -0.3130 -0.5305
17250TIP3    H173241   5.549   4.387   5.427  0.0702  0.5191 -0.9911
17250TIP3    H273242   5.519   4.271   5.335  1.5585  0.0199 -0.8632
17251TIP3   OH273243   6.376   0.777  16.821  0.1876 -0.2091 -0.3220
17251TIP3    H173244   6.448   0.819  16.868  0.8011  0.7962 -2.1270
17251TIP3    H273245   6.410   0.690  16.798  1.3709  0.7567 -2.3681
17252TIP3   OH273246   1.726   2.992   2.639 -0.0361 -0.3422  0.7015
17252TIP3    H173247   1.811   2.965   2.673  1.5982  2.8038 -0.7026
17252TIP3    H273248   1.713   2.938   2.561  2.2468  1.3622 -0.9334
17253TIP3   OH273249   5.058   3.835  10.499  0.5315 -0.7771 -0.3494
17253TIP3    H173250   5.076   3.928  10.491 -1.0130 -0.3341  0.8470
17253TIP3    H273251   5.138   3.797  10.536  0.1913  0.5803  1.8947
17254TIP3   OH273252   0.852   4.186  14.849 -0.0840  0.4288 -0.1315
17254TIP3    H173253   0.896   4.175  14.764 -1.7600  0.1563 -0.9706
17254TIP3    H273254   0.823   4.097  14.872 -1.3254  0.8195 -0.1908
17255TIP3   OH273255   0.207   4.618   4.995  0.3615 -0.4171 -0.2423
17255TIP3    H173256   0.114   4.639   5.004  0.7068  1.4332 -0.7284
17255TIP3    H273257   0.232   4.582   5.080 -0.8670 -1.2506 -0.2153
17256TIP3   OH273258   0.836   1.829   0.988  0.1823  0.2715 -0.2359
17256TIP3    H173259   0.820   1.797   0.899 -1.4392 -0.6343  0.3693
17256TIP3    H273260   0.770   1.897   1.001 -0.2069 -0.2785  0.6356
17257TIP3   OH273261   2.364   3.258   5.376 -0.5572  0.6708 -0.0082
17257TIP3    H173262   2.429   3.283   5.442  0.1269 -0.9332 -0.0491
17257TIP3    H273263   2.295   3.324   5.384  0.5157  1.7170  0.8489
17258TIP3   OH273264   1.546   5.840   2.322 -0.6604 -0.3470 -0.2567
17258TIP3    H173265   1.546   5.927   2.361 -1.6875 -0.7786  0.7140
17258TIP3    H273266   1.466   5.836   2.271 -0.5020 -0.6356 -0.4832
17259TIP3   OH273267   5.583   1.066   5.082 -0.1833 -0.0901 -1.0617
17259TIP3    H173268   5.568   1.092   4.991  0.7686  0.1246 -1.1616
17259TIP3    H273269   5.673   1.032   5.083 -0.3918 -0.6255 -0.3204
17260TIP3   OH273270   3.336   6.260  12.665  0.5485 -0.8876  0.7178
17260TIP3    H173271   3.399   6.327  12.692  0.2489 -0.4331  0.2995
17260TIP3    H273272   3.389   6.193  12.623  0.9186 -1.1972  1.6759
17261TIP3   OH273273   6.402   1.186  17.037 -0.0898 -0.0991  0.1334
17261TIP3    H173274   6.371   1.106  16.994  1.4646  0.2544 -1.7020
17261TIP3    H273275   6.478   1.212  16.986 -0.2059  2.2115  1.1134
17262TIP3   OH273276   2.843   0.385   3.487  0.2054  0.0605  0.0180
17262TIP3    H173277   2.762   0.335   3.491 -1.7733  3.0385 -0.7950
17262TIP3    H273278   2.864   0.390   3.393 -0.4001  1.8853 -0.0383
17263TIP3   OH273279   2.856   1.070   1.336 -0.4809  0.2496  0.0356
17263TIP3    H173280   2.907   1.043   1.412  0.4497  2.8067  0.3696
17263TIP3    H273281   2.775   1.104   1.372 -0.4181  0.6361 -0.1872
17264TIP3   OH273282   5.865   3.463  16.142  0.3343 -0.0126 -0.0872
17264TIP3    H173283   5.878   3.422  16.056 -1.9907 -2.4351  0.6287
17264TIP3    H273284   5.947   3.448  16.189  1.1517  0.1825 -1.4300
17265TIP3   OH273285   3.977   3.264   2.076 -0.8433 -0.2911 -0.0594
17265TIP3    H173286   3.889   3.301   2.075 -1.0935 -0.8830 -0.0798
17265TIP3    H273287   4.019   3.300   1.998 -1.2637 -0.4934 -0.3787
17266TIP3   OH273288   4.081   0.376   5.934 -0.2929  0.3012 -0.3183
17266TIP3    H173289   4.018   0.447   5.947 -0.8687 -0.1540 -0.6480
17266TIP3    H273290   4.095   0.373   5.840 -0.7635 -0.4523 -0.3653
17267TIP3   OH273291   3.350   3.701   3.269 -0.2733  0.1151  0.0513
17267TIP3    H173292   3.276   3.651   3.236  0.0713  0.0860 -0.6950
17267TIP3    H273293   3.324   3.729   3.357 -0.4888 -1.3050  0.4375
17268TIP3   OH273294   3.557   3.198  14.595  0.1216 -0.5388  0.1488
17268TIP3    H173295   3.501   3.215  14.519  0.4720 -2.2313 -0.4925
17268TIP3    H273296   3.621   3.134  14.564  1.4014  0.1341  1.3545
17269TIP3   OH273297   4.786   0.591  14.748  0.5698  0.0313 -0.4322
17269TIP3    H173298   4.750   0.627  14.829  1.7973 -3.7977  1.9884
17269TIP3    H273299   4.716   0.537  14.712  0.6122  0.3425 -0.9820
17270TIP3   OH273300   3.990   5.251  13.508 -0.0854 -0.1191 -0.8624
17270TIP3    H173301   4.074   5.290  13.486  0.9184 -1.8255 -0.0746
17270TIP3    H273302   3.991   5.241  13.603 -0.7970 -1.0163 -0.9391
17271TIP3   OH273303   3.429   5.826  11.817  0.0785  0.0292 -0.0083
17271TIP3    H173304   3.439   5.800  11.725 -0.5838 -0.5119  0.0648
17271TIP3    H273305   3.477   5.908  11.824  0.5579 -0.1830 -0.7218
17272TIP3   OH273306   6.098   1.154   3.245  0.0372 -0.4409 -0.3050
17272TIP3    H173307   6.166   1.161   3.312 -0.2373 -0.0819 -0.0626
17272TIP3    H273308   6.021   1.124   3.293  0.2106 -1.5765 -0.7024
17273TIP3   OH273309   1.095   5.183   1.290 -0.2662 -0.0270 -1.1455
17273TIP3    H173310   1.067   5.273   1.278 -0.4959  0.0923  0.1809
17273TIP3    H273311   1.047   5.134   1.224 -2.2436  0.4435 -0.0958
17274TIP3   OH273312   5.961   0.957  17.179 -0.6972  0.2507 -0.0126
17274TIP3    H173313   5.896   0.985  17.115 -0.2691  0.1915 -0.4754
17274TIP3    H273314   6.029   1.024  17.177  0.1724 -0.6323 -0.8967
17275TIP3   OH273315   4.731   4.298   2.144 -0.2757  0.2976 -0.2346
17275TIP3    H173316   4.671   4.224   2.140  2.4480 -1.9338 -1.2539
17275TIP3    H273317   4.786   4.280   2.220  1.2795  0.5486 -1.2799
17276TIP3   OH273318   5.635   6.066  13.747  0.0554  0.0842 -0.1461
17276TIP3    H173319   5.558   6.014  13.726  0.3822 -0.8977  1.1056
17276TIP3    H273320   5.709   6.008  13.731  0.4008 -0.0004  1.6960
17277TIP3   OH273321   6.011   1.102   1.450 -0.0384  0.5539 -0.5436
17277TIP3    H173322   6.105   1.091   1.465 -0.5437 -2.0647  0.8486
17277TIP3    H273323   6.006   1.165   1.378  2.8042  0.2210 -1.0854
17278TIP3   OH273324   4.683   5.165   1.724  0.0719 -0.3153  0.5384
17278TIP3    H173325   4.700   5.118   1.805  1.6958  1.6756  1.3990
17278TIP3    H273326   4.750   5.133   1.663  1.2523  0.9130  1.1600
17279TIP3   OH273327   6.158   4.021   2.531 -0.4184 -0.1597  0.1324
17279TIP3    H173328   6.139   4.059   2.446  1.1107  0.0239 -0.1316
17279TIP3    H273329   6.177   4.096   2.588 -1.0498 -0.3046  0.5438
17280TIP3   OH273330   3.978   3.258   4.285  0.1222 -0.2285  0.0254
17280TIP3    H173331   4.036   3.204   4.233  1.7082  1.0484  0.4345
17280TIP3    H273332   3.947   3.200   4.354  1.4294 -0.7574  0.1782
17281TIP3   OH273333   0.587   4.486  14.431 -0.4689  0.0625  0.2300
17281TIP3    H173334   0.501   4.458  14.398  0.2442 -1.2402 -0.5490
17281TIP3    H273335   0.599   4.438  14.512 -0.3214 -0.0105  0.1634
17282TIP3   OH273336   6.032   4.488   6.306  0.7492 -0.4062  0.4151
17282TIP3    H173337   6.014   4.579   6.285 -1.2542 -1.0398 -0.7606
17282TIP3    H273338   6.073   4.490   6.392  1.3178  1.6401  0.1021
17283TIP3   OH273339   3.749   0.843  16.104 -0.3203  0.5766 -0.0426
17283TIP3    H173340   3.659   0.836  16.072 -0.1512  0.5645 -0.5103
17283TIP3    H273341   3.783   0.754  16.099  0.2761  0.8910 -1.4788
17284TIP3   OH273342   6.795   1.798  16.222  0.8296  0.0511  1.0458
17284TIP3    H173343   6.887   1.791  16.198  0.3098 -0.3179 -1.0232
17284TIP3    H273344   6.784   1.889  16.249  1.7682  0.1264  1.1890
17285TIP3   OH273345   1.999   0.744  15.220  0.1334 -0.2924  0.5566
17285TIP3    H173346   2.072   0.686  15.243 -0.2750 -1.4582 -0.9158
17285TIP3    H273347   2.040   0.817  15.174  0.4032 -0.9757 -0.3250
17286TIP3   OH273348   6.770   6.408  11.158 -0.3251 -0.0036 -0.3794
17286TIP3    H173349   6.726   6.354  11.224 -0.4396 -1.2310 -1.4257
17286TIP3    H273350   6.705   6.474  11.133 -1.0956 -0.9371 -0.8882
17287TIP3   OH273351   1.070   6.705   2.152  0.0669 -0.0681  0.2794
17287TIP3    H173352   1.101   6.652   2.225 -1.0313  1.7766  2.1159
17287TIP3    H273353   1.128   6.781   2.151 -2.2984  1.7904  1.6639
17288TIP3   OH273354   4.054   5.821   5.559 -0.5442 -0.2580 -1.0920
17288TIP3    H173355   3.992   5.770   5.610  0.5155  0.2888  0.8339
17288TIP3    H273356   4.108   5.756   5.513  2.1825 -1.0727  2.9925
17289TIP3   OH273357   2.870   0.041   4.345 -0.1486 -0.1364  0.4276
17289TIP3    H173358   2.877   0.012   4.436 -0.4222 -1.8949 -0.0951
17289TIP3    H273359   2.797   0.103   4.345 -0.0994 -0.0772  1.4238
17290TIP3   OH273360   2.206   2.864   1.643  0.3400 -0.0453 -0.5557
17290TIP3    H173361   2.248   2.867   1.557  1.2364  1.7637 -0.0634
17290TIP3    H273362   2.184   2.955   1.662  1.1827 -0.2790  1.6362
17291TIP3   OH273363   4.877   2.825  15.724 -0.5226  0.1417 -0.7292
17291TIP3    H173364   4.860   2.741  15.766  0.4654 -0.3178 -1.2289
17291TIP3    H273365   4.901   2.883  15.796  0.0516 -0.3420 -0.5322
17292TIP3   OH273366   1.628   6.009   1.086  0.1588  0.6601  0.2942
17292TIP3    H173367   1.666   6.078   1.140 -2.0448  1.1084  1.3316
17292TIP3    H273368   1.652   6.033   0.997  3.6963  0.0063  1.0173
17293TIP3   OH273369   1.474   3.417  11.450 -0.0472  0.0437 -0.4808
17293TIP3    H173370   1.567   3.396  11.453  0.0501  0.7054  1.7229
17293TIP3    H273371   1.443   3.378  11.368  2.3863  0.7321 -1.7594
17294TIP3   OH273372   4.054   2.749   6.066  0.6017 -0.5953  0.6779
17294TIP3    H173373   4.096   2.834   6.077  0.8696 -0.7303  0.7103
17294TIP3    H273374   4.072   2.725   5.975 -1.3211  0.3668  0.0184
17295TIP3   OH273375   3.071   0.725  15.673 -0.3390  0.6643  0.7444
17295TIP3    H173376   3.119   0.646  15.648 -0.7502  1.1668 -1.7475
17295TIP3    H273377   3.042   0.707  15.763  0.6898 -1.4714  0.6998
17296TIP3   OH273378   3.188   0.767  10.902  0.3876 -0.0005  0.0639
17296TIP3    H173379   3.234   0.827  10.843 -1.5591  0.4324 -1.0878
17296TIP3    H273380   3.153   0.823  10.971 -1.3467  0.2263 -0.9578
17297TIP3   OH273381   5.985   4.432  10.825 -0.0373  0.5314  0.6122
17297TIP3    H173382   6.013   4.487  10.751 -0.8469  1.0095  0.6548
17297TIP3    H273383   6.065   4.418  10.875  0.2419  1.4340  0.4366
17298TIP3   OH273384   2.283   3.875   0.503 -0.5383  0.7122  0.0717
17298TIP3    H173385   2.322   3.840   0.423 -2.2509 -1.6790  0.2284
17298TIP3    H273386   2.344   3.848   0.572  0.1607  1.4656 -0.2417
17299TIP3   OH273387   6.063   5.708   2.578  0.3987 -0.5906 -0.0115
17299TIP3    H173388   6.016   5.774   2.526  0.6567  0.8290  1.5003
17299TIP3    H273389   5.996   5.646   2.603 -0.2928  0.3036  0.3923
17300TIP3   OH273390   5.995   1.375   4.350 -0.5278  0.0304  0.0116
17300TIP3    H173391   5.983   1.463   4.315  2.1440  0.4271  0.0630
17300TIP3    H273392   6.035   1.388   4.436 -2.3686 -1.1625  1.0915
17301TIP3   OH273393   1.186   5.342   5.634  0.2928  0.3341 -0.2153
17301TIP3    H173394   1.208   5.350   5.727  0.8138 -0.1329 -0.2955
17301TIP3    H273395   1.141   5.424   5.613  1.4324  1.0627  0.1078
17302TIP3   OH273396   0.975   5.927  16.511 -0.0039 -0.7936 -0.0491
17302TIP3    H173397   0.907   5.939  16.445  0.2949  1.4373 -0.0031
17302TIP3    H273398   0.952   5.845  16.555 -2.0132 -0.6528 -0.7764
17303TIP3   OH273399   2.105   4.517  16.021  0.2183 -0.7676 -0.0372
17303TIP3    H173400   2.099   4.443  15.960  1.8502  0.0684 -1.2592
17303TIP3    H273401   2.117   4.477  16.107  1.0254 -1.9516 -0.6823
17304TIP3   OH273402   2.837   6.541   5.034  0.0247 -0.0708 -0.2727
17304TIP3    H173403   2.841   6.636   5.021 -1.7378  0.0432 -0.0511
17304TIP3    H273404   2.922   6.519   5.072  0.7484  1.2998 -1.0350
17305TIP3   OH273405   3.192   4.134  13.254 -0.0858  0.0917 -0.4704
17305TIP3    H173406   3.130   4.071  13.291  0.3608  0.5301  1.0644
17305TIP3    H273407   3.258   4.081  13.209 -0.9871 -0.4199 -1.2051
17306TIP3   OH273408   2.444   1.246   4.624  0.4194  0.2958  0.0608
17306TIP3    H173409   2.460   1.234   4.717 -2.8277  1.7478  0.8656
17306TIP3    H273410   2.393   1.169   4.599  0.9567  0.0995 -0.4400
17307TIP3   OH273411   6.155   6.652   3.237  0.5695  0.3061  0.0520
17307TIP3    H173412   6.173   6.637   3.330  2.5427  0.3912 -0.2951
17307TIP3    H273413   6.172   6.746   3.225  1.9753 -0.0493 -0.7536
17308TIP3   OH273414   3.280   6.365  16.631  0.4031  0.2839 -0.5983
17308TIP3    H173415   3.355   6.317  16.664 -0.5903 -0.6034  0.4068
17308TIP3    H273416   3.257   6.425  16.702 -1.8729 -1.7797  0.4876
17309TIP3   OH273417   4.525   5.803   2.562  0.2996 -0.0780  0.1534
17309TIP3    H173418   4.557   5.822   2.474 -0.5386 -0.5035 -0.2514
17309TIP3    H273419   4.584   5.736   2.595 -0.9615 -1.8374 -1.1010
17310TIP3   OH273420   5.216   3.063   1.186  0.1777  0.2271  0.2533
17310TIP3    H173421   5.296   3.012   1.197  2.3657  3.7885  1.6049
17310TIP3    H273422   5.223   3.099   1.098  0.5828  1.3797  0.7540
17311TIP3   OH273423   5.289   1.420  16.408  0.0420  0.1071  0.5812
17311TIP3    H173424   5.271   1.401  16.316  0.4455 -0.6009  0.6435
17311TIP3    H273425   5.206   1.405  16.452 -0.0533  0.0773  0.3926
17312TIP3   OH273426   4.412   2.282  12.799 -0.6055 -0.2885 -0.6929
17312TIP3    H173427   4.469   2.229  12.742  2.5024  0.7845  1.3305
17312TIP3    H273428   4.411   2.235  12.882 -0.6038  1.0641  0.0772
17313TIP3   OH273429   4.459   5.308   0.301  0.2541  0.8314 -0.3078
17313TIP3    H173430   4.407   5.384   0.275  2.1742  2.3217  0.1092
17313TIP3    H273431   4.452   5.304   0.396 -1.2331 -0.5699 -0.4483
17314TIP3   OH273432   4.284   0.497  13.323  0.0527 -0.2367 -0.6958
17314TIP3    H173433   4.199   0.506  13.367 -0.7729  1.7970 -2.6068
17314TIP3    H273434   4.282   0.408  13.286 -0.9099 -0.5056 -0.0260
17315TIP3   OH273435   2.284   4.435  15.772  0.1025  0.4837 -0.4654
17315TIP3    H173436   2.334   4.515  15.792 -0.2774  1.2422 -2.3900
17315TIP3    H273437   2.195   4.467  15.754 -0.3890 -0.5357  0.1651
17316TIP3   OH273438   3.520   2.080   3.141  0.0356 -0.3639 -0.9259
17316TIP3    H173439   3.572   2.127   3.076 -0.3630 -0.6024 -1.4232
17316TIP3    H273440   3.510   2.143   3.213  0.0042  0.1059 -1.3349
17317TIP3   OH273441   6.542   5.268   0.577  0.3560  0.2730  0.5112
17317TIP3    H173442   6.530   5.360   0.556  1.9410  0.6628  1.2958
17317TIP3    H273443   6.507   5.259   0.666  0.7058  0.2292  0.6436
17318TIP3   OH273444   0.024   3.498   4.676 -0.0399 -0.2893 -0.1005
17318TIP3    H173445   0.105   3.469   4.634 -0.9327 -0.7958 -1.5151
17318TIP3    H273446   0.016   3.443   4.754  1.0517 -0.1344  0.1251
17319TIP3   OH273447   3.898   2.541  14.953 -0.0708 -0.2105 -0.0548
17319TIP3    H173448   3.937   2.487  15.021  0.1447 -0.8942 -0.7155
17319TIP3    H273449   3.963   2.609  14.936  0.2834 -0.5987 -0.2534
17320TIP3   OH273450   6.781   1.203   0.285  0.0727  0.1141  0.2605
17320TIP3    H173451   6.784   1.236   0.195 -1.1580  1.7071  0.7653
17320TIP3    H273452   6.854   1.142   0.292 -1.0697 -1.6406 -2.4335
17321TIP3   OH273453   4.913   0.347   3.936 -0.2296 -0.7679  0.2677
17321TIP3    H173454   4.829   0.378   3.901  0.7466  0.5165 -0.9875
17321TIP3    H273455   4.917   0.383   4.025 -0.6214 -0.1186  0.0224
17322TIP3   OH273456   0.443   5.610   1.253  0.4067 -0.1373  0.3822
17322TIP3    H173457   0.415   5.695   1.218 -0.1498 -0.2424  0.5619
17322TIP3    H273458   0.363   5.558   1.256  0.4991 -0.2337  1.5103
17323TIP3   OH273459   4.670   1.898  11.431 -0.3852 -0.3925 -0.5628
17323TIP3    H173460   4.631   1.983  11.454 -1.0163 -1.0940  1.0413
17323TIP3    H273461   4.695   1.908  11.339 -1.1687  1.2666 -0.6295
17324TIP3   OH273462   4.654   4.916   0.736  0.5756  0.0662  0.5190
17324TIP3    H173463   4.566   4.879   0.742  0.6140  0.1914  2.0596
17324TIP3    H273464   4.674   4.914   0.643  0.2095 -2.9213  0.4440
17325TIP3   OH273465   2.553   5.245  11.797 -0.2023 -0.0393 -0.1441
17325TIP3    H173466   2.486   5.302  11.834  0.9118  1.2265 -0.0309
17325TIP3    H273467   2.538   5.248  11.702 -0.2796  0.2907 -0.1220
17326TIP3   OH273468   6.313   4.240   2.637 -0.6382 -0.3465  0.3757
17326TIP3    H173469   6.368   4.318   2.637  0.1881 -0.9231  0.3841
17326TIP3    H273470   6.263   4.246   2.719 -2.1346  1.2468 -0.6398
17327TIP3   OH273471   2.941   5.676  16.399  0.7540 -0.6440  0.5404
17327TIP3    H173472   2.882   5.607  16.430 -0.4651  0.1378  0.0007
17327TIP3    H273473   2.998   5.631  16.336 -1.9410 -0.6122 -2.0428
17328TIP3   OH273474   5.236   0.770   2.452 -0.7173  0.2125  0.1038
17328TIP3    H173475   5.247   0.799   2.543  0.3331  0.0017  0.0526
17328TIP3    H273476   5.284   0.687   2.448 -0.5124  0.3699 -0.7154
17329TIP3   OH273477   0.880   2.957   1.486  0.4766 -0.0985 -0.0331
17329TIP3    H173478   0.850   3.044   1.510 -3.2856 -0.9382 -1.2302
17329TIP3    H273479   0.863   2.903   1.563  1.2526 -0.1192  0.1303
17330TIP3   OH273480   5.476   5.973   1.642  0.1216 -0.0269  0.0385
17330TIP3    H173481   5.420   5.946   1.569  0.8170 -2.0990  0.2535
17330TIP3    H273482   5.439   5.929   1.718  0.4953  0.6874  0.6389
17331TIP3   OH273483   3.116   3.344  14.019  0.1021 -0.3848  0.2010
17331TIP3    H173484   3.078   3.417  13.970 -0.3864 -0.4474  0.4827
17331TIP3    H273485   3.040   3.293  14.048  0.4529 -1.2888 -0.4243
17332TIP3   OH273486   3.663   0.445   2.193  0.0400 -0.3816  0.2988
17332TIP3    H173487   3.654   0.419   2.285  0.2557  0.1951  0.4857
17332TIP3    H273488   3.586   0.407   2.150 -1.2135  1.1608  1.1355
17333TIP3   OH273489   6.618   5.783   4.647 -0.3208  0.0342  0.4466
17333TIP3    H173490   6.533   5.815   4.677  0.0585  0.3354  1.2271
17333TIP3    H273491   6.615   5.793   4.551 -0.9450  0.5883  0.5174
17334TIP3   OH273492   1.828   4.428   6.045 -0.0464  0.0222  0.2548
17334TIP3    H173493   1.848   4.517   6.015  0.0051 -0.2560 -0.5682
17334TIP3    H273494   1.874   4.372   5.983 -0.1987 -0.5809  0.6876
17335TIP3   OH273495   5.280   1.041   0.035  0.4455 -0.1145 -0.1359
17335TIP3    H173496   5.255   0.948   0.040 -0.2359 -0.0094 -1.3034
17335TIP3    H273497   5.283   1.059  -0.059  0.4505  1.0820  0.0961
17336TIP3   OH273498   3.715   6.528  13.461 -0.0179  0.0110 -0.0512
17336TIP3    H173499   3.658   6.479  13.403 -0.5220  1.6992 -1.0284
17336TIP3    H273500   3.790   6.551  13.407  0.8532 -0.8251  0.7768
17337TIP3   OH273501   4.244   4.396   5.303 -0.3845 -0.1420 -0.4428
17337TIP3    H173502   4.224   4.312   5.345  1.0446 -1.2117 -1.7933
17337TIP3    H273503   4.335   4.386   5.272 -0.4457  1.6343 -1.2724
17338TIP3   OH273504   1.738   5.949   3.134  0.7422  0.0427 -0.3335
17338TIP3    H173505   1.667   5.886   3.147  1.6711 -0.6032  1.8196
17338TIP3    H273506   1.809   5.897   3.096  1.8320 -0.4388  2.3064
17339TIP3   OH273507   5.327   3.926   4.748 -0.4309  0.0239  0.7043
17339TIP3    H173508   5.233   3.934   4.732 -0.1963 -0.0491 -0.7489
17339TIP3    H273509   5.352   4.011   4.785 -0.5460  1.0825 -1.5832
17340TIP3   OH273510   5.885   6.343   0.708  0.3847  0.1549 -0.2275
17340TIP3    H173511   5.883   6.259   0.662 -1.6214  0.3084 -0.4736
17340TIP3    H273512   5.972   6.378   0.692  1.1663 -1.7768 -0.3235
17341TIP3   OH273513   3.398   5.505  14.410  0.2220 -0.3019 -0.1582
17341TIP3    H173514   3.306   5.516  14.433  0.0255 -1.3297 -0.4239
17341TIP3    H273515   3.436   5.456  14.483 -0.0697 -2.2778 -1.3264
17342TIP3   OH273516   0.030   3.340   0.822  0.4502  0.5336 -0.0459
17342TIP3    H173517  -0.015   3.259   0.802 -0.3198  1.2743 -1.3844
17342TIP3    H273518   0.123   3.318   0.820  0.1978 -0.8908  2.2505
17343TIP3   OH273519   6.487   2.493  16.113  0.1126 -0.1469 -0.5568
17343TIP3    H173520   6.567   2.520  16.068 -0.4718  0.5544 -1.1835
17343TIP3    H273521   6.461   2.413  16.068  1.1400 -1.0922  0.4706
17344TIP3   OH273522   1.484   0.822  11.990  0.6019  0.9224  0.2329
17344TIP3    H173523   1.483   0.726  11.982 -1.2491  0.8134  1.4134
17344TIP3    H273524   1.567   0.842  12.032  0.3194 -0.3190  1.4155
17345TIP3   OH273525   2.410   0.685   0.834 -0.3035  0.1106  0.4275
17345TIP3    H173526   2.351   0.738   0.888  0.0122 -0.1528  1.0373
17345TIP3    H273527   2.495   0.694   0.876 -0.1933 -0.6601  0.3664
17346TIP3   OH273528   1.743   4.663  12.903  0.0373  0.1698 -0.4000
17346TIP3    H173529   1.722   4.585  12.955  0.3779  0.3270 -0.0206
17346TIP3    H273530   1.732   4.635  12.812 -2.1153  0.3450 -0.2155
17347TIP3   OH273531   3.776   0.765   3.237  0.8281 -0.1575 -0.2325
17347TIP3    H173532   3.691   0.767   3.282  0.1263  1.6288 -1.5569
17347TIP3    H273533   3.837   0.806   3.299  0.6528 -1.1127  0.5795
17348TIP3   OH273534   3.434   2.760   0.387  0.1125 -0.3154  0.1924
17348TIP3    H173535   3.386   2.780   0.306 -0.0945 -1.1998  0.1003
17348TIP3    H273536   3.507   2.822   0.386  1.7842 -2.2198 -2.1486
17349TIP3   OH273537   1.662   4.095   1.177 -0.4188 -0.5233 -0.1767
17349TIP3    H173538   1.705   4.060   1.255 -0.2272 -1.5883 -0.7560
17349TIP3    H273539   1.714   4.172   1.153  0.4287 -1.0869 -0.1485
17350TIP3   OH273540   5.854   4.234   1.994 -0.9108 -0.1347 -0.3477
17350TIP3    H173541   5.858   4.254   2.087  0.4100  0.0679 -0.4344
17350TIP3    H273542   5.767   4.263   1.967 -1.1159  0.2722  0.7176
17351TIP3   OH273543   0.734   0.380   0.790  0.0953  0.3387  0.8168
17351TIP3    H173544   0.751   0.401   0.881 -0.7032  0.5797  0.9184
17351TIP3    H273545   0.660   0.436   0.766  0.0025 -0.0544  0.1618
17352TIP3   OH273546   3.039   4.856  13.615 -0.0120  0.5728  0.6087
17352TIP3    H173547   2.970   4.839  13.679 -1.0302  0.0469 -0.5939
17352TIP3    H273548   3.016   4.801  13.540  2.4499 -0.6008  0.6624
17353TIP3   OH273549   6.653   6.042  15.964 -0.7389  0.0832  0.1104
17353TIP3    H173550   6.564   6.042  15.929 -0.4084 -4.1228 -0.9704
17353TIP3    H273551   6.703   5.988  15.903  1.7770 -0.5815  2.6277
17354TIP3   OH273552   4.199   3.865  15.927 -0.6784  0.3595 -0.1179
17354TIP3    H173553   4.128   3.852  15.865  0.0898  1.0851 -1.1802
17354TIP3    H273554   4.240   3.779  15.936 -1.8791 -0.1391  0.7637
17355TIP3   OH273555   0.429   0.256  13.649 -0.1383 -0.1792 -0.1705
17355TIP3    H173556   0.487   0.251  13.725  0.3304  0.3173 -0.4867
17355TIP3    H273557   0.375   0.334  13.665 -0.0696 -0.1000 -0.3248
17356TIP3   OH273558   1.520   4.842   3.920  0.0017 -0.0616  0.5308
17356TIP3    H173559   1.522   4.850   3.824 -0.1490  1.6776  0.6636
17356TIP3    H273560   1.429   4.823   3.941  0.0664 -0.6155  0.3284
17357TIP3   OH273561   1.327   3.515   0.233 -0.3835  0.0859  0.4001
17357TIP3    H173562   1.253   3.465   0.201 -0.3353 -1.1798  2.1919
17357TIP3    H273563   1.318   3.514   0.328  0.0211  2.8865  0.5041
17358TIP3   OH273564   4.307   3.629   4.267 -0.3721  0.1803 -0.1347
17358TIP3    H173565   4.333   3.556   4.322 -1.0175  0.1316  0.1077
17358TIP3    H273566   4.212   3.635   4.277 -0.4696  0.3221 -1.0527
17359TIP3   OH273567   4.491   0.713   3.401 -0.0479 -0.0624  0.7081
17359TIP3    H173568   4.501   0.701   3.496  0.6854 -0.7360  0.5546
17359TIP3    H273569   4.399   0.692   3.384 -0.6822  1.8678  1.5240
17360TIP3   OH273570   5.769   1.222   4.392 -0.1081 -0.4280 -0.6362
17360TIP3    H173571   5.848   1.269   4.363 -0.9831  1.4625 -0.0488
17360TIP3    H273572   5.721   1.204   4.312  0.7368 -1.2806 -0.9652
17361TIP3   OH273573   5.005   1.880   4.656 -0.5511  0.0410  0.3884
17361TIP3    H173574   5.099   1.863   4.661 -0.5233  0.3352  1.0269
17361TIP3    H273575   4.966   1.795   4.634 -0.1161 -0.0217 -0.1512
17362TIP3   OH273576   0.431   5.417   2.037  0.0089  0.4327  0.1347
17362TIP3    H173577   0.356   5.476   2.047 -0.1213  0.6537 -1.9227
17362TIP3    H273578   0.392   5.333   2.012  0.2816 -0.1824  1.7439
17363TIP3   OH273579   4.520   1.760  16.512 -0.0562 -0.0518  0.0861
17363TIP3    H173580   4.549   1.752  16.603  0.1811 -0.6716 -0.0384
17363TIP3    H273581   4.446   1.820  16.516 -0.0197 -0.0403  0.6839
17364TIP3   OH273582   6.418   5.786   2.740  0.2033 -0.2391  0.3385
17364TIP3    H173583   6.455   5.752   2.821  0.3646 -0.7315  0.0637
17364TIP3    H273584   6.410   5.880   2.754  3.5393  0.2232 -0.3480
17365TIP3   OH273585   2.131   6.594  13.372 -0.7175 -0.1525 -0.5914
17365TIP3    H173586   2.063   6.661  13.379 -1.4928 -0.8618 -1.2646
17365TIP3    H273587   2.147   6.587  13.278  0.1103 -0.1682 -0.4505
17366TIP3   OH273588   1.341   3.987  16.725 -0.1023  0.5848 -0.1741
17366TIP3    H173589   1.314   4.025  16.809  0.3575  0.2806  0.1117
17366TIP3    H273590   1.436   3.983  16.730  0.0965  2.8330 -1.6922
17367TIP3   OH273591   0.983   0.982  11.448  0.3892  0.0181 -0.5092
17367TIP3    H173592   0.949   1.018  11.530  1.9663 -0.2007  0.2650
17367TIP3    H273593   0.905   0.966  11.395 -0.5944  1.0664  0.5668
17368TIP3   OH273594   5.944   4.498   2.720 -0.0923  0.0396 -0.1724
17368TIP3    H173595   5.975   4.558   2.789  0.7439 -0.7607  0.1581
17368TIP3    H273596   6.018   4.493   2.659 -0.3878 -0.1923 -0.5083
17369TIP3   OH273597   5.006   3.560  13.654  0.4504 -0.0983  0.0244
17369TIP3    H173598   4.969   3.567  13.742  0.8989  0.4019  0.1779
17369TIP3    H273599   5.097   3.588  13.664 -0.1920  2.5629 -1.0824
17370TIP3   OH273600   2.409   0.820  15.572  0.4349  0.3001 -0.0107
17370TIP3    H173601   2.384   0.730  15.592  0.1324  0.1285 -1.1160
17370TIP3    H273602   2.364   0.873  15.638 -0.4669 -0.2558 -0.1698
17371TIP3   OH273603   4.130   6.177  15.594 -0.4869 -0.1886  0.2789
17371TIP3    H173604   4.085   6.228  15.527 -0.3420 -0.4742 -0.0385
17371TIP3    H273605   4.086   6.199  15.675 -0.3269  0.5595  0.1635
17372TIP3   OH273606   6.728   6.191   5.848 -0.1456  0.1341  0.6479
17372TIP3    H173607   6.696   6.261   5.790 -0.2745  0.2093  0.8080
17372TIP3    H273608   6.807   6.159   5.805 -0.0424  0.4304  0.6112
17373TIP3   OH273609   1.431   0.529  13.632  0.2771  0.0167 -0.1899
17373TIP3    H173610   1.393   0.461  13.687  2.3932 -1.1032 -0.0857
17373TIP3    H273611   1.474   0.481  13.561  1.0193  1.2924 -0.6124
17374TIP3   OH273612   2.059   0.274  16.779  0.0027 -0.3112  0.2286
17374TIP3    H173613   2.050   0.287  16.685 -0.2913 -0.2517  0.2620
17374TIP3    H273614   2.079   0.181  16.789 -0.9731 -0.5310  0.1702
17375TIP3   OH273615   5.789   3.820  14.522 -0.3793  0.3201  0.2912
17375TIP3    H173616   5.843   3.891  14.488  0.1851  0.1549  0.8140
17375TIP3    H273617   5.708   3.824  14.472  1.3347 -1.4555 -2.8121
17376TIP3   OH273618   6.401   2.666  11.699 -0.2813 -0.5219  0.4611
17376TIP3    H173619   6.496   2.677  11.690 -0.4885  0.3830 -0.8466
17376TIP3    H273620   6.381   2.589  11.646 -0.5574  0.6325 -1.1661
17377TIP3   OH273621   5.412   0.508  14.339  0.0806  0.7137  0.3702
17377TIP3    H173622   5.483   0.485  14.279  1.4752  1.7234  1.5950
17377TIP3    H273623   5.454   0.512  14.425 -1.1356  2.7561  0.9032
17378TIP3   OH273624   2.837   1.040  12.547 -0.5589  0.1512  0.5765
17378TIP3    H173625   2.841   1.058  12.453 -2.0587  1.6049  0.7517
17378TIP3    H273626   2.749   1.003  12.560  0.5607 -2.4161  1.0458
17379TIP3   OH273627   1.903   3.283   2.987  0.9336  0.0388  0.0738
17379TIP3    H173628   1.960   3.262   2.914 -0.4682 -0.2807 -0.9630
17379TIP3    H273629   1.816   3.290   2.948  0.2215  0.2672  1.6470
17380TIP3   OH273630   4.306   3.702   2.568  0.4528  0.2750 -0.2114
17380TIP3    H173631   4.242   3.641   2.532  1.0662  1.0154 -2.6920
17380TIP3    H273632   4.254   3.771   2.609 -0.2767 -0.6644  0.4526
17381TIP3   OH273633   5.356   0.276   4.410 -0.4714  0.2003  0.5783
17381TIP3    H173634   5.434   0.322   4.442  0.3373 -1.7334  1.4523
17381TIP3    H273635   5.312   0.247   4.490 -0.0613 -2.0201  0.0042
17382TIP3   OH273636   3.431   3.632  16.123  0.5418 -0.0642  0.5237
17382TIP3    H173637   3.427   3.537  16.115  0.2089  0.1283 -1.7123
17382TIP3    H273638   3.525   3.652  16.123  0.6151 -0.3925  1.0947
17383TIP3   OH273639   1.154   0.516  16.152  0.1752 -0.2705 -0.2726
17383TIP3    H173640   1.157   0.439  16.208  1.9215  1.5122  2.2496
17383TIP3    H273641   1.233   0.509  16.098 -0.6458 -1.1634 -1.3734
17384TIP3   OH273642   4.151   0.395   5.663  0.0749  0.4444 -0.1960
17384TIP3    H173643   4.216   0.328   5.640  0.5179  1.0761 -0.8304
17384TIP3    H273644   4.067   0.351   5.653  0.4535 -1.1507  3.1105
17385TIP3   OH273645   0.004   1.738  15.252 -0.2687 -0.0398  0.5738
17385TIP3    H173646  -0.047   1.676  15.202 -0.5405 -0.4055  1.3043
17385TIP3    H273647   0.076   1.686  15.289 -0.1576  0.1968  0.6940
17386TIP3   OH273648   6.040   6.347   3.792 -0.4833 -0.5252  0.0806
17386TIP3    H173649   6.000   6.382   3.712  2.3876  1.5848 -0.5220
17386TIP3    H273650   5.984   6.380   3.862 -0.7892  0.9654 -0.8258
17387TIP3   OH273651   0.511   3.359  16.203  0.0213 -0.2236 -0.4967
17387TIP3    H173652   0.420   3.376  16.180  0.5943  1.2726 -1.7662
17387TIP3    H273653   0.558   3.438  16.175  2.2512 -2.3810 -3.1126
17388TIP3   OH273654   2.350   1.860   2.728 -0.0447 -0.5436  0.1858
17388TIP3    H173655   2.418   1.855   2.795  0.6773 -0.3030 -0.5284
17388TIP3    H273656   2.315   1.949   2.736  0.7322 -0.1789 -0.4269
17389TIP3   OH273657   4.633   1.214   5.470  0.5976 -0.2460  0.0164
17389TIP3    H173658   4.678   1.154   5.531  0.7488  0.9111  1.0639
17389TIP3    H273659   4.701   1.244   5.411  0.3907 -1.6156 -0.9298
17390TIP3   OH273660   0.419   4.936  17.234  0.2711  0.1116  0.0392
17390TIP3    H173661   0.477   4.967  17.303 -0.4827  0.4974  0.5080
17390TIP3    H273662   0.373   4.862  17.273 -0.5134  0.6373  0.1226
17391TIP3   OH273663   4.590   1.920  13.974 -0.8488 -0.7905  0.0889
17391TIP3    H173664   4.520   1.881  14.027  0.9830 -2.2434  1.5005
17391TIP3    H273665   4.668   1.915  14.029  0.8105 -0.9730 -2.1973
17392TIP3   OH273666   6.546   4.437   4.815 -0.1975 -0.0788  0.1889
17392TIP3    H173667   6.547   4.521   4.861 -0.3669  0.7222 -1.2565
17392TIP3    H273668   6.454   4.411   4.814 -0.7042  1.5604 -2.6104
17393TIP3   OH273669   5.483   4.581   1.894  0.0694 -0.0460  0.2658
17393TIP3    H173670   5.508   4.656   1.947 -0.9799 -0.2914  1.1223
17393TIP3    H273671   5.387   4.578   1.900 -0.3115  1.3864 -3.6094
17394TIP3   OH273672   4.625   1.237   4.809 -0.3415 -0.3844 -0.7024
17394TIP3    H173673   4.667   1.266   4.728  0.3241  0.1872 -0.1638
17394TIP3    H273674   4.683   1.170   4.844  0.6064  0.9906  0.4721
17395TIP3   OH273675   4.138   5.398   3.491  0.6320  0.1349 -0.2017
17395TIP3    H173676   4.205   5.461   3.517  0.7146 -0.0623  0.0657
17395TIP3    H273677   4.155   5.322   3.546 -0.4706  0.4762  0.6350
17396TIP3   OH273678   1.915   5.015  17.132  0.1314  0.4954  0.6330
17396TIP3    H173679   1.858   5.032  17.057 -0.3849  2.6605  1.4790
17396TIP3    H273680   1.979   4.951  17.100  1.2470  2.9849 -2.3395
17397TIP3   OH273681   3.796   3.542  14.041 -0.4077 -0.6505 -0.0262
17397TIP3    H173682   3.734   3.549  14.113 -1.9336 -0.7564 -1.3119
17397TIP3    H273683   3.742   3.534  13.962  1.2257 -1.1784 -1.1322
17398TIP3   OH273684   5.876   2.075  15.762 -0.1309  0.0899 -0.2098
17398TIP3    H173685   5.793   2.043  15.726  0.0109 -0.3902 -0.1196
17398TIP3    H273686   5.929   2.095  15.685  0.1054 -0.7551 -0.2647
17399TIP3   OH273687   1.708   6.353   4.131 -0.0704  0.1719 -0.5433
17399TIP3    H173688   1.721   6.442   4.098  1.0017  0.2670  0.0816
17399TIP3    H273689   1.767   6.300   4.078  1.1389  0.2226  0.7240
17400TIP3   OH273690   1.253   2.328   5.407  0.0365 -0.6590 -0.3692
17400TIP3    H173691   1.303   2.304   5.329 -0.1648  1.1441 -1.0841
17400TIP3    H273692   1.188   2.259   5.416  0.5004 -1.2420 -1.4195
17401TIP3   OH273693   3.891   4.116  12.576 -0.1904  0.0536 -0.1374
17401TIP3    H173694   3.952   4.168  12.524 -0.0644 -0.2813 -0.3260
17401TIP3    H273695   3.817   4.101  12.517 -0.0433 -0.3347 -0.2215
17402TIP3   OH273696   4.307   2.190   0.573  0.0139 -0.1942  0.0867
17402TIP3    H173697   4.228   2.136   0.568  1.1085 -2.3386  3.7601
17402TIP3    H273698   4.278   2.272   0.613 -0.6256 -0.3845  0.0088
17403TIP3   OH273699   3.070   0.958   1.531 -0.0322 -0.2785  0.1957
17403TIP3    H173700   3.120   0.969   1.612  1.0916 -1.9458 -0.2505
17403TIP3    H273701   3.137   0.953   1.463 -0.8729 -1.4112 -0.5540
17404TIP3   OH273702   3.887   0.294   0.056 -0.7198  0.5241  0.0318
17404TIP3    H173703   3.859   0.376   0.095  3.6498  1.2851  1.8853
17404TIP3    H273704   3.860   0.227   0.118 -0.4372  1.0224  0.7056
17405TIP3   OH273705   4.633   6.750  13.267  0.0122 -0.3789 -0.5686
17405TIP3    H173706   4.645   6.655  13.259 -0.9530 -0.8309  2.5802
17405TIP3    H273707   4.565   6.770  13.203  1.1582 -1.5694 -2.2042
17406TIP3   OH273708   1.905   0.637   2.523  0.5257 -0.1745  0.1443
17406TIP3    H173709   1.950   0.600   2.448  1.8260  1.5097  0.0528
17406TIP3    H273710   1.917   0.573   2.593 -0.4272 -1.6003 -0.9804
17407TIP3   OH273711   5.483   4.943  14.868  0.7984  0.4781 -0.1792
17407TIP3    H173712   5.454   5.004  14.801  2.5304  2.1626  0.5590
17407TIP3    H273713   5.464   4.987  14.951  1.0628 -0.4434  0.3871
17408TIP3   OH273714   1.323   2.697   1.256 -0.3770 -0.5598 -0.5553
17408TIP3    H173715   1.319   2.792   1.246  0.0604 -0.4329  0.4492
17408TIP3    H273716   1.347   2.665   1.168 -1.1172  0.2047 -1.0374
17409TIP3   OH273717   6.818   1.460   2.102 -0.1160  0.3186  0.1158
17409TIP3    H173718   6.730   1.425   2.090 -0.7477  1.1426  2.0389
17409TIP3    H273719   6.806   1.555   2.099  1.2092  0.4349 -2.7466
17410TIP3   OH273720   5.704   0.253  13.388 -0.0580  0.4471  0.0728
17410TIP3    H173721   5.754   0.324  13.350  1.4912 -0.9413 -0.5489
17410TIP3    H273722   5.667   0.206  13.314 -1.1452  0.6388  0.4787
17411TIP3   OH273723   3.107   5.521   1.632  0.9719 -0.6311 -0.3465
17411TIP3    H173724   3.019   5.483   1.639  0.2059  0.3188 -4.0418
17411TIP3    H273725   3.119   5.567   1.715 -1.4819 -1.8540  0.7415
17412TIP3   OH273726   5.704   6.038   0.938 -0.5192  0.6615 -0.4072
17412TIP3    H173727   5.633   6.003   0.990  0.0806  2.4375  1.7047
17412TIP3    H273728   5.664   6.060   0.854 -1.7033 -1.3814 -0.4062
17413TIP3   OH273729   2.321   3.862   3.675 -0.1845  0.2204 -0.1967
17413TIP3    H173730   2.299   3.857   3.582  0.3556 -4.5085 -0.2133
17413TIP3    H273731   2.412   3.831   3.680 -0.3393  0.0331  1.9437
17414TIP3   OH273732   4.363   3.343  15.615  0.1931  0.5819 -0.2207
17414TIP3    H173733   4.356   3.428  15.657  0.2315 -0.6758  2.4465
17414TIP3    H273734   4.457   3.322  15.619  0.2668  0.6272 -1.3720
17415TIP3   OH273735   4.875   6.173  13.945  0.2156  0.1049 -0.8662
17415TIP3    H173736   4.807   6.107  13.930 -1.1910  0.9663  1.4777
17415TIP3    H273737   4.957   6.126  13.932 -0.6187 -3.3722  5.0044
17416TIP3   OH273738   5.905   3.341   2.771  0.2899 -0.2039 -0.5898
17416TIP3    H173739   5.913   3.249   2.797  0.9080 -0.0703 -0.2824
17416TIP3    H273740   5.829   3.344   2.714 -0.7455 -0.6273  0.7340
17417TIP3   OH273741   1.323   1.048  12.769  0.1989 -0.3543  0.5490
17417TIP3    H173742   1.370   1.110  12.714  0.0635 -2.7016 -2.2905
17417TIP3    H273743   1.390   1.011  12.826  0.4856  1.4531  1.4450
17418TIP3   OH273744   0.849   3.085   3.065 -0.3091  0.5199  0.2220
17418TIP3    H173745   0.809   3.022   3.124  0.9929 -0.5560 -0.0010
17418TIP3    H273746   0.784   3.155   3.056 -1.4757 -0.4317  1.0576
17419TIP3   OH273747   1.023   0.309   5.315 -0.3094  0.0379 -0.5554
17419TIP3    H173748   1.105   0.340   5.277  1.3220 -1.5859  1.4950
17419TIP3    H273749   0.959   0.316   5.244  2.0532 -0.5788 -2.8135
17420TIP3   OH273750   5.288   3.372  13.010  0.2479 -0.3895  0.0389
17420TIP3    H173751   5.377   3.378  13.046  0.7086 -0.2589 -1.0995
17420TIP3    H273752   5.235   3.424  13.070  1.4070  1.7153 -0.6872
17421TIP3   OH273753   1.128   2.089   6.026 -0.4190  0.4451  0.1230
17421TIP3    H173754   1.085   2.105   6.110  0.8434  1.0398  0.6688
17421TIP3    H273755   1.160   1.998   6.033 -2.0596 -0.1930 -0.5060
17422TIP3   OH273756   5.566   3.909   3.408  0.0209  0.1224  0.0249
17422TIP3    H173757   5.548   4.003   3.405 -0.0182  0.1375  0.7626
17422TIP3    H273758   5.519   3.877   3.485  0.8061 -0.3298  0.3253
17423TIP3   OH273759   0.890   3.873  11.767 -0.6254 -0.3800 -0.9860
17423TIP3    H173760   0.854   3.909  11.686  0.8784 -0.4499 -1.6932
17423TIP3    H273761   0.910   3.782  11.747  1.1192 -0.0139 -1.0074
17424TIP3   OH273762   4.144   2.489  14.222 -0.6516 -0.2613  0.4079
17424TIP3    H173763   4.109   2.480  14.311 -2.3365  3.2357  0.1794
17424TIP3    H273764   4.066   2.488  14.166  0.3377 -1.5782 -0.9809
17425TIP3   OH273765   0.650   5.942   0.609  0.6355 -0.4709 -0.3804
17425TIP3    H173766   0.646   5.937   0.514 -0.7452 -1.0549 -0.3168
17425TIP3    H273767   0.565   5.980   0.634  0.0807 -2.3414  0.7110
17426TIP3   OH273768   3.638   4.326   3.488  0.2740  0.3331  0.2955
17426TIP3    H173769   3.574   4.363   3.427 -0.5927  1.9088  2.0953
17426TIP3    H273770   3.656   4.238   3.455 -1.9657  0.2906 -0.8716
17427TIP3   OH273771   5.028   4.109   2.566 -0.0112 -0.1119  0.1982
17427TIP3    H173772   4.995   4.024   2.536  1.1290 -0.2950 -0.5746
17427TIP3    H273773   4.972   4.173   2.522 -0.6191 -0.4386  0.4755
17428TIP3   OH273774   4.505   0.821   2.833  0.5527 -0.2282  0.3809
17428TIP3    H173775   4.473   0.736   2.862 -1.7796  0.3629 -0.3761
17428TIP3    H273776   4.499   0.876   2.910  1.1264 -0.4830  0.6116
17429TIP3   OH273777   6.167   0.012  12.368  0.3557  0.0038 -0.3596
17429TIP3    H173778   6.246  -0.023  12.409  1.0443  0.3130 -1.3995
17429TIP3    H273779   6.171   0.106  12.386 -0.4240 -0.1551  0.6597
17430TIP3   OH273780   3.776   4.758  13.123  0.1579  0.1964  0.1664
17430TIP3    H173781   3.688   4.779  13.154  0.8088  4.8819 -0.6443
17430TIP3    H273782   3.825   4.738  13.203 -0.7187  1.5452  1.0702
17431TIP3   OH273783   4.302   2.243   0.239 -0.3979  0.9391  0.0228
17431TIP3    H173784   4.209   2.229   0.218 -0.2239  0.9893 -0.7851
17431TIP3    H273785   4.301   2.278   0.328 -1.0192 -1.3152  0.9596
17432TIP3   OH273786   6.009   2.809   3.725  0.6678  0.2648  0.4802
17432TIP3    H173787   6.040   2.721   3.704 -0.9267 -0.2684  0.2640
17432TIP3    H273788   5.999   2.851   3.640 -1.2683 -0.3098  0.3969
17433TIP3   OH273789   5.123   2.349  13.173  0.4291  0.2373  0.1085
17433TIP3    H173790   5.185   2.311  13.237 -0.0054  0.3487  0.5994
17433TIP3    H273791   5.167   2.428  13.142  1.2207 -0.5188 -0.7172
17434TIP3   OH273792   0.550   0.502  13.899  0.5615  0.1506  0.8578
17434TIP3    H173793   0.634   0.475  13.937  1.0983  0.7781  0.1271
17434TIP3    H273794   0.574   0.554  13.822 -0.5139 -0.9064 -0.2162
17435TIP3   OH273795   2.161   0.461   1.285  0.2525  0.4082  0.1338
17435TIP3    H173796   2.093   0.416   1.334 -1.3070  3.3967  0.8387
17435TIP3    H273797   2.118   0.492   1.205  0.9226  1.8073  0.2968
17436TIP3   OH273798   4.255   3.457  14.997  0.2788 -0.1346 -0.7564
17436TIP3    H173799   4.272   3.364  14.984  1.4305  0.2208 -1.9387
17436TIP3    H273800   4.245   3.492  14.908 -1.8056  0.5757 -0.2579
17437TIP3   OH273801   1.572   3.866  12.569  0.1923 -0.1198  0.4586
17437TIP3    H173802   1.485   3.827  12.573  0.1608 -0.0863  0.0832
17437TIP3    H273803   1.573   3.916  12.488  0.6874 -0.4320  0.2680
17438TIP3   OH273804   3.911   1.761   3.605 -0.3283  0.1720 -0.1324
17438TIP3    H173805   3.955   1.838   3.640 -0.5025 -0.1084  0.7206
17438TIP3    H273806   3.846   1.796   3.544 -1.1455  0.7623  1.0636
17439TIP3   OH273807   3.636   4.942   1.308 -0.2680  0.2697  0.2467
17439TIP3    H173808   3.608   5.020   1.356  0.0099 -0.2698  1.3090
17439TIP3    H273809   3.694   4.896   1.369  0.9149  0.0809 -0.9827
17440TIP3   OH273810   0.444   0.486   0.986 -0.0969 -0.1170  0.1325
17440TIP3    H173811   0.444   0.581   0.974  0.2296 -0.0575  0.6073
17440TIP3    H273812   0.357   0.458   0.956 -0.5600  0.4462  0.9245
17441TIP3   OH273813   5.935   2.283  11.905  0.3471 -0.1424 -0.1076
17441TIP3    H173814   5.899   2.198  11.929 -0.5642  0.6432  1.3913
17441TIP3    H273815   5.897   2.302  11.819 -0.9994 -0.3870  0.4162
17442TIP3   OH273816   5.416   0.938  16.500  0.4518 -0.0963 -0.2011
17442TIP3    H173817   5.356   0.864  16.506 -0.1134  0.3628 -0.1434
17442TIP3    H273818   5.466   0.922  16.420 -0.2125 -0.1376 -0.6138
17443TIP3   OH273819   3.508   3.134   1.198 -0.6720 -0.0333 -0.0001
17443TIP3    H173820   3.470   3.046   1.187 -0.4507 -0.1270 -0.0111
17443TIP3    H273821   3.600   3.118   1.219 -0.2044  0.2291 -1.7680
17444TIP3   OH273822   3.667   3.958   1.748 -0.1425 -0.2304  0.0455
17444TIP3    H173823   3.594   3.938   1.689 -0.1550 -0.7335  0.2316
17444TIP3    H273824   3.732   4.001   1.693 -0.7214  0.5370 -0.0558
17445TIP3   OH273825   6.197   6.293  15.001 -0.1775  0.4954 -0.1034
17445TIP3    H173826   6.194   6.197  15.008 -0.4250  0.5136  0.0239
17445TIP3    H273827   6.248   6.309  14.921  1.8527  0.2856  1.0938
17446TIP3   OH273828   2.673   1.616  15.880 -0.1751  0.5358  0.3722
17446TIP3    H173829   2.697   1.608  15.788 -1.2811 -0.7202  0.1696
17446TIP3    H273830   2.580   1.596  15.883  0.3367 -1.8859  2.0653
17447TIP3   OH273831   2.680   3.817   2.178 -0.1115 -0.4011 -0.0850
17447TIP3    H173832   2.713   3.870   2.251 -0.0429  0.0652 -0.4516
17447TIP3    H273833   2.758   3.786   2.133 -0.1690  0.8721 -1.0721
17448TIP3   OH273834   2.877   0.644  15.053  0.3424  0.4982  0.0318
17448TIP3    H173835   2.809   0.703  15.087 -0.1312  1.0339 -1.7930
17448TIP3    H273836   2.943   0.641  15.123 -1.9747 -0.7867  2.2592
17449TIP3   OH273837   0.186   2.149   0.133  0.3613  0.2210  0.2929
17449TIP3    H173838   0.147   2.206   0.199 -1.5213  0.9120 -1.3416
17449TIP3    H273839   0.112   2.096   0.101  1.1108  0.2718 -1.5985
17450TIP3   OH273840   5.474   2.451   4.990  0.0513 -0.0737 -0.3158
17450TIP3    H173841   5.557   2.427   4.949 -0.0598 -2.2409  0.6802
17450TIP3    H273842   5.499   2.485   5.076 -0.0458  0.1780 -0.3854
17451TIP3   OH273843   1.316   3.103   0.676 -0.4707  0.5446 -0.1253
17451TIP3    H173844   1.317   3.019   0.720 -0.1686 -0.8207 -2.6188
17451TIP3    H273845   1.239   3.099   0.618 -0.3725  1.9202 -0.3770
17452TIP3   OH273846   4.936   0.113   4.977  0.4320  0.7119  0.4305
17452TIP3    H173847   4.858   0.069   5.011  1.4626  0.3298  2.3699
17452TIP3    H273848   4.999   0.043   4.963  0.6640  1.0951 -0.4846
17453TIP3   OH273849   1.027   4.818  13.183  0.2484  0.0801 -0.6787
17453TIP3    H173850   0.971   4.763  13.238  0.0887  1.2343  0.3445
17453TIP3    H273851   0.972   4.842  13.109  0.3400 -1.1737 -1.1650
17454TIP3   OH273852   4.207   5.358  13.420  0.5104  0.6333  0.0575
17454TIP3    H173853   4.258   5.386  13.344  1.9825  0.6805  1.0463
17454TIP3    H273854   4.270   5.359  13.492 -1.0124  1.1124  1.3832
17455TIP3   OH273855   0.595   6.098   2.095 -0.4119  0.2991  0.9133
17455TIP3    H173856   0.640   6.024   2.136 -0.4718 -0.5091 -0.4524
17455TIP3    H273857   0.645   6.175   2.124  0.3143 -0.3646  1.4587
17456TIP3   OH273858   3.129   2.723   5.273 -0.0072  0.0997  0.0621
17456TIP3    H173859   3.126   2.742   5.366  1.0432  0.9131 -0.0625
17456TIP3    H273860   3.047   2.759   5.238 -1.0320 -1.3941  0.8682
17457TIP3   OH273861   0.642   2.704  12.589  0.0412  0.4572 -0.1851
17457TIP3    H173862   0.561   2.675  12.631 -1.5213  2.1196 -1.8984
17457TIP3    H273863   0.704   2.713  12.660 -2.4087  2.8008  1.7759
17458TIP3   OH273864   6.717   3.413   0.586  0.1501  0.0504 -0.0594
17458TIP3    H173865   6.774   3.410   0.662 -0.0214 -0.2921  0.0578
17458TIP3    H273866   6.686   3.503   0.583  1.4566  0.4854 -0.6944
17459TIP3   OH273867   3.360   3.756   3.559 -0.0450 -0.3395 -0.0446
17459TIP3    H173868   3.388   3.845   3.581  0.1050 -0.5269  0.5383
17459TIP3    H273869   3.379   3.705   3.638 -1.4024 -0.6050  0.1307
17460TIP3   OH273870   5.382   3.504  17.034 -0.5476 -0.5484  0.6902
17460TIP3    H173871   5.457   3.452  17.064 -0.5509 -1.1881 -0.4087
17460TIP3    H273872   5.408   3.595  17.049  0.8979 -0.7239 -0.7250
17461TIP3   OH273873   5.469   4.114   3.079  0.1523 -0.5325  0.2183
17461TIP3    H173874   5.494   4.164   3.001  1.4453  0.3526  1.1651
17461TIP3    H273875   5.375   4.129   3.088  0.5332  1.8901  0.5510
17462TIP3   OH273876   6.338   3.221  15.723 -0.5229 -0.0822  0.0294
17462TIP3    H173877   6.297   3.162  15.660  0.6293 -0.6742 -0.1919
17462TIP3    H273878   6.425   3.239  15.686 -0.5564  1.1049  0.4942
17463TIP3   OH273879   0.367   6.769   5.091 -0.4909  0.2289  0.0466
17463TIP3    H173880   0.425   6.834   5.131 -0.1569  0.0213 -0.1012
17463TIP3    H273881   0.396   6.764   5.000  1.2575 -2.0983  0.7002
17464TIP3   OH273882   2.567   1.903   6.009 -0.1758  0.0138  0.4401
17464TIP3    H173883   2.623   1.877   6.082 -0.7926  1.6721  1.5351
17464TIP3    H273884   2.482   1.864   6.029 -0.1228 -0.2384  0.1743
17465TIP3   OH273885   5.753   5.883   2.622 -0.4144  0.3168  0.5966
17465TIP3    H173886   5.753   5.788   2.634 -1.1543  0.0622 -1.2324
17465TIP3    H273887   5.673   5.913   2.665 -1.4467 -0.2017 -0.9264
17466TIP3   OH273888   5.672   4.052  14.678 -0.4013 -0.7279 -0.1767
17466TIP3    H173889   5.674   4.037  14.584 -0.6333 -0.1321 -0.2807
17466TIP3    H273890   5.743   4.115  14.693 -0.8592 -0.2364 -0.0651
17467TIP3   OH273891   0.583   3.159  13.671  0.4093  0.0509 -0.1644
17467TIP3    H173892   0.555   3.075  13.706 -0.3032  0.8841  1.3023
17467TIP3    H273893   0.506   3.194  13.627  0.3612  0.4928  0.2775
17468TIP3   OH273894   0.873   1.372  12.224 -0.3582 -0.0554  0.0471
17468TIP3    H173895   0.875   1.337  12.135  0.4642 -0.8989  0.3903
17468TIP3    H273896   0.965   1.373  12.252 -0.6514 -0.1950  1.0369
17469TIP3   OH273897   2.851   6.240  12.715  0.0890  0.3298 -0.4508
17469TIP3    H173898   2.921   6.279  12.663 -0.4997  1.8916 -0.0977
17469TIP3    H273899   2.792   6.313  12.734 -1.7351 -0.9943 -0.8985
17470TIP3   OH273900   0.581   6.116   4.426 -0.4005 -0.0547 -0.1760
17470TIP3    H173901   0.555   6.136   4.516 -1.5662 -0.5828 -0.3799
17470TIP3    H273902   0.531   6.178   4.373  0.8207  0.7265 -0.4159
17471TIP3   OH273903   5.239   0.622  11.554 -0.3119 -0.1456 -0.2819
17471TIP3    H173904   5.156   0.604  11.509 -0.9282  1.2515  0.2640
17471TIP3    H273905   5.290   0.672  11.490 -0.6560  0.6692  0.0772
17472TIP3   OH273906   2.520   5.814  12.798 -0.3537 -0.2727 -0.9296
17472TIP3    H173907   2.519   5.910  12.806 -2.7291 -0.1591 -2.1212
17472TIP3    H273908   2.582   5.785  12.865 -0.1456  2.0549 -0.0642
17473TIP3   OH273909   3.544   1.692   6.327  0.5947  0.1773 -0.4062
17473TIP3    H173910   3.634   1.715   6.307  0.1963  1.1298 -1.1686
17473TIP3    H273911   3.492   1.762   6.286 -0.5094 -0.6790 -0.4803
17474TIP3   OH273912   6.330   5.098  16.050  0.3250  0.4282  0.0630
17474TIP3    H173913   6.409   5.067  16.094  0.2547 -0.1215 -0.1923
17474TIP3    H273914   6.362   5.130  15.965  0.6102  2.4451  0.8821
17475TIP3   OH273915   4.194   2.337   4.263 -0.1459 -0.0528 -0.1478
17475TIP3    H173916   4.163   2.299   4.346  1.6662  0.5809  0.8409
17475TIP3    H273917   4.121   2.390   4.232 -1.6245 -1.9591 -0.0445
17476TIP3   OH273918   2.889   3.063   1.546 -0.0818 -0.0298  0.2555
17476TIP3    H173919   2.863   3.153   1.565  0.8130 -0.0824  1.8622
17476TIP3    H273920   2.953   3.071   1.475 -1.6246  0.3977 -1.1219
17477TIP3   OH273921   4.596   1.245   0.578 -0.4300 -0.2006  0.6860
17477TIP3    H173922   4.586   1.309   0.507  0.6287  0.2211  0.9117
17477TIP3    H273923   4.551   1.285   0.652  0.6894  0.5537  0.9835
17478TIP3   OH273924   5.302   1.923   0.661  0.1013 -0.3026 -0.4263
17478TIP3    H173925   5.255   1.840   0.662  0.1116 -0.2984  0.7564
17478TIP3    H273926   5.248   1.981   0.607 -0.4039 -0.7851 -0.4367
17479TIP3   OH273927   5.326   6.630  17.114  0.0508  0.5574 -0.0687
17479TIP3    H173928   5.315   6.718  17.079  2.0400  1.1742  0.7489
17479TIP3    H273929   5.411   6.633  17.159  0.5237 -1.9960 -0.7176
17480TIP3   OH273930   0.467   3.696  14.073 -0.6006  0.3166  0.1443
17480TIP3    H173931   0.549   3.664  14.109 -0.8851  0.3558  0.8263
17480TIP3    H273932   0.494   3.756  14.003 -0.0486  0.6533  0.6449
17481TIP3   OH273933   2.774   1.115   2.142  0.7909  0.0905  0.6656
17481TIP3    H173934   2.848   1.158   2.099  1.0441 -0.0608  0.9427
17481TIP3    H273935   2.755   1.172   2.217  0.7614  0.0162  0.7138
17482TIP3   OH273936   4.113   3.807  13.060  0.6936 -0.1052  0.7001
17482TIP3    H173937   4.093   3.764  13.144 -0.1569  0.1636  0.6361
17482TIP3    H273938   4.166   3.883  13.085 -2.1705  1.7919  1.3363
17483TIP3   OH273939   0.664   2.842  13.984  0.3092 -0.2746 -0.0408
17483TIP3    H173940   0.585   2.857  13.932 -0.4627 -0.6487  1.0124
17483TIP3    H273941   0.639   2.776  14.048  2.0177 -1.8210 -0.8903
17484TIP3   OH273942   1.934   3.621   5.644  0.1208  0.3640  0.0539
17484TIP3    H173943   1.939   3.716   5.659 -2.3933  0.3672  1.0877
17484TIP3    H273944   1.979   3.583   5.719  1.8495  0.7331 -0.7703
17485TIP3   OH273945   0.372   5.456  15.310 -0.4176 -0.2757  0.0866
17485TIP3    H173946   0.398   5.535  15.264 -0.5481  1.2989  2.6471
17485TIP3    H273947   0.429   5.452  15.387 -1.5518 -1.7422  0.8927
17486TIP3   OH273948   2.190   0.331   5.313  0.2332 -0.0105 -0.0327
17486TIP3    H173949   2.262   0.306   5.370  3.1599  2.1620 -2.6380
17486TIP3    H273950   2.217   0.302   5.226 -2.7466 -0.4837 -0.8544
17487TIP3   OH273951   0.789   4.884  13.031 -0.0400  0.0650 -0.2220
17487TIP3    H173952   0.719   4.887  13.096  1.1857  1.1879  1.0632
17487TIP3    H273953   0.815   4.976  13.020  0.3390 -0.2069 -1.6779
17488TIP3   OH273954   1.948   4.632  16.717 -0.0864 -0.6848  0.5530
17488TIP3    H173955   1.886   4.685  16.768  0.9979 -1.6696  2.9718
17488TIP3    H273956   2.008   4.696  16.679  1.1287 -0.0813  3.3201
17489TIP3   OH273957   1.972   1.491   5.007  0.3187  0.3109 -0.2690
17489TIP3    H173958   2.060   1.453   5.003  1.0214  1.7471  0.7643
17489TIP3    H273959   1.988   1.585   5.017 -1.3274  0.5252  0.4663
17490TIP3   OH273960   4.871   1.982  12.649  0.4762  0.1234 -0.0888
17490TIP3    H173961   4.817   1.923  12.701  0.7419  0.0366  0.0902
17490TIP3    H273962   4.817   2.061  12.639 -0.5046 -0.7138 -1.6230
17491TIP3   OH273963   4.185   3.028  10.796 -0.6676  0.7309 -0.1181
17491TIP3    H173964   4.127   3.074  10.735 -0.9013 -1.1273 -1.3397
17491TIP3    H273965   4.230   2.963  10.742 -0.7740 -0.8690  1.6803
17492TIP3   OH273966   1.939   3.024  15.709 -0.5045 -0.7190  0.0191
17492TIP3    H173967   1.897   3.083  15.648 -0.3374  0.7682  1.3195
17492TIP3    H273968   1.980   3.081  15.774  1.3625 -2.1948  0.1825
17493TIP3   OH273969   5.615   1.192  11.250 -0.2694 -0.3341 -0.3549
17493TIP3    H173970   5.710   1.200  11.247 -0.2751 -0.5360 -0.9621
17493TIP3    H273971   5.583   1.282  11.256 -0.0041 -0.3117  0.8523
17494TIP3   OH273972   1.468   4.323  15.368  0.1428  0.0268 -0.5481
17494TIP3    H173973   1.513   4.350  15.287 -0.8453 -0.4291 -1.2622
17494TIP3    H273974   1.437   4.234  15.348 -0.8994  0.2635  0.0113
17495TIP3   OH273975   0.711   6.670  15.911  0.4514  0.0569  1.1780
17495TIP3    H173976   0.773   6.736  15.940 -0.1359  1.0110  0.2758
17495TIP3    H273977   0.670   6.638  15.992  1.7021 -0.1898  1.7242
17496TIP3   OH273978   2.585   5.046  13.615 -0.5495  0.0191  0.4731
17496TIP3    H173979   2.623   5.044  13.703  1.9431  0.2077 -0.5768
17496TIP3    H273980   2.497   5.083  13.628 -0.2073  0.0686  2.8687
17497TIP3   OH273981   2.389   4.224  16.039 -0.3235 -0.5697 -0.0624
17497TIP3    H173982   2.358   4.313  16.023  0.0085 -0.4469 -0.0194
17497TIP3    H273983   2.380   4.179  15.955 -1.9251 -0.9274  0.2799
17498TIP3   OH273984   2.116   0.677   3.605 -0.3101 -0.2917  0.0242
17498TIP3    H173985   2.052   0.706   3.540 -0.4025  1.3043  0.8082
17498TIP3    H273986   2.187   0.741   3.600  1.3537 -2.1500 -0.9684
17499TIP3   OH273987   3.943   1.030  17.251 -0.4766 -0.5853 -0.1145
17499TIP3    H173988   3.990   1.112  17.238  0.2337 -0.5614  2.2623
17499TIP3    H273989   3.969   0.975  17.177  1.3487  0.3153 -0.1786
17500TIP3   OH273990   2.371   4.008  15.190 -0.1689 -0.3746 -0.0057
17500TIP3    H173991   2.339   3.982  15.277 -1.1822 -0.8523 -0.5180
17500TIP3    H273992   2.333   3.944  15.130 -0.4215  0.6485 -0.9483
17501TIP3   OH273993   1.743   2.443   2.062  0.3537  0.2382  0.1793
17501TIP3    H173994   1.660   2.416   2.102  1.4795 -0.9912  1.7089
17501TIP3    H273995   1.753   2.385   1.987 -0.7403  1.1735 -0.7094
17502TIP3   OH273996   5.446   1.384   4.961  0.2465 -0.2076  0.2427
17502TIP3    H173997   5.376   1.318   4.958 -0.0421  0.1332 -0.9529
17502TIP3    H273998   5.502   1.361   4.887  1.3518 -0.4058  1.1243
17503TIP3   OH273999   6.574   5.522  16.628  0.1076  0.2440  0.3020
17503TIP3    H174000   6.652   5.474  16.655 -0.9085 -1.3970  0.4043
17503TIP3    H274001   6.564   5.590  16.694 -0.5726 -1.7993  2.3874
17504TIP3   OH274002   3.504   4.592  13.433  0.2244 -0.3079  0.0663
17504TIP3    H174003   3.452   4.662  13.471  1.5033  0.6964  0.0240
17504TIP3    H274004   3.548   4.633  13.358  1.2187 -1.0553  0.2272
17505TIP3   OH274005   3.166   0.398  15.865 -0.2157  0.1093 -0.7010
17505TIP3    H174006   3.119   0.344  15.927  0.8176 -0.6656 -0.5723
17505TIP3    H274007   3.098   0.440  15.812 -1.0926  0.6529  0.8330
17506TIP3   OH274008   1.959   1.544   5.921 -0.7381 -0.5346  0.0081
17506TIP3    H174009   1.895   1.607   5.953 -2.0864 -0.9668 -1.7605
17506TIP3    H274010   2.043   1.575   5.956 -1.7807  0.5279  1.6278
17507TIP3   OH274011   2.994   0.329  16.538 -0.2941  0.2460 -0.0243
17507TIP3    H174012   3.086   0.352  16.551 -0.3510 -1.2085  3.3116
17507TIP3    H274013   2.945   0.400  16.579 -0.6734  0.6804 -1.2091
17508TIP3   OH274014   6.747   4.359   3.089 -1.0423  0.2203 -0.8488
17508TIP3    H174015   6.834   4.321   3.079 -0.6285  0.3227  1.9009
17508TIP3    H274016   6.692   4.310   3.027  0.2924 -2.1580 -0.2202
17509TIP3   OH274017   1.986   3.455  13.488  0.1649  0.3294 -0.0390
17509TIP3    H174018   1.951   3.470  13.400 -0.0533 -1.0578 -0.2024
17509TIP3    H274019   2.057   3.519  13.497  0.1268  0.5428 -1.1905
17510TIP3   OH274020   4.117   6.077  11.922  0.5663  0.3930  0.0828
17510TIP3    H174021   4.117   6.047  11.832 -0.5321 -0.2075  0.2683
17510TIP3    H274022   4.202   6.049  11.957  0.2472 -1.0396 -0.2339
17511TIP3   OH274023   2.116   6.621   2.321  0.0654  0.2138  0.1375
17511TIP3    H174024   2.030   6.609   2.280 -0.3216  0.5159  0.8405
17511TIP3    H274025   2.105   6.587   2.410  1.1818 -1.3503 -0.3013
17512TIP3   OH274026   5.150   3.553  13.191 -0.0690 -0.0694 -0.0913
17512TIP3    H174027   5.163   3.640  13.230  0.6549 -1.2277  2.3623
17512TIP3    H274028   5.057   3.535  13.204  0.0131 -0.1300  0.4259
17513TIP3   OH274029   4.008   1.679   4.745  0.2627  0.0637  0.0574
17513TIP3    H174030   3.982   1.713   4.831 -2.2811 -0.4720 -0.4547
17513TIP3    H274031   4.082   1.621   4.763  0.6262  1.0052  1.7136
17514TIP3   OH274032   0.683   3.313   6.216  0.2687  0.3160 -0.4361
17514TIP3    H174033   0.703   3.220   6.208  0.3188  0.3382 -0.5884
17514TIP3    H274034   0.766   3.354   6.242  0.6410  0.5128 -1.8713
17515TIP3   OH274035   5.249   2.376   1.865  0.3642  0.4383 -0.0648
17515TIP3    H174036   5.302   2.455   1.877  1.1364  0.2273 -1.8208
17515TIP3    H274037   5.308   2.304   1.887 -0.1764  0.3237  1.0195
17516TIP3   OH274038   1.872   1.207   4.355 -0.1542  0.1601  0.0461
17516TIP3    H174039   1.933   1.160   4.413  0.6104 -3.1461 -3.2141
17516TIP3    H274040   1.786   1.173   4.378  0.0320 -0.3953 -0.0677
17517TIP3   OH274041   4.957   4.876   6.199  0.1181  0.0145  0.3624
17517TIP3    H174042   4.979   4.802   6.256 -0.5631  0.1576  0.8265
17517TIP3    H274043   5.015   4.946   6.228  0.6987 -0.3094 -0.0133
17518TIP3   OH274044   0.636   0.540   3.978 -0.1792  0.1413 -0.2189
17518TIP3    H174045   0.679   0.591   3.909 -1.8560 -0.6107 -1.8655
17518TIP3    H274046   0.700   0.473   4.002 -0.0332 -0.4023 -2.0037
17519TIP3   OH274047   5.605   2.554  15.206  0.0293  0.1913 -1.0297
17519TIP3    H174048   5.547   2.626  15.233 -2.0142 -1.8021  0.0410
17519TIP3    H274049   5.583   2.539  15.114 -1.0709 -0.4909 -0.6548
17520TIP3   OH274050   3.207   1.338   4.005 -0.3095  0.3592  1.0035
17520TIP3    H174051   3.114   1.361   4.004 -0.0170  1.5827  0.3950
17520TIP3    H274052   3.228   1.328   4.098 -0.5931  2.0576  1.2645
17521TIP3   OH274053   2.526   4.027  16.574  0.3207 -0.4320  0.2261
17521TIP3    H174054   2.597   4.028  16.639  0.7709 -2.7767 -0.1711
17521TIP3    H274055   2.500   3.935  16.568 -0.6543 -0.0579 -1.9062
17522TIP3   OH274056   1.760   0.939  15.215  0.2400  0.3226 -0.4602
17522TIP3    H174057   1.670   0.917  15.241  0.2662  0.7453 -0.0002
17522TIP3    H274058   1.787   0.866  15.159 -0.4179  0.2309 -0.6721
17523TIP3   OH274059   5.948   5.543   1.420 -0.5345 -0.4825 -0.3706
17523TIP3    H174060   5.915   5.455   1.439  1.2123 -1.3280 -1.1400
17523TIP3    H274061   5.944   5.589   1.504 -0.6342 -1.5612  0.2265
17524TIP3   OH274062   3.310   3.513  16.708  0.0319  0.7035 -0.2294
17524TIP3    H174063   3.389   3.526  16.656 -0.9993 -0.5603 -2.1694
17524TIP3    H274064   3.292   3.419  16.702 -0.5118  0.6450  1.8537
17525TIP3   OH274065   5.120   1.719   2.080  0.7494  0.7826  0.0238
17525TIP3    H174066   5.166   1.655   2.135  2.1737  1.7821  0.0072
17525TIP3    H274067   5.092   1.669   2.004 -0.5195 -0.4336  1.2609
17526TIP3   OH274068   3.970   6.812   1.585 -0.4992  0.1145 -0.4986
17526TIP3    H174069   4.041   6.876   1.596 -1.0667  0.6877 -0.1492
17526TIP3    H274070   4.014   6.727   1.589  0.4206  0.4882 -2.0764
17527TIP3   OH274071   5.373   4.123   3.435  0.4734  0.1380 -0.3673
17527TIP3    H174072   5.298   4.174   3.405  0.9959  0.5365 -1.0000
17527TIP3    H274073   5.345   4.032   3.427 -0.7454  0.3320  1.5043
17528TIP3   OH274074   6.448   5.119   0.233 -0.6042 -0.2540  0.5014
17528TIP3    H174075   6.491   5.129   0.318 -1.1335  0.3158  0.7043
17528TIP3    H274076   6.379   5.184   0.233  0.1033  0.5298 -0.8240
17529TIP3   OH274077   1.888   3.038  13.712 -0.1188 -0.5618  0.3508
17529TIP3    H174078   1.957   3.033  13.778  0.4393 -0.8753 -0.2483
17529TIP3    H274079   1.880   2.948  13.679  0.6220 -0.1458 -1.0247
17530TIP3   OH274080   0.771   2.422   2.357 -0.4524  0.4219  0.0785
17530TIP3    H174081   0.692   2.460   2.394 -1.0771 -0.0936 -0.6994
17530TIP3    H274082   0.756   2.327   2.362  0.3998  0.3061  0.5338
17531TIP3   OH274083   4.245   3.045  12.177 -0.0994 -0.0175  0.0369
17531TIP3    H174084   4.337   3.056  12.202 -0.5626  1.3941  1.1565
17531TIP3    H274085   4.236   3.095  12.095  0.1845 -0.3814 -0.2201
17532TIP3   OH274086   0.931   0.198   3.189  0.1080 -0.3836 -0.1045
17532TIP3    H174087   0.856   0.242   3.228 -0.0165 -1.1070  0.4804
17532TIP3    H274088   1.003   0.261   3.196 -0.5274  0.4635 -1.0206
17533TIP3   OH274089   1.224   5.457  16.629  0.5062 -0.0101  0.1262
17533TIP3    H174090   1.185   5.544  16.614 -0.3404 -0.1722  1.3121
17533TIP3    H274091   1.151   5.403  16.658  1.7029 -0.1529  3.0421
17534TIP3   OH274092   6.138   3.763  16.662 -0.0783 -0.1504  0.3621
17534TIP3    H174093   6.127   3.692  16.599  1.3477 -1.1910  1.2407
17534TIP3    H274094   6.152   3.841  16.610  2.3044 -1.1972 -0.6269
17535TIP3   OH274095   4.851   0.098  16.048 -0.7253  0.4402 -0.6013
17535TIP3    H174096   4.908   0.074  16.122  1.0010  0.1480 -1.9936
17535TIP3    H274097   4.796   0.021  16.034  0.0255 -0.0976 -0.6109
17536TIP3   OH274098   6.311   6.344   4.693  0.9013 -0.6079  0.8457
17536TIP3    H174099   6.249   6.278   4.662  0.6462  0.1843 -0.3497
17536TIP3    H274100   6.367   6.297   4.755  1.4703 -2.2705 -0.8691
17537TIP3   OH274101   0.000   2.299  14.912 -0.7359  0.1502  0.0337
17537TIP3    H174102  -0.002   2.303  15.008  0.1592 -0.9548  0.1088
17537TIP3    H274103  -0.091   2.308  14.886 -0.6912  3.4655  0.8496
17538TIP3   OH274104   0.277   2.776  14.560  0.2542  0.3245 -0.1672
17538TIP3    H174105   0.255   2.688  14.589  2.0396 -0.2929 -0.5725
17538TIP3    H274106   0.310   2.763  14.470 -0.3210  1.5203 -0.5587
17539TIP3   OH274107   5.360   0.280   5.429  0.3901 -0.3384 -0.3428
17539TIP3    H174108   5.280   0.301   5.380  0.0202  0.5412  0.6193
17539TIP3    H274109   5.430   0.287   5.364  0.0397  1.9696 -0.5025
17540TIP3   OH274110   2.903   6.653   2.409 -0.4526 -0.3196  0.3990
17540TIP3    H174111   2.891   6.612   2.323  0.5181  1.0294 -0.3951
17540TIP3    H274112   2.885   6.746   2.394  1.7267  0.2550  1.1865
17541TIP3   OH274113   0.445   1.431  16.059 -0.7926  0.1165 -0.1951
17541TIP3    H174114   0.428   1.403  16.149  0.1857  0.6111  0.1633
17541TIP3    H274115   0.395   1.371  16.004  0.2592 -1.5165  0.5962
17542TIP3   OH274116   2.358   3.263  14.180 -0.2191 -0.2641  0.4076
17542TIP3    H174117   2.332   3.298  14.266  0.2399  1.2267 -0.0614
17542TIP3    H274118   2.376   3.340  14.127 -0.7523 -1.1778 -1.1250
17543TIP3   OH274119   6.037   1.561  17.109  0.8512  0.7369  0.3290
17543TIP3    H174120   5.983   1.503  17.055  1.2217  1.1815 -0.5311
17543TIP3    H274121   5.974   1.614  17.158  0.5137  0.0680  0.6164
17544TIP3   OH274122   3.018   2.987   3.475 -0.4746  0.3082 -0.0355
17544TIP3    H174123   3.027   2.895   3.502 -1.2959  0.8241  2.0665
17544TIP3    H274124   3.046   3.037   3.551  2.2012  1.8554 -1.9535
17545TIP3   OH274125   0.807   5.028   4.419  0.2451  0.3670  0.2517
17545TIP3    H174126   0.769   5.036   4.507  0.8197  2.0794  0.3657
17545TIP3    H274127   0.757   4.958   4.378 -2.9137  2.3574  0.4704
17546TIP3   OH274128   4.289   1.595  16.885  0.0333 -0.1190  0.1646
17546TIP3    H174129   4.224   1.619  16.819 -0.0043  0.2301  0.3233
17546TIP3    H274130   4.350   1.669  16.886  0.6323 -0.6063 -0.2333
17547TIP3   OH274131   1.980   0.386   2.679 -0.0322  0.0546 -0.6457
17547TIP3    H174132   1.930   0.321   2.630 -0.4144  0.8002 -1.2538
17547TIP3    H274133   2.062   0.342   2.700 -1.3749 -1.5743  1.3424
17548TIP3   OH274134   3.098   3.695  10.808  0.1297  0.0770 -0.8380
17548TIP3    H174135   3.051   3.778  10.803 -1.5861 -0.8875 -1.3769
17548TIP3    H274136   3.080   3.652  10.724  1.8932 -0.3785 -1.0073
17549TIP3   OH274137   0.129   0.937   1.162  0.2091  0.0125  0.3195
17549TIP3    H174138   0.093   0.867   1.108  0.7433 -0.3461  0.4296
17549TIP3    H274139   0.067   0.947   1.233  0.1328 -0.3443  0.3006
17550TIP3   OH274140   2.825   1.853  15.129  0.0590 -0.1742  0.4673
17550TIP3    H174141   2.743   1.898  15.111 -0.3579 -1.5442 -1.2084
17550TIP3    H274142   2.810   1.808  15.212 -1.3633 -1.4540 -0.4481
17551TIP3   OH274143   5.993   1.708  15.695 -0.0912 -0.1889  0.4625
17551TIP3    H174144   5.911   1.736  15.654 -0.9125 -1.8157  0.9301
17551TIP3    H274145   6.004   1.768  15.769 -1.2335 -0.3900  0.8051
17552TIP3   OH274146   4.333   0.130   0.063 -0.3455 -0.8856 -0.9470
17552TIP3    H174147   4.312   0.059   0.124  0.0908 -1.7004 -1.7220
17552TIP3    H274148   4.309   0.095  -0.023  0.4472 -0.3213 -1.4004
17553TIP3   OH274149   2.309   2.458  14.843  0.3276 -0.6508  0.8808
17553TIP3    H174150   2.384   2.516  14.855  1.1716 -1.5563  0.0996
17553TIP3    H274151   2.239   2.497  14.896  0.7625  1.2607  0.0945
17554TIP3   OH274152   1.033   2.609   1.361 -0.2063 -0.0200 -0.2555
17554TIP3    H174153   1.094   2.680   1.340  1.1003 -1.7793 -2.6103
17554TIP3    H274154   0.947   2.643   1.335  0.2700  1.0353 -0.4835
17555TIP3   OH274155   1.448   0.590   2.867 -0.3808  0.2278  0.0146
17555TIP3    H174156   1.498   0.528   2.814  0.5547  0.1679  0.9365
17555TIP3    H274157   1.511   0.658   2.889 -1.0058  0.7281  0.2673
17556TIP3   OH274158   6.576   2.520   2.941 -0.1355 -0.6180  0.0115
17556TIP3    H174159   6.530   2.466   3.006 -1.2595 -0.3361 -0.5329
17556TIP3    H274160   6.638   2.460   2.899  0.3198 -0.8966  1.0679
17557TIP3   OH274161   4.311   5.685   6.236  0.2023 -0.2010  0.1967
17557TIP3    H174162   4.374   5.693   6.307  1.7034  0.5107 -1.1926
17557TIP3    H274163   4.300   5.774   6.204 -0.7892 -0.4590 -0.1980
17558TIP3   OH274164   0.276   4.534  16.491  0.1369 -0.6264 -0.0670
17558TIP3    H174165   0.183   4.525  16.469  0.1299  0.9122 -0.7703
17558TIP3    H274166   0.311   4.591  16.422  0.3994  3.3933  3.2624
17559TIP3   OH274167   3.986   5.849   3.682  0.2150  0.4054 -0.4175
17559TIP3    H174168   4.021   5.910   3.618 -0.3328 -0.3245 -1.4407
17559TIP3    H274169   3.935   5.786   3.629 -2.0576  1.0486  0.9421
17560TIP3   OH274170   5.047   4.429  11.510 -0.1863  0.3579  0.0777
17560TIP3    H174171   4.952   4.433  11.500 -0.1897 -0.8738 -0.5210
17560TIP3    H274172   5.080   4.405  11.423  0.4634 -1.6271  0.8332
17561TIP3   OH274173   0.840   2.411   4.437  0.4765 -0.1768 -0.2407
17561TIP3    H174174   0.814   2.460   4.358 -1.4339 -0.4156  0.2056
17561TIP3    H274175   0.777   2.339   4.441  0.6353 -0.2251  1.4531
17562TIP3   OH274176   2.576   4.951   0.440 -0.1696  0.4414 -0.2651
17562TIP3    H174177   2.644   4.895   0.401 -0.9012  0.7722 -2.0217
17562TIP3    H274178   2.549   4.904   0.519  1.8730  0.1519  0.3064
17563TIP3   OH274179   4.486   3.758  12.878  0.1694  0.3191 -0.4776
17563TIP3    H174180   4.393   3.756  12.856 -0.2937 -0.2437  1.4888
17563TIP3    H274181   4.525   3.693  12.819 -0.8791 -0.3587 -0.4422
17564TIP3   OH274182   6.551   6.165  12.988  0.8225  0.1626  0.1548
17564TIP3    H174183   6.523   6.234  13.049  4.0879  0.3815  1.4759
17564TIP3    H274184   6.637   6.193  12.958  1.7604 -2.8793 -0.0702
17565TIP3   OH274185   3.099   1.895  15.163  0.2462 -0.1513 -0.6473
17565TIP3    H174186   3.004   1.889  15.165  0.1630  1.3491  1.2164
17565TIP3    H274187   3.119   1.977  15.207  2.4493 -0.9758 -0.0249
17566TIP3   OH274188   1.838   4.821  11.308 -0.1235 -0.1029 -0.5941
17566TIP3    H174189   1.922   4.820  11.354 -0.0833 -1.1723 -0.6682
17566TIP3    H274190   1.823   4.913  11.286  1.0464  0.0943 -0.6032
17567TIP3   OH274191   0.955   0.329  15.292  0.3668 -0.0020  0.7442
17567TIP3    H174192   0.865   0.338  15.263  0.3983 -2.5882 -0.2625
17567TIP3    H274193   0.981   0.418  15.317 -1.9343  1.0409 -0.4303
17568TIP3   OH274194   2.571   2.244   3.647 -0.5356 -0.2695  0.7891
17568TIP3    H174195   2.603   2.212   3.732 -4.0680  0.4063  2.4807
17568TIP3    H274196   2.617   2.327   3.634  0.5850 -0.7364  1.6682
17569TIP3   OH274197   5.693   4.776   4.068 -0.4019 -0.0820 -0.1717
17569TIP3    H174198   5.770   4.731   4.102  1.0746  2.9086  0.6425
17569TIP3    H274199   5.678   4.737   3.982  2.3127 -0.4373 -0.5338
17570TIP3   OH274200   2.835   1.274  15.320 -0.6140  0.4944  0.2774
17570TIP3    H174201   2.879   1.333  15.259 -1.8878  1.8110  0.6254
17570TIP3    H274202   2.793   1.332  15.383 -1.1984 -0.8136  1.0953
17571TIP3   OH274203   6.255   2.036   0.648 -0.6461  0.5515 -0.4654
17571TIP3    H174204   6.333   2.045   0.702 -0.8751 -0.3876  0.0391
17571TIP3    H274205   6.192   1.989   0.703 -0.7836 -0.6959 -1.6331
17572TIP3   OH274206   1.493   0.553   5.137 -0.1822 -0.0964 -0.0528
17572TIP3    H174207   1.417   0.591   5.093 -0.5797 -0.6162  0.1847
17572TIP3    H274208   1.480   0.458   5.131  0.3987 -0.1857  0.0657
17573TIP3   OH274209   0.106   3.679   4.998 -0.4191 -0.1259 -0.3719
17573TIP3    H174210   0.025   3.634   5.026  0.3206 -0.2295  1.7246
17573TIP3    H274211   0.079   3.769   4.982 -0.6823  0.2342  1.9104
17574TIP3   OH274212   1.940   5.061   2.759 -0.1218  0.0068  0.2950
17574TIP3    H174213   1.908   5.087   2.845  0.3363 -1.5642  0.9589
17574TIP3    H274214   1.900   4.976   2.742  0.6510 -0.2085 -0.5453
17575TIP3   OH274215   2.108   1.479   1.975 -0.1628  0.5830 -0.0894
17575TIP3    H174216   2.063   1.432   2.046  1.1550 -1.0334 -0.2773
17575TIP3    H274217   2.177   1.419   1.947 -1.2359  0.7995 -3.3989
17576TIP3   OH274218   0.829   5.651   5.998 -0.6151  0.6190  0.1194
17576TIP3    H174219   0.763   5.653   6.067 -0.5267  0.8006  0.1994
17576TIP3    H274220   0.895   5.589   6.030 -0.9369  0.1427 -0.1355
17577TIP3   OH274221   4.166   5.040  16.979 -0.0483 -0.0440 -0.3472
17577TIP3    H174222   4.149   5.027  16.885  1.1147  2.1492 -0.9031
17577TIP3    H274223   4.110   5.114  17.003 -1.1154 -1.2461  0.9724
17578TIP3   OH274224   2.183   6.350  13.517 -0.6245 -0.1016 -0.3140
17578TIP3    H174225   2.180   6.420  13.451  1.6106 -0.5879 -0.9577
17578TIP3    H274226   2.266   6.306  13.502 -2.0367 -3.0234 -0.0104
17579TIP3   OH274227   4.390   2.875   1.744 -0.1101 -0.2444  0.1809
17579TIP3    H174228   4.325   2.945   1.754 -0.2471 -0.4053  0.4468
17579TIP3    H274229   4.409   2.873   1.651 -0.4070 -0.1199  0.1147
17580TIP3   OH274230   6.673   5.031  11.777 -0.1714  0.9565  0.3084
17580TIP3    H174231   6.718   4.966  11.724  0.2305  0.6105  1.0665
17580TIP3    H274232   6.612   4.981  11.830 -1.2805  1.4046 -0.5356
17581TIP3   OH274233   2.136   3.064  14.908  0.0742 -0.1569  0.6822
17581TIP3    H174234   2.047   3.041  14.881  0.1810  0.6572 -0.3876
17581TIP3    H274235   2.168   3.121  14.838  1.4698 -0.5158  1.0223
17582TIP3   OH274236   4.371   5.756   4.576  0.5739 -0.8468 -0.5904
17582TIP3    H174237   4.297   5.777   4.519  0.1498  0.1225  0.2984
17582TIP3    H274238   4.349   5.669   4.611 -0.3933 -0.3495  0.0609
17583TIP3   OH274239   2.482   6.098   1.488  0.3893  0.2203  0.7933
17583TIP3    H174240   2.513   6.010   1.468 -1.3623 -0.3154  0.3502
17583TIP3    H274241   2.403   6.084   1.541 -1.2450  1.4442 -1.2286
17584TIP3   OH274242   1.762   4.910   3.190 -0.0251  0.0146  0.2797
17584TIP3    H174243   1.851   4.876   3.193  0.5668  1.4432 -0.6424
17584TIP3    H274244   1.761   4.969   3.114 -1.4224  0.9031  0.9577
17585TIP3   OH274245   2.714   3.801  13.133 -0.1806  0.2719  0.0667
17585TIP3    H174246   2.694   3.725  13.188  0.4142 -0.9993 -1.4498
17585TIP3    H274247   2.808   3.815  13.143 -0.4593  1.5065  1.1824
17586TIP3   OH274248   2.711   4.470   0.433 -0.0632  0.5090 -0.4013
17586TIP3    H174249   2.699   4.511   0.518  1.1330  1.1629 -0.5433
17586TIP3    H274250   2.732   4.542   0.374  0.7289 -0.1356 -0.9161
17587TIP3   OH274251   2.044   5.775  14.602 -0.2297  0.1903  0.2089
17587TIP3    H174252   2.064   5.790  14.509  1.6484 -0.1440  0.5508
17587TIP3    H274253   2.011   5.859  14.632  2.2212  1.2673  0.0083
17588TIP3   OH274254   3.762   5.622  14.409  0.0504  0.1102 -0.5668
17588TIP3    H174255   3.738   5.537  14.372 -1.6299  0.6351 -0.7057
17588TIP3    H274256   3.837   5.650  14.356 -0.2785 -0.6377 -1.4588
17589TIP3   OH274257   1.721   1.689   4.134  0.6889 -0.6785 -0.1312
17589TIP3    H174258   1.643   1.719   4.086 -0.3534 -1.8730  0.7859
17589TIP3    H274259   1.754   1.768   4.176  0.3931 -0.0241 -1.0957
17590TIP3   OH274260   1.134   4.920  12.865  0.5887 -0.6533  0.0006
17590TIP3    H174261   1.041   4.937  12.855  0.4208 -1.7181 -0.3216
17590TIP3    H274262   1.141   4.825  12.866  1.8763 -0.6347 -2.2614
17591TIP3   OH274263   2.236   5.109   4.802 -0.2558  0.0509  0.3257
17591TIP3    H174264   2.266   5.125   4.713 -1.6602 -0.6405 -0.2929
17591TIP3    H274265   2.243   5.014   4.813 -1.1728 -0.0022  0.5301
17592TIP3   OH274266   5.877   2.004  16.777  0.6059  0.1766 -0.5505
17592TIP3    H174267   5.870   1.912  16.800 -0.5767  0.8805  2.1265
17592TIP3    H274268   5.971   2.022  16.775  0.7983 -0.6472  0.8587
17593TIP3   OH274269   6.283   0.314   1.120 -0.6481  0.1735 -0.5795
17593TIP3    H174270   6.211   0.326   1.182  0.8553  0.5464  1.1647
17593TIP3    H274271   6.242   0.310   1.034 -2.6945  0.7776  0.3576
17594TIP3   OH274272   2.719   3.187  11.001 -0.0452  0.4227  0.1870
17594TIP3    H174273   2.663   3.131  10.947 -1.2192  1.5255  0.2480
17594TIP3    H274274   2.808   3.165  10.974 -0.5918  0.3922 -1.6249
17595TIP3   OH274275   2.359   4.631   4.917 -0.0129 -0.5597 -0.0601
17595TIP3    H174276   2.427   4.565   4.929 -1.2284 -1.8048  0.1618
17595TIP3    H274277   2.284   4.596   4.965 -0.3221  1.5360  0.9986
17596TIP3   OH274278   1.775   0.246   4.840 -0.1582 -0.4596 -0.2106
17596TIP3    H174279   1.818   0.208   4.763  0.1660  1.6837 -1.1265
17596TIP3    H274280   1.829   0.219   4.914 -0.0682 -1.9468 -0.7919
17597TIP3   OH274281   4.388   3.732  13.396 -0.0282 -0.6378 -0.3052
17597TIP3    H174282   4.427   3.753  13.311 -0.5523 -0.6682 -0.5555
17597TIP3    H274283   4.388   3.637  13.400 -1.1232 -0.6680 -0.8039
17598TIP3   OH274284   3.430   0.221  13.233  0.4825  0.5835  0.2946
17598TIP3    H174285   3.356   0.281  13.247 -0.0623  0.0461 -0.1927
17598TIP3    H274286   3.408   0.144  13.285 -0.2174 -0.3137 -1.2630
17599TIP3   OH274287   4.109   1.304  16.313  0.0601 -0.3476 -0.4203
17599TIP3    H174288   4.179   1.272  16.371  0.4496  1.0730 -0.1035
17599TIP3    H274289   4.067   1.375  16.362  2.8909  3.5679 -3.3492
17600TIP3   OH274290   0.025   4.692   5.780 -0.3614 -0.2075 -0.5429
17600TIP3    H174291   0.047   4.621   5.721 -0.9319  0.5536 -1.6911
17600TIP3    H274292  -0.023   4.650   5.852  0.7735 -1.2026 -0.3661
17601TIP3   OH274293   5.779   1.951  13.856 -0.0052  0.1843  0.1901
17601TIP3    H174294   5.772   1.881  13.791 -0.3661 -1.8324  2.3500
17601TIP3    H274295   5.866   1.988  13.843 -0.0498 -0.2187 -1.3790
17602TIP3   OH274296   6.113   3.481   2.886  0.7679  0.5066  0.6692
17602TIP3    H174297   6.032   3.432   2.874  1.5422 -0.1104 -2.4737
17602TIP3    H274298   6.150   3.446   2.967  0.1978 -2.5626 -0.3356
17603TIP3   OH274299   3.061   4.083   3.946 -0.0834  0.1475 -0.2111
17603TIP3    H174300   3.130   4.116   3.889 -0.7369  1.0213 -0.5170
17603TIP3    H274301   3.039   4.157   4.002 -1.2359  0.0927 -0.5746
17604TIP3   OH274302   1.214   5.443  11.473  0.3162 -0.5576 -0.6636
17604TIP3    H174303   1.259   5.485  11.400 -0.0171 -0.7679 -0.9934
17604TIP3    H274304   1.264   5.469  11.550  1.8402 -1.9447 -1.1711
17605TIP3   OH274305   2.899   2.320  13.853 -0.0209  0.1404 -0.0593
17605TIP3    H174306   2.981   2.280  13.881 -0.4093 -0.1099  0.7433
17605TIP3    H274307   2.864   2.360  13.932 -1.5295 -1.2620  0.0047
17606TIP3   OH274308   6.744   0.769  13.414 -0.5781  0.1032  0.4308
17606TIP3    H174309   6.735   0.674  13.418 -2.3002  0.2490  0.3089
17606TIP3    H274310   6.710   0.800  13.498 -1.9406  0.7332 -0.3357
17607TIP3   OH274311   2.149   6.652   0.383 -0.9672  0.2247 -0.1257
17607TIP3    H174312   2.120   6.673   0.472 -3.1738 -0.7826 -0.5807
17607TIP3    H274313   2.147   6.556   0.379 -0.8302  0.2612 -1.2521
17608TIP3   OH274314   3.649   4.873   3.681  0.1125  0.7485  0.3160
17608TIP3    H174315   3.672   4.883   3.589 -0.6425  2.4900  0.2983
17608TIP3    H274316   3.557   4.900   3.686  0.0934  0.5032  1.5482
17609TIP3   OH274317   1.590   3.274   5.023  0.8875 -0.1002 -0.0649
17609TIP3    H174318   1.568   3.365   5.041  0.5434  0.6607 -3.9430
17609TIP3    H274319   1.679   3.277   4.987  0.4585 -1.1581 -1.2409
17610TIP3   OH274320   6.135   6.607   2.012  0.3683  0.3573 -0.0746
17610TIP3    H174321   6.142   6.611   1.917 -0.4929 -0.2042 -0.1637
17610TIP3    H274322   6.127   6.699   2.039 -0.8847  0.4305 -0.6673
17611TIP3   OH274323   6.435   6.188  13.508 -0.4142 -0.2397  0.3905
17611TIP3    H174324   6.425   6.281  13.489  0.1157 -0.2043  0.2634
17611TIP3    H274325   6.372   6.144  13.452  0.8465 -0.1124 -1.1543
17612TIP3   OH274326   6.765   4.388   5.371  0.1370  0.6818  0.3243
17612TIP3    H174327   6.717   4.413   5.292 -0.6078  0.1762  0.6169
17612TIP3    H274328   6.836   4.333   5.339  0.0100  0.7185 -0.0269
17613TIP3   OH274329   6.648   1.987  10.940 -0.0849  0.0377 -0.0823
17613TIP3    H174330   6.622   1.911  10.887  0.5585 -0.2562  0.0247
17613TIP3    H274331   6.681   2.050  10.876  0.9644 -0.4297 -0.0120
17614TIP3   OH274332   4.078   6.520   2.524  0.5335  0.1075  0.1942
17614TIP3    H174333   4.148   6.456   2.538 -0.5056 -1.5188 -1.6747
17614TIP3    H274334   4.029   6.485   2.450 -0.8253  2.4702 -0.0660
17615TIP3   OH274335   3.865   5.358   2.636  0.1959  0.4086 -0.2754
17615TIP3    H174336   3.823   5.427   2.687 -0.2737  0.4122 -0.6691
17615TIP3    H274337   3.959   5.371   2.651  0.0375 -1.6159  3.3263
17616TIP3   OH274338   1.639   2.672   5.695  0.5184 -0.4107  0.4754
17616TIP3    H174339   1.707   2.665   5.763 -0.6645 -1.6825  1.5649
17616TIP3    H274340   1.685   2.653   5.613  2.2272  2.3313  0.7254
17617TIP3   OH274341   6.203   1.621  11.025 -0.5688  0.6095 -0.3478
17617TIP3    H174342   6.297   1.639  11.018 -0.1869 -1.2692 -0.4158
17617TIP3    H274343   6.168   1.693  11.077  1.0008  1.0713  0.0877
17618TIP3   OH274344   1.904   5.323   0.721 -0.0979  0.1752  0.0779
17618TIP3    H174345   1.859   5.387   0.776  1.2256 -0.0073  1.3797
17618TIP3    H274346   1.987   5.307   0.765 -0.7088 -3.0313  0.2013
17619TIP3   OH274347   1.369   1.625  15.444 -0.2886  0.2543  0.0378
17619TIP3    H174348   1.379   1.532  15.424 -1.4739  0.5376 -2.0529
17619TIP3    H274349   1.330   1.627  15.531  0.3067 -1.1874  0.3540
17620TIP3   OH274350   2.357   0.369  11.298  0.2225 -0.0199  0.0873
17620TIP3    H174351   2.434   0.395  11.348  0.0991  0.6374 -0.0609
17620TIP3    H274352   2.381   0.385  11.207  1.3060 -3.3810 -0.2954
17621TIP3   OH274353   0.729   4.695  14.572 -0.0063 -0.3358 -0.2738
17621TIP3    H174354   0.677   4.618  14.546  0.0107 -0.4622  0.0578
17621TIP3    H274355   0.664   4.761  14.595 -0.0241  0.0378 -1.3840
17622TIP3   OH274356   2.922   3.242   5.636  0.5835 -0.1501  0.4891
17622TIP3    H174357   2.896   3.209   5.722  1.3608  0.3407  0.9078
17622TIP3    H274358   2.923   3.164   5.580  0.0450 -0.4598  0.9049
17623TIP3   OH274359   1.209   2.610  12.428 -0.0510  0.3202 -0.0425
17623TIP3    H174360   1.207   2.630  12.334 -2.5063  0.6999  0.0718
17623TIP3    H274361   1.183   2.517  12.433  0.2469  0.2510  0.2505
17624TIP3   OH274362   3.533   6.383  14.267 -0.2534 -0.2783 -0.2960
17624TIP3    H174363   3.509   6.335  14.187 -1.4121  0.5129 -0.4441
17624TIP3    H274364   3.612   6.432  14.243  0.9652 -2.0970 -0.1326
17625TIP3   OH274365   4.317   1.286  10.927  0.3392 -0.5598 -0.3213
17625TIP3    H174366   4.306   1.378  10.950  1.1684 -1.0631  2.2594
17625TIP3    H274367   4.231   1.259  10.895 -0.1893  0.8259 -0.1178
17626TIP3   OH274368   0.799   4.098  11.075 -0.0300 -0.1223  0.1492
17626TIP3    H174369   0.867   4.119  11.139  0.3083  0.2249 -0.3272
17626TIP3    H274370   0.839   4.115  10.990 -0.5761 -0.3028 -0.1492
17627TIP3   OH274371   3.923   3.051   1.071  0.5312  0.0486  0.1606
17627TIP3    H174372   3.916   3.092   0.985 -1.1445  0.5677  0.5363
17627TIP3    H274373   4.012   3.072   1.100  0.8290  0.5605 -1.0905
17628TIP3   OH274374   6.326   0.696  14.499  0.5467 -0.7175  0.1419
17628TIP3    H174375   6.399   0.659  14.548 -0.2032 -0.1339  1.7292
17628TIP3    H274376   6.333   0.791  14.512  0.0670 -0.5892 -0.4924
17629TIP3   OH274377   2.332   4.276  15.487  0.1573 -0.3292  0.0787
17629TIP3    H174378   2.376   4.207  15.438  0.5781  1.2331 -1.8145
17629TIP3    H274379   2.402   4.317  15.539  0.5328  0.7208 -1.2377
17630TIP3   OH274380   6.704   5.564  11.630 -0.0517 -0.6431  0.3929
17630TIP3    H174381   6.654   5.577  11.550 -0.1329 -0.7960  0.4183
17630TIP3    H274382   6.639   5.537  11.695  0.0511 -0.7572  0.4491
17631TIP3   OH274383   2.686   2.321  11.419 -0.4604  0.3994  0.0011
17631TIP3    H174384   2.677   2.348  11.511 -0.9883  1.3981 -0.3418
17631TIP3    H274385   2.740   2.389  11.379 -0.1133 -0.1090 -0.4075
17632TIP3   OH274386   4.583   5.976  13.614 -0.1646  0.4591  0.1663
17632TIP3    H174387   4.498   6.017  13.598  0.2997  0.7917 -1.5139
17632TIP3    H274388   4.639   6.049  13.641  0.7700  1.0656 -3.2251
17633TIP3   OH274389   6.208   6.685   4.908 -0.2517  0.1250 -0.1835
17633TIP3    H174390   6.284   6.743   4.906  0.3925 -0.7342 -1.5402
17633TIP3    H274391   6.165   6.704   4.991 -0.3133  2.8467 -0.7951
17634TIP3   OH274392   2.183   1.737  11.575 -0.4089  0.0765  0.1171
17634TIP3    H174393   2.208   1.655  11.618  0.3289  0.1077 -0.2462
17634TIP3    H274394   2.257   1.758  11.518 -1.3638  0.0564 -1.1366
17635TIP3   OH274395   0.432   2.502  16.429  0.3142 -0.1515 -0.5316
17635TIP3    H174396   0.490   2.468  16.497 -0.3044  1.7502  0.9836
17635TIP3    H274397   0.404   2.587  16.462 -1.2289  0.1194 -2.4742
17636TIP3   OH274398   5.665   6.716  14.413  0.4386 -0.0921  0.3395
17636TIP3    H174399   5.582   6.704  14.459 -0.1088 -1.4718 -0.9868
17636TIP3    H274400   5.721   6.762  14.476 -0.8796 -0.3667  1.7255
17637TIP3   OH274401   1.706   6.121   3.836  0.0443 -0.1951 -0.2673
17637TIP3    H174402   1.763   6.063   3.887 -1.9825 -0.5029  1.7275
17637TIP3    H274403   1.621   6.116   3.880 -1.5688  0.2086 -3.2196
17638TIP3   OH274404   6.337   5.929  12.243  0.3914  0.4019  0.5924
17638TIP3    H174405   6.405   5.864  12.257 -1.1982 -1.3190  0.5618
17638TIP3    H274406   6.262   5.896  12.292 -0.8905  1.4906 -0.5858
17639TIP3   OH274407   0.350   4.545  14.253  0.4309 -0.4320 -0.0310
17639TIP3    H174408   0.272   4.585  14.291  1.3895  1.1186  0.3389
17639TIP3    H274409   0.356   4.460  14.295  0.1752  0.3277  1.6047
17640TIP3   OH274410   2.269   1.604  17.052 -0.4901 -0.2547  0.2110
17640TIP3    H174411   2.242   1.680  17.103 -0.2050 -1.5720  2.3731
17640TIP3    H274412   2.344   1.568  17.099 -1.2754 -2.5076 -0.1732
17641TIP3   OH274413   1.538   2.488  11.365 -0.2537 -0.1318 -0.4691
17641TIP3    H174414   1.559   2.577  11.338  2.3707 -0.6949 -0.4215
17641TIP3    H274415   1.591   2.432  11.308 -0.0263 -1.5704  1.0983
17642TIP3   OH274416   5.540   3.717   2.236 -0.1083  0.6278 -0.4914
17642TIP3    H174417   5.615   3.676   2.279  1.2808  0.1771 -3.2217
17642TIP3    H274418   5.464   3.670   2.271  1.0507 -0.5266  0.5274
17643TIP3   OH274419   1.420   2.060  15.974  0.5875 -0.8445  0.3563
17643TIP3    H174420   1.409   2.144  15.929  1.6774 -1.2825 -0.7710
17643TIP3    H274421   1.511   2.061  16.004  0.0400 -0.8234  2.0255
17644TIP3   OH274422   1.651   5.586   0.364 -0.3355  0.1665  0.5034
17644TIP3    H174423   1.692   5.512   0.320  0.0628  0.3502  0.5627
17644TIP3    H274424   1.686   5.584   0.453  1.5182  1.8340 -0.1698
17645TIP3   OH274425   2.572   6.289  13.755 -0.2762 -0.2354  0.2333
17645TIP3    H174426   2.572   6.200  13.790 -3.7838 -0.3731  0.0659
17645TIP3    H274427   2.503   6.334  13.804  0.0633  1.7785 -1.1093
17646TIP3   OH274428   3.866   1.762  16.639  0.3447 -0.2631 -0.1771
17646TIP3    H174429   3.899   1.851  16.649 -0.1260 -0.0165 -0.7252
17646TIP3    H274430   3.889   1.738  16.549  2.0838 -1.3889  0.5474
17647TIP3   OH274431   5.254   1.272  15.285  0.6435  0.5080 -0.2510
17647TIP3    H174432   5.325   1.300  15.343  0.4498  0.3483  0.0667
17647TIP3    H274433   5.181   1.329  15.307  0.1575 -0.4168  0.6026
17648TIP3   OH274434   5.497   1.828   4.764  0.4712 -0.7745 -0.5957
17648TIP3    H174435   5.424   1.856   4.709  0.5591  2.5578  0.8040
17648TIP3    H274436   5.566   1.891   4.744  2.0077 -2.2040  0.1230
17649TIP3   OH274437   4.291   6.051   3.711 -0.6919  0.3679  0.0599
17649TIP3    H174438   4.317   6.036   3.620  0.3892 -0.6870  0.5299
17649TIP3    H274439   4.223   6.118   3.706 -0.6486  0.3054 -1.5266
17650TIP3   OH274440   6.029   6.753  12.962  0.1764  0.5022 -0.0872
17650TIP3    H174441   6.046   6.737  12.869  0.5268  2.2993 -0.3506
17650TIP3    H274442   5.938   6.782  12.965  0.2900  0.8455  0.0772
17651TIP3   OH274443   6.404   2.843   6.955 -0.0288  0.5908  0.2652
17651TIP3    H174444   6.402   2.927   6.911  1.6695  0.6523  0.2950
17651TIP3    H274445   6.382   2.779   6.887  3.3819  0.5986 -0.9497
17652TIP3   OH274446   1.818   1.898  14.034 -0.0516  0.1081  0.2036
17652TIP3    H174447   1.852   1.846  14.106 -1.3478  0.1682  0.8638
17652TIP3    H274448   1.840   1.848  13.955 -0.2700 -0.8578  0.7555
17653TIP3   OH274449   2.364   1.403  13.293 -0.0715 -0.0147  0.3817
17653TIP3    H174450   2.325   1.445  13.369 -0.9935 -1.8833  0.9564
17653TIP3    H274451   2.458   1.414  13.305 -0.2107 -0.2597  1.7754
17654TIP3   OH274452   1.621   6.694  13.881 -0.2588 -0.1283 -0.3624
17654TIP3    H174453   1.549   6.753  13.856  1.7089  2.4588 -0.1310
17654TIP3    H274454   1.672   6.684  13.801  1.1622  1.0727  0.3669
17655TIP3   OH274455   2.286   5.741  12.350 -0.1148 -0.3443  0.2888
17655TIP3    H174456   2.345   5.770  12.420  1.5268 -0.9040 -0.8332
17655TIP3    H274457   2.199   5.765  12.381  0.4990 -1.3435  2.9240
17656TIP3   OH274458   5.731   1.728   4.544  0.2921  0.3420 -0.3592
17656TIP3    H174459   5.825   1.723   4.558  0.3769 -0.2131 -1.0986
17656TIP3    H274460   5.707   1.817   4.572  0.7972  0.0174  1.1389
17657TIP3   OH274461   2.648   3.062   5.676  0.0771 -0.9148 -0.0817
17657TIP3    H174462   2.577   3.026   5.729 -1.1019  0.2751 -0.8170
17657TIP3    H274463   2.717   3.082   5.740 -1.0606 -0.1264  0.9474
17658TIP3   OH274464   5.878   6.447   4.014  0.0593 -0.8325 -0.2067
17658TIP3    H174465   5.796   6.466   4.060 -0.1180 -1.0073 -0.4498
17658TIP3    H274466   5.929   6.527   4.022 -0.0904 -0.7601  0.0420
17659TIP3   OH274467   5.364   0.212   0.976 -0.2792 -0.0810  0.0955
17659TIP3    H174468   5.347   0.127   1.017  0.0502  0.7602  2.0191
17659TIP3    H274469   5.448   0.240   1.012 -0.5247  1.1849 -0.3026
17660TIP3   OH274470   6.549   4.579   3.759  0.4968 -0.4722 -0.0561
17660TIP3    H174471   6.477   4.585   3.696  0.7805 -0.6017 -0.3931
17660TIP3    H274472   6.546   4.489   3.790 -0.1087 -0.2141  0.6779
17661TIP3   OH274473   1.086   0.298  11.424 -0.0117 -0.0445 -0.6454
17661TIP3    H174474   0.997   0.262  11.416  0.2687 -0.7332 -0.7353
17661TIP3    H274475   1.143   0.221  11.417  0.5144  0.1356  1.2067
17662TIP3   OH274476   5.585   3.797  16.351  0.7811 -0.2974 -0.9768
17662TIP3    H174477   5.581   3.737  16.277  1.0808 -0.6572 -0.7037
17662TIP3    H274478   5.675   3.789  16.383  0.3800 -0.8687  0.0257
17663TIP3   OH274479   1.725   3.016  13.201  0.0825  0.2563  0.3690
17663TIP3    H174480   1.723   3.098  13.152 -0.1827 -0.8418 -1.4998
17663TIP3    H274481   1.703   3.041  13.291  0.4949  2.2903 -0.0745
17664TIP3   OH274482   1.099   3.974   4.412 -0.1359 -0.1128  0.3768
17664TIP3    H174483   1.126   3.946   4.325 -0.4667  2.5315 -0.6438
17664TIP3    H274484   1.015   4.019   4.397 -1.6045 -2.0553  2.4707
17665TIP3   OH274485   1.328   3.828   3.408  0.1751 -0.0520 -0.3625
17665TIP3    H174486   1.404   3.851   3.355  0.3724 -1.0483 -0.5199
17665TIP3    H274487   1.364   3.788   3.487 -0.1193  1.4485  0.5534
17666TIP3   OH274488   0.038   5.382   2.746  0.5521  0.5518  0.2230
17666TIP3    H174489  -0.014   5.446   2.698 -0.7444  0.1142  1.0213
17666TIP3    H274490  -0.026   5.318   2.778  1.7254 -0.6669  0.1699
17667TIP3   OH274491   0.342   6.051  13.629  0.0394 -0.2251  0.0243
17667TIP3    H174492   0.339   6.094  13.715 -2.2873 -0.4738  0.0909
17667TIP3    H274493   0.367   6.121  13.568 -0.0583  0.3540  0.6430
17668TIP3   OH274494   5.592   0.158  11.774 -0.4534  0.2429  0.5960
17668TIP3    H174495   5.569   0.205  11.694 -1.7101  1.2796  1.5478
17668TIP3    H274496   5.658   0.213  11.816  2.0494 -1.5107 -0.9029
17669TIP3   OH274497   6.126   3.212   3.344 -0.3146 -0.3193 -0.7992
17669TIP3    H174498   6.167   3.290   3.383 -2.1783  0.2243  0.1439
17669TIP3    H274499   6.198   3.151   3.332  0.9943  1.1149 -0.4468
17670TIP3   OH274500   5.168   5.873   2.556  0.0432 -0.3317  0.4216
17670TIP3    H174501   5.258   5.850   2.532  0.1104  0.5755 -0.1993
17670TIP3    H274502   5.178   5.942   2.622 -0.2073  2.1390 -2.0382
17671TIP3   OH274503   1.164   6.592   0.166  0.5867  0.0068 -0.3143
17671TIP3    H174504   1.079   6.634   0.152 -0.1943 -1.4066  0.1169
17671TIP3    H274505   1.201   6.583   0.079  1.0413  2.1287 -0.3733
17672TIP3   OH274506   0.403   3.387  11.366 -0.5089  0.1836  0.5033
17672TIP3    H174507   0.375   3.419  11.281  1.0943 -0.2383 -0.2100
17672TIP3    H274508   0.358   3.442  11.430 -0.8305  1.2438 -0.6443
17673TIP3   OH274509   3.458   1.195   2.212  0.1851  0.1000 -0.1748
17673TIP3    H174510   3.550   1.195   2.186  0.2625 -1.7121 -0.0254
17673TIP3    H274511   3.451   1.262   2.280  2.1293 -1.9531  2.1654
17674TIP3   OH274512   6.786   6.646   2.859  0.5518  0.5868 -0.0613
17674TIP3    H174513   6.714   6.692   2.817  1.2343  0.3762 -1.4943
17674TIP3    H274514   6.804   6.571   2.802  1.1345 -0.0200  0.8894
17675TIP3   OH274515   5.409   1.708   1.922 -0.3361 -1.0389 -0.1727
17675TIP3    H174516   5.322   1.715   1.881  0.6317 -0.6581 -2.2271
17675TIP3    H274517   5.466   1.758   1.864  1.2708 -1.2870  1.1762
17676TIP3   OH274518   0.122   1.509   5.617  0.8387  0.2772  0.4222
17676TIP3    H174519   0.048   1.450   5.627  0.6277  0.4612 -0.0602
17676TIP3    H274520   0.115   1.569   5.692  0.4823  0.3206  0.3548
17677TIP3   OH274521   4.498   0.619   1.147 -0.0170  0.3307 -0.2530
17677TIP3    H174522   4.492   0.591   1.238  1.7983 -0.8046 -0.4495
17677TIP3    H274523   4.436   0.564   1.100  0.1497 -0.1495  0.0842
17678TIP3   OH274524   2.165   1.125   2.058  0.0146  0.2288  0.6717
17678TIP3    H174525   2.203   1.049   2.102 -0.0843  0.9454  2.0397
17678TIP3    H274526   2.075   1.129   2.090 -0.1272  0.6441  0.2375
17679TIP3   OH274527   3.596   5.117  16.904 -0.2257 -0.1164 -0.0555
17679TIP3    H174528   3.524   5.055  16.906  0.0497 -0.4395 -0.0925
17679TIP3    H274529   3.675   5.063  16.909  0.0499  0.1352 -1.2918
17680TIP3   OH274530   0.860   3.572  14.966 -0.0011  0.0148 -0.3094
17680TIP3    H174531   0.943   3.620  14.971 -0.5865  1.3945 -2.6245
17680TIP3    H274532   0.804   3.629  14.913 -2.4323 -0.9113  1.2235
17681TIP3   OH274533   4.936   2.628   0.886  0.1113 -0.5063  0.1699
17681TIP3    H174534   4.979   2.543   0.896  3.0720  0.6651 -1.6781
17681TIP3    H274535   4.990   2.688   0.937 -0.4990  0.6802 -0.5404
17682TIP3   OH274536   0.738   5.207  14.339 -0.5969 -0.0057 -0.2137
17682TIP3    H174537   0.806   5.271  14.318  1.0115 -1.5915  0.1119
17682TIP3    H274538   0.656   5.257  14.332  0.5116  1.7054 -1.4728
17683TIP3   OH274539   2.703   5.280   0.885 -1.0333  0.2457 -0.0596
17683TIP3    H174540   2.789   5.281   0.842 -1.3487  2.2121 -0.7115
17683TIP3    H274541   2.671   5.191   0.873  1.0501 -0.5878  0.4605
17684TIP3   OH274542   3.636   6.029   6.309  0.2701  0.1794  0.2320
17684TIP3    H174543   3.652   6.111   6.356  0.2230  0.7161 -0.6889
17684TIP3    H274544   3.554   5.995   6.347 -0.5324  1.3324 -0.4550
17685TIP3   OH274545   1.715   1.720   1.317 -0.2290 -0.0931 -0.2055
17685TIP3    H174546   1.670   1.719   1.233 -1.5883 -0.9574  0.5156
17685TIP3    H274547   1.652   1.757   1.379  0.6627  0.3021  0.4810
17686TIP3   OH274548   2.620   3.103  11.262  0.0241 -0.1018 -0.4520
17686TIP3    H174549   2.671   3.166  11.312 -0.6107 -1.0600  1.4305
17686TIP3    H274550   2.619   3.138  11.173 -0.5417  2.6668  0.6030
17687TIP3   OH274551   4.555   1.382   3.568  0.1127 -0.0471  0.4274
17687TIP3    H174552   4.632   1.438   3.572 -1.4026  2.0397  2.4164
17687TIP3    H274553   4.575   1.310   3.628  1.1389 -0.3529 -0.2823
17688TIP3   OH274554   4.456   4.041  13.039  0.1768  0.1817 -0.1210
17688TIP3    H174555   4.440   3.970  12.977  1.4281  1.1271 -1.5437
17688TIP3    H274556   4.379   4.040  13.096  0.5001 -2.7893  0.3839
17689TIP3   OH274557   4.998   3.094   5.644 -0.1208  0.4727 -0.0980
17689TIP3    H174558   4.925   3.143   5.605  0.8115  0.3186 -2.0779
17689TIP3    H274559   5.044   3.158   5.698 -1.8384  0.5133  1.3702
17690TIP3   OH274560   1.898   3.589   4.862  0.4116 -0.5638  0.3794
17690TIP3    H174561   1.834   3.651   4.896 -2.9196 -2.4012 -2.2337
17690TIP3    H274562   1.910   3.526   4.933 -1.2382 -0.5710  0.6768
17691TIP3   OH274563   3.187   1.660  15.427  0.1754  0.6215  0.6476
17691TIP3    H174564   3.199   1.736  15.369 -1.7761  2.2504  2.2861
17691TIP3    H274565   3.093   1.659  15.445  0.0568 -2.6603  0.1048
17692TIP3   OH274566   0.380   3.115   3.052 -0.4373 -0.2248  0.8592
17692TIP3    H174567   0.287   3.135   3.059  0.0153  1.3465  2.9378
17692TIP3    H274568   0.403   3.142   2.963 -2.1272 -1.4400  0.0178
17693TIP3   OH274569   3.327   0.273   2.715 -0.1247  0.1001  0.5292
17693TIP3    H174570   3.389   0.346   2.707  1.4015 -1.4255 -2.3240
17693TIP3    H274571   3.353   0.228   2.795  2.3293 -0.3502 -0.4772
17694TIP3   OH274572   1.013   3.847  14.188  0.3861  0.1227  0.3945
17694TIP3    H174573   1.049   3.893  14.265 -1.2653  1.5681  0.3258
17694TIP3    H274574   0.935   3.802  14.221 -0.5085  1.0050 -0.4868
17695TIP3   OH274575   6.456   2.032   2.907 -0.4285 -0.1843 -0.4693
17695TIP3    H174576   6.377   1.995   2.946 -0.2893  0.7567  0.7523
17695TIP3    H274577   6.519   1.960   2.905 -0.5519 -0.3306  0.7592
17696TIP3   OH274578   4.066   1.186   5.520  0.0252  0.1126 -0.4648
17696TIP3    H174579   4.047   1.278   5.504  0.1417  0.4604  1.2683
17696TIP3    H274580   3.986   1.151   5.559  0.4807 -0.1497  0.2521
17697TIP3   OH274581   5.539   4.354   0.718  0.1339 -0.3960  0.0812
17697TIP3    H174582   5.502   4.360   0.629 -0.1451 -2.0466  0.0742
17697TIP3    H274583   5.465   4.373   0.775  0.3597  0.8735 -0.0272
17698TIP3   OH274584   5.256   2.086   4.747 -0.1362 -0.2807 -0.3186
17698TIP3    H174585   5.296   2.054   4.827 -0.4501  0.1821  0.0284
17698TIP3    H274586   5.227   2.175   4.769  0.1535  0.0035 -1.0674
17699TIP3   OH274587   1.761   0.444   5.286 -0.3227  0.4719 -0.0193
17699TIP3    H174588   1.788   0.456   5.194 -1.6659 -1.3287 -0.6715
17699TIP3    H274589   1.672   0.408   5.280 -1.1223  2.0077  2.0281
17700TIP3   OH274590   5.430   3.927  13.252  0.1634  0.2132  0.3554
17700TIP3    H174591   5.466   3.897  13.335  3.2129 -1.4659 -1.4549
17700TIP3    H274592   5.358   3.866  13.234  0.8820 -0.7608  0.7430
17701TIP3   OH274593   1.129   0.724  13.618  0.1852  0.2021 -0.2750
17701TIP3    H174594   1.116   0.640  13.573 -1.8070 -0.5469  1.6105
17701TIP3    H274595   1.172   0.700  13.700  0.2621  1.1244 -0.0461
17702TIP3   OH274596   2.391   2.436   3.512 -0.2162 -0.0943 -0.3748
17702TIP3    H174597   2.451   2.471   3.578  0.0514 -1.9275  0.4094
17702TIP3    H274598   2.439   2.362   3.474 -1.0559 -0.1147 -1.4047
17703TIP3   OH274599   3.994   4.502   0.154 -0.3750  0.1876 -0.7139
17703TIP3    H174600   4.053   4.576   0.170 -0.0033 -0.5797  1.6969
17703TIP3    H274601   3.945   4.494   0.235 -1.7391 -1.0475 -1.6566
17704TIP3   OH274602   4.824   2.981  14.512  0.0829 -0.2249  0.7453
17704TIP3    H174603   4.792   3.063  14.474  1.1590 -1.0224 -1.9969
17704TIP3    H274604   4.886   3.008  14.580  0.5147  1.2319 -0.2117
17705TIP3   OH274605   5.615   3.735   2.722  0.3991 -0.0360  0.6360
17705TIP3    H174606   5.653   3.670   2.781 -0.8061  1.3915  3.0222
17705TIP3    H274607   5.528   3.701   2.701  0.7044 -0.3836 -0.1031
17706TIP3   OH274608   1.619   4.478   5.731  0.1498  0.4643  0.0870
17706TIP3    H174609   1.712   4.495   5.718  0.2397  0.6074  0.8892
17706TIP3    H274610   1.615   4.387   5.761  0.1778  0.9201  1.5478
17707TIP3   OH274611   6.041   4.245   6.509  0.1212 -0.1576 -0.0284
17707TIP3    H174612   6.070   4.174   6.566  0.7058  0.0875 -0.0195
17707TIP3    H274613   5.978   4.203   6.450  0.4973 -0.7007 -0.0533
17708TIP3   OH274614   6.244   1.957  17.156  0.0218  0.0103  0.0838
17708TIP3    H174615   6.148   1.961  17.164 -0.0889 -1.9515 -0.1738
17708TIP3    H274616   6.261   1.986  17.066 -0.4881 -1.5844 -0.5398
17709TIP3   OH274617   4.311   5.954   1.116 -0.4014  0.5851  0.2735
17709TIP3    H174618   4.278   5.999   1.038  1.8412  2.1692  0.1974
17709TIP3    H274619   4.394   5.915   1.089 -0.7486 -0.9003  1.2470
17710TIP3   OH274620   6.298   4.369  12.883  0.1122  0.4490 -0.5311
17710TIP3    H174621   6.358   4.315  12.831 -0.5298  0.3086 -1.1387
17710TIP3    H274622   6.212   4.351  12.845 -0.1594  1.5957 -0.4713
17711TIP3   OH274623   2.323   3.757   6.133 -0.5127  0.4289  0.5027
17711TIP3    H174624   2.410   3.792   6.152  0.0830 -0.5238 -0.3991
17711TIP3    H274625   2.331   3.663   6.146 -1.5676  0.3862  0.9565
17712TIP3   OH274626   6.038   6.083   2.977  0.4187 -0.0920  0.0490
17712TIP3    H174627   5.978   6.153   3.002 -1.1417 -1.6398  0.7360
17712TIP3    H274628   6.054   6.035   3.059 -0.7021 -2.1568 -0.9003
17713TIP3   OH274629   4.408   2.387   5.735 -0.0916  0.7331 -0.3916
17713TIP3    H174630   4.389   2.480   5.726 -2.1408  0.3998  0.2267
17713TIP3    H274631   4.493   2.384   5.779 -1.6064  2.3721  2.8588
17714TIP3   OH274632   4.625   2.291   1.828 -0.4097  0.5791 -0.2234
17714TIP3    H174633   4.542   2.327   1.859 -0.9735 -0.5214 -0.4223
17714TIP3    H274634   4.692   2.340   1.876 -1.1960  0.9886  0.4661
17715TIP3   OH274635   4.182   3.705  12.493  0.0448  0.3076 -0.1714
17715TIP3    H174636   4.157   3.777  12.551 -1.4808  1.6992 -2.4771
17715TIP3    H274637   4.184   3.628  12.550 -1.7448  1.5703  1.6628
17716TIP3   OH274638   2.086   1.438  13.029  0.0274 -0.5252 -0.4711
17716TIP3    H174639   2.019   1.390  12.982 -1.0518  0.9357 -0.4854
17716TIP3    H274640   2.163   1.433  12.973 -0.7502 -0.2360 -1.5963
17717TIP3   OH274641   4.891   1.447  11.441  0.0596  0.6679  0.9576
17717TIP3    H174642   4.971   1.477  11.397 -0.8720  0.0988 -1.1792
17717TIP3    H274643   4.892   1.492  11.526  2.4835  0.8907  0.8530
17718TIP3   OH274644   6.248   1.429  17.245  0.2512 -0.2275  0.4826
17718TIP3    H174645   6.332   1.454  17.207  0.6441 -0.4690  1.1803
17718TIP3    H274646   6.182   1.471  17.189  0.8146 -0.7706 -0.5965
17719TIP3   OH274647   4.592   3.784  12.150 -0.0620 -0.3285 -0.1720
17719TIP3    H174648   4.535   3.713  12.178 -0.1541 -0.8085 -1.5257
17719TIP3    H274649   4.679   3.760  12.183 -0.0126 -1.2977 -0.9668
17720TIP3   OH274650   6.145   6.769   5.783  0.0476 -0.2189  0.1992
17720TIP3    H174651   6.239   6.780   5.770  0.1948 -1.2872  0.2714
17720TIP3    H274652   6.134   6.766   5.878  0.4761 -4.0256  0.2204
17721TIP3   OH274653   1.753   4.712   0.884 -0.1510 -0.3505 -0.0792
17721TIP3    H174654   1.796   4.626   0.887  1.2968  0.2800 -1.8034
17721TIP3    H274655   1.672   4.700   0.934  0.8727 -2.2364  1.2053
17722TIP3   OH274656   1.755   1.596  13.085  0.4609  0.2589  0.3169
17722TIP3    H174657   1.663   1.619  13.102  0.2267 -0.1483 -0.3878
17722TIP3    H274658   1.762   1.594  12.990  2.4120  5.1076  0.1873
17723TIP3   OH274659   6.590   4.775   4.050 -0.2179  0.5990 -0.2436
17723TIP3    H174660   6.571   4.858   4.007  0.4106  0.4997 -0.7103
17723TIP3    H274661   6.654   4.732   3.993  1.1625  0.7783  1.1759
17724TIP3   OH274662   0.904   3.287   4.491 -0.1755 -0.6426  0.4457
17724TIP3    H174663   0.840   3.240   4.544  0.7406  0.9117  3.0053
17724TIP3    H274664   0.986   3.240   4.505 -0.0354 -0.5306  0.0055
17725TIP3   OH274665   6.545   1.768  13.847  0.3421  0.2774  0.1333
17725TIP3    H174666   6.547   1.673  13.834 -2.7863  0.0984  0.6757
17725TIP3    H274667   6.602   1.783  13.923  1.4092 -1.0706 -0.3866
17726TIP3   OH274668   0.153   1.995  10.867 -0.0517  1.1682 -0.2707
17726TIP3    H174669   0.135   1.902  10.852  0.4440  1.0095  0.1066
17726TIP3    H274670   0.129   2.038  10.785  0.1569  0.6431 -0.6064
17727TIP3   OH274671   4.887   4.851   3.053 -0.0470  0.2088 -0.0200
17727TIP3    H174672   4.794   4.863   3.070  0.2131  2.4190 -0.0016
17727TIP3    H274673   4.919   4.800   3.128 -1.2147 -0.5535 -0.0208
17728TIP3   OH274674   3.073   5.362   0.197  0.4964  0.0599 -0.2622
17728TIP3    H174675   3.061   5.296   0.265  0.2973 -0.9431 -1.2626
17728TIP3    H274676   3.066   5.446   0.244  0.7485 -0.6154  1.0087
17729TIP3   OH274677   6.120   1.249   5.663  0.9793 -0.1294  0.7015
17729TIP3    H174678   6.120   1.231   5.757  4.3374  0.2837  0.8468
17729TIP3    H274679   6.138   1.343   5.656  3.9487 -0.7124 -0.3294
17730TIP3   OH274680   0.957   5.454  14.590  0.3807 -0.0851  0.1304
17730TIP3    H174681   1.019   5.514  14.633 -0.8212  1.0989  0.2553
17730TIP3    H274682   0.925   5.399  14.661  0.2409  0.2369  0.3223
17731TIP3   OH274683   2.855   6.525   2.161  0.2980  0.4346  0.3451
17731TIP3    H174684   2.948   6.503   2.159  0.2672  0.3812 -0.8771
17731TIP3    H274685   2.817   6.473   2.090 -0.8046 -0.1887  1.3839
17732TIP3   OH274686   3.410   0.072   2.888 -0.2106 -0.0332 -0.5262
17732TIP3    H174687   3.386   0.079   2.981 -1.0674  1.6893 -0.8399
17732TIP3    H274688   3.398  -0.020   2.866 -0.3949 -0.3778  0.9766
17733TIP3   OH274689   4.655   3.841   5.161 -0.1540 -0.1444  0.1764
17733TIP3    H174690   4.638   3.811   5.071 -0.6310  0.7038 -0.0218
17733TIP3    H274691   4.748   3.822   5.175  0.3046  1.1152 -1.0550
17734TIP3   OH274692   6.558   0.121  11.518 -0.7688  0.0488  0.3224
17734TIP3    H174693   6.615   0.078  11.454 -2.3881  0.2955 -1.3374
17734TIP3    H274694   6.581   0.081  11.602  0.1005 -1.6393 -0.6994
17735TIP3   OH274695   5.546   1.283   2.226  0.1575  0.1159  0.5246
17735TIP3    H174696   5.480   1.308   2.162  0.1635 -0.8863  0.1275
17735TIP3    H274697   5.573   1.366   2.266  0.2237  0.7525 -0.8272
17736TIP3   OH274698   0.888   2.176  16.917  0.4313 -0.2850 -0.9731
17736TIP3    H174699   0.945   2.225  16.976  0.7846 -0.8337 -0.8609
17736TIP3    H274700   0.887   2.087  16.953 -2.3219  0.2274  0.3801
17737TIP3   OH274701   5.608   2.578  16.844 -0.0678 -0.4885  1.1934
17737TIP3    H174702   5.664   2.570  16.766 -1.0858 -1.1968  0.5234
17737TIP3    H274703   5.530   2.528  16.822 -1.2228  0.9679  1.8955
17738TIP3   OH274704   1.863   6.303  13.377  0.2800  0.2120  0.0014
17738TIP3    H174705   1.944   6.349  13.397 -0.5861  1.3665  0.9045
17738TIP3    H274706   1.862   6.298  13.281  1.5611 -0.0902 -0.0079
17739TIP3   OH274707   6.323   1.319  13.262 -0.1405 -0.2108  0.1630
17739TIP3    H174708   6.247   1.260  13.268 -1.1050  0.9550 -0.3945
17739TIP3    H274709   6.322   1.349  13.171 -1.0499  2.4673  1.0083
17740TIP3   OH274710   2.618   3.239  15.946 -0.3235 -0.6927  0.1578
17740TIP3    H174711   2.539   3.209  15.993 -0.2104 -2.1513 -0.5606
17740TIP3    H274712   2.587   3.310  15.890 -0.1231  2.4179  3.7908
17741TIP3   OH274713   3.005   1.239   2.816  0.0435  0.7043 -0.1068
17741TIP3    H174714   3.081   1.292   2.840  0.7289  0.3022 -1.3769
17741TIP3    H274715   2.979   1.196   2.897 -0.2055  2.5744  0.8359
17742TIP3   OH274716   5.468   2.364  13.820  0.2143  0.6358 -0.1660
17742TIP3    H174717   5.526   2.287  13.814 -0.9022 -0.1611 -0.9668
17742TIP3    H274718   5.380   2.327  13.829 -0.2067  1.8405  0.8398
17743TIP3   OH274719   2.931   4.538   5.914 -0.1085  0.0354  0.3585
17743TIP3    H174720   2.977   4.574   5.990 -0.2488 -0.7370  0.8120
17743TIP3    H274721   2.967   4.450   5.904  1.2945  0.8038 -1.6357
17744TIP3   OH274722   4.533   2.244   0.052  0.0095  0.3929 -0.8251
17744TIP3    H174723   4.437   2.237   0.050 -0.0141 -0.4741  1.8880
17744TIP3    H274724   4.551   2.312   0.117  1.2611 -0.3051 -0.4359
17745TIP3   OH274725   1.586   4.385  13.617 -0.4956  0.1780  0.3212
17745TIP3    H174726   1.620   4.304  13.656  0.7210  1.5434  2.1271
17745TIP3    H274727   1.653   4.450  13.634 -1.4445  1.5683 -1.1926
17746TIP3   OH274728   4.767   5.596   2.967  0.7042  0.3644  0.1305
17746TIP3    H174729   4.833   5.615   3.034  1.3753 -0.0398 -0.4168
17746TIP3    H274730   4.722   5.518   3.000 -0.9231  1.8417  1.5370
17747TIP3   OH274731   4.305   3.755   0.786 -0.3866 -0.0428 -0.4252
17747TIP3    H174732   4.242   3.692   0.752 -1.4847  0.2933  0.9688
17747TIP3    H274733   4.387   3.705   0.794 -0.8966 -0.9203 -0.6249
17748TIP3   OH274734   0.381   4.519   3.707 -0.1627 -0.3730 -0.1586
17748TIP3    H174735   0.322   4.489   3.638 -0.7999 -0.2081  0.3010
17748TIP3    H274736   0.443   4.447   3.718 -1.3821 -1.3438  0.5972
17749TIP3   OH274737   1.004   5.110  13.500  0.2568 -0.6992  0.3884
17749TIP3    H174738   0.990   5.181  13.437 -1.7314 -2.9900 -1.8797
17749TIP3    H274739   1.079   5.061  13.465 -0.5798 -1.7259 -0.0069
17750TIP3   OH274740   1.400   1.263  14.199  0.1298 -0.2902  0.1551
17750TIP3    H174741   1.381   1.198  14.131 -0.6473  1.3272 -1.2162
17750TIP3    H274742   1.323   1.260  14.257 -0.1316 -0.2439 -0.1879
17751TIP3   OH274743   3.586   6.039  12.122  0.4694  0.2020 -0.6624
17751TIP3    H174744   3.547   6.035  12.034  0.1365 -1.5405 -0.4460
17751TIP3    H274745   3.526   5.990  12.177  0.3402  1.8453  0.7023
17752TIP3   OH274746   3.003   1.815   3.874 -0.3985  0.4263 -0.5911
17752TIP3    H174747   3.080   1.830   3.928 -1.1167  1.3936  0.1680
17752TIP3    H274748   3.026   1.739   3.820  0.4054 -0.4094  0.8970
17753TIP3   OH274749   3.502   2.902   0.019 -0.0993 -0.2564 -0.3489
17753TIP3    H174750   3.463   2.818   0.044  0.8213 -1.0684 -1.5706
17753TIP3    H274751   3.445   2.935  -0.051 -0.5510  0.2279  0.2354
17754TIP3   OH274752   1.038   3.446   1.565  0.1175 -0.1432  0.5076
17754TIP3    H174753   1.014   3.469   1.476  0.1894  1.2679  0.8476
17754TIP3    H274754   1.090   3.520   1.597 -0.1161 -0.5134  1.8012
17755TIP3   OH274755   1.196   0.037   0.935  0.2024  0.6701 -0.3970
17755TIP3    H174756   1.196  -0.041   0.992  0.2420  0.2200 -1.0044
17755TIP3    H274757   1.167   0.004   0.850 -1.4813  1.6383 -0.2265
17756TIP3   OH274758   5.307   5.151   2.684 -0.2737  0.1877 -0.1043
17756TIP3    H174759   5.269   5.231   2.719  0.8515  0.1510  1.2262
17756TIP3    H274760   5.312   5.091   2.758 -2.0061 -1.4843 -1.2837
17757TIP3   OH274761   3.328   6.010  16.530 -0.7675  0.2749 -0.5139
17757TIP3    H174762   3.291   6.028  16.616 -2.2292 -0.4896 -0.9535
17757TIP3    H274763   3.265   5.950  16.489  1.0217 -1.1184 -1.2726
17758TIP3   OH274764   6.511   3.489  14.581 -0.2710  0.0896  0.0095
17758TIP3    H174765   6.586   3.537  14.545 -0.5881  0.0265 -0.7561
17758TIP3    H274766   6.441   3.554  14.588 -0.3445  0.0032  0.0899
17759TIP3   OH274767   2.174   0.157  15.764  0.2134 -0.1609  0.5752
17759TIP3    H174768   2.240   0.136  15.830 -1.5794 -0.2643  2.3613
17759TIP3    H274769   2.150   0.248  15.781 -0.9383 -0.4732  0.7021
17760TIP3   OH274770   4.941   4.260  12.877 -0.4153  0.2580  0.6215
17760TIP3    H174771   4.977   4.171  12.877  0.5255  0.6393  1.1789
17760TIP3    H274772   5.015   4.316  12.853 -0.7808  0.9854  1.1970
17761TIP3   OH274773   3.693   6.285  16.290  0.0855 -0.0658  0.4834
17761TIP3    H174774   3.641   6.204  16.296  2.4191 -1.5476  1.3934
17761TIP3    H274775   3.727   6.285  16.201  0.0851 -0.0805  0.4834
17762TIP3   OH274776   0.150   6.539   2.115  0.0759  0.3608  0.6622
17762TIP3    H174777   0.200   6.578   2.187 -0.2409  0.1193  1.0125
17762TIP3    H274778   0.203   6.465   2.087  0.4361  0.7453  0.3273
17763TIP3   OH274779   2.726   2.143  16.505 -0.4273  0.1078  0.2262
17763TIP3    H174780   2.793   2.111  16.444 -0.6474  1.0010 -0.4952
17763TIP3    H274781   2.685   2.216  16.459 -0.0239  1.3426  1.7898
17764TIP3   OH274782   1.305   4.436  11.141  0.2421  0.2284  0.2174
17764TIP3    H174783   1.339   4.474  11.223  0.3086 -2.2291  1.3779
17764TIP3    H274784   1.331   4.498  11.073  0.4421  2.1829  2.0171
17765TIP3   OH274785   4.155   5.236  12.274 -0.0235  0.0171 -0.2339
17765TIP3    H174786   4.103   5.156  12.263 -2.1020  1.4990 -1.8613
17765TIP3    H274787   4.107   5.287  12.339 -0.9855  1.6308 -2.1248
17766TIP3   OH274788   6.790   2.266  13.424  0.4939 -0.9299  0.9247
17766TIP3    H174789   6.847   2.237  13.495  2.2549  0.4234  0.1153
17766TIP3    H274790   6.849   2.311  13.363 -1.4065  0.1935 -0.1276
17767TIP3   OH274791   3.652   4.910  12.624 -0.2695 -0.1785  0.2207
17767TIP3    H174792   3.701   4.958  12.690  1.5744 -0.8376 -0.6323
17767TIP3    H274793   3.594   4.976  12.585 -0.1712  0.5795  1.3443
17768TIP3   OH274794   5.645   6.017  13.353  0.2413  0.1510 -0.8383
17768TIP3    H174795   5.677   6.103  13.381 -1.2351  0.7709 -0.9755
17768TIP3    H274796   5.571   6.037  13.295  1.0718 -1.1854 -2.3882
17769TIP3   OH274797   2.510   6.439  12.137 -0.3267 -0.4227 -0.5566
17769TIP3    H174798   2.565   6.399  12.071 -0.4256  0.2203 -1.0329
17769TIP3    H274799   2.437   6.478  12.088  0.6372  1.7857 -0.2845
17770TIP3   OH274800   5.794   4.752   0.035 -0.0480  0.0177  0.5080
17770TIP3    H174801   5.783   4.671  -0.017 -0.3057  0.6020 -0.3621
17770TIP3    H274802   5.841   4.811  -0.024  0.7904  0.2597  1.4144
17771TIP3   OH274803   4.598   4.533   0.544  0.5222 -0.0848 -0.0686
17771TIP3    H174804   4.641   4.514   0.627  1.8284  3.4621  0.1568
17771TIP3    H274805   4.531   4.598   0.566  0.0195 -0.0734 -1.5917
17772TIP3   OH274806   4.058   2.105   2.445 -0.1325 -0.4691  0.1665
17772TIP3    H174807   4.005   2.168   2.493  0.1424  0.9973 -1.4236
17772TIP3    H274808   4.147   2.140   2.449  0.4244 -1.9401  1.2075
17773TIP3   OH274809   3.211   1.025   5.991 -0.1204  0.2768 -0.0574
17773TIP3    H174810   3.268   0.995   6.062  1.2407 -2.1903 -2.1181
17773TIP3    H274811   3.169   1.104   6.026  0.6233 -0.7789  3.4098
17774TIP3   OH274812   3.705   0.157  16.080 -0.2807  0.0739  0.3444
17774TIP3    H174813   3.757   0.078  16.069  1.1360  1.0720 -0.3015
17774TIP3    H274814   3.760   0.227  16.046 -1.5596  1.3298  0.7906
17775TIP3   OH274815   2.043   0.216   6.143  0.3710  0.3904 -0.5832
17775TIP3    H174816   2.098   0.278   6.192 -0.7481  1.7055 -0.9687
17775TIP3    H274817   1.965   0.206   6.197 -0.1672  0.5838 -1.3308
17776TIP3   OH274818   2.213   6.815   4.529 -0.1551  0.0733  0.2277
17776TIP3    H174819   2.273   6.767   4.472 -0.7756 -0.9809  0.4520
17776TIP3    H274820   2.250   6.903   4.534  2.4626 -1.0470  1.9147
17777TIP3   OH274821   0.779   5.577  12.244  0.3057 -0.1186  0.1226
17777TIP3    H174822   0.852   5.620  12.289  1.3328  0.3997 -1.9631
17777TIP3    H274823   0.780   5.487  12.275  2.4758 -0.3677 -0.5939
17778TIP3   OH274824   6.709   2.401   3.643  0.2206 -0.0563 -0.3124
17778TIP3    H174825   6.625   2.374   3.607  0.0191  0.4369 -0.2148
17778TIP3    H274826   6.694   2.490   3.675  0.8475  0.1280 -0.5247
17779TIP3   OH274827   0.781   0.038   5.301 -0.1507  0.0516  0.0387
17779TIP3    H174828   0.853   0.089   5.265  0.5095 -1.2578 -0.5641
17779TIP3    H274829   0.822  -0.017   5.368 -0.5273 -0.8519 -0.4530
17780TIP3   OH274830   4.529   1.635  15.201 -0.1571 -0.4810 -0.0803
17780TIP3    H174831   4.552   1.678  15.284  0.7437 -1.1381  0.0092
17780TIP3    H274832   4.571   1.689  15.134  2.3306 -2.0910  0.1239
17781TIP3   OH274833   0.828   5.576   3.475  0.1377 -0.6382  0.3153
17781TIP3    H174834   0.786   5.522   3.541 -0.6591  0.4346  0.6921
17781TIP3    H274835   0.918   5.587   3.506 -0.5974  0.9899  1.9155
17782TIP3   OH274836   0.696   5.687   0.598  0.3538 -0.0401  0.2944
17782TIP3    H174837   0.699   5.783   0.605  2.5777 -0.0728  0.0224
17782TIP3    H274838   0.638   5.671   0.523  1.0266  1.1584 -0.5053
17783TIP3   OH274839   0.984   4.703  14.562 -0.3110 -0.4084 -0.0249
17783TIP3    H174840   0.889   4.706  14.553 -0.4422 -0.5111  1.1713
17783TIP3    H274841   1.017   4.716  14.474 -1.4186  0.6297 -0.3003
17784TIP3   OH274842   4.988   1.844  13.175  0.4200  0.4413  0.2501
17784TIP3    H174843   5.052   1.874  13.110 -0.0906  0.5369 -0.2108
17784TIP3    H274844   4.940   1.923  13.199 -0.3855  0.1392 -0.3605
17785TIP3   OH274845   3.076   6.707  11.612 -0.2106 -0.5406  0.5800
17785TIP3    H174846   3.121   6.684  11.693  0.5788  0.1406  0.3334
17785TIP3    H274847   3.089   6.801  11.602 -0.8227 -0.5094 -0.0258
17786TIP3   OH274848   2.533   6.663  12.312 -0.2289  0.5659  0.1025
17786TIP3    H174849   2.550   6.737  12.253  0.2974  0.7326  0.4584
17786TIP3    H274850   2.507   6.592  12.254 -2.1068  1.4140 -0.1393
17787TIP3   OH274851   0.461   3.252  16.697  0.2642 -0.0416 -0.0103
17787TIP3    H174852   0.525   3.274  16.765 -0.8294  0.5615  0.8418
17787TIP3    H274853   0.414   3.176  16.732  2.6689 -2.5683 -2.0680
17788TIP3   OH274854   0.069   4.986  13.678  0.8318  0.2433 -0.0169
17788TIP3    H174855   0.090   5.079  13.675  3.3008 -0.2546  0.8025
17788TIP3    H274856   0.121   4.951  13.750 -0.2039 -1.7409 -0.1890
17789TIP3   OH274857   6.160   4.306  13.805  0.0602  0.9076  0.6794
17789TIP3    H174858   6.197   4.389  13.776 -2.0926  1.0479 -1.8613
17789TIP3    H274859   6.227   4.241  13.785  0.9189  1.7429  0.7900
17790TIP3   OH274860   3.247   6.299   2.284  0.8875  0.6238  0.1405
17790TIP3    H174861   3.182   6.232   2.304  1.3447  0.5371  1.3646
17790TIP3    H274862   3.311   6.293   2.355  2.8021  0.0185 -1.5659
17791TIP3   OH274863   5.448   5.598  14.695  0.1836  0.7141 -0.3568
17791TIP3    H174864   5.442   5.629  14.785 -1.9873  1.1026 -0.6008
17791TIP3    H274865   5.464   5.504  14.704 -2.1958  0.3614  0.4756
17792TIP3   OH274866   4.594   3.415   3.840  0.5984 -0.0228 -0.6351
17792TIP3    H174867   4.521   3.352   3.848  0.4125  0.4147  1.6720
17792TIP3    H274868   4.558   3.486   3.787  0.0635 -0.8160 -1.3588
17793TIP3   OH274869   0.989   0.102   4.185 -0.0180  0.0139 -0.0293
17793TIP3    H174870   1.042   0.056   4.119 -1.1833 -0.7203 -0.4667
17793TIP3    H274871   0.919   0.041   4.205 -0.0178  0.4970  1.4507
17794TIP3   OH274872   4.323   1.368   4.221 -0.5060 -0.4806  0.0566
17794TIP3    H174873   4.228   1.374   4.228 -0.7324 -0.9543 -2.2376
17794TIP3    H274874   4.350   1.454   4.189 -0.0911 -0.1440  1.2982
17795TIP3   OH274875   3.354   3.138   0.143  0.0265 -0.2527 -0.2167
17795TIP3    H174876   3.338   3.161   0.051  1.5782 -0.1789 -0.4889
17795TIP3    H274877   3.400   3.054   0.139  1.4456  0.4825  0.4169
17796TIP3   OH274878   0.670   4.795   6.195 -0.0451 -0.0554 -0.0744
17796TIP3    H174879   0.750   4.753   6.163 -0.7390 -0.5445 -1.2095
17796TIP3    H274880   0.655   4.758   6.281  0.4208 -0.6914 -0.2637
17797TIP3   OH274881   3.410   1.917   2.182 -0.6245  0.4561 -1.0675
17797TIP3    H174882   3.362   1.998   2.195 -0.5627  0.4254 -0.6363
17797TIP3    H274883   3.373   1.879   2.102 -1.8639  0.0436 -0.3185
17798TIP3   OH274884   5.822   0.329   4.798  0.1863  0.1483 -0.7927
17798TIP3    H174885   5.750   0.266   4.797  0.9394 -0.7092 -2.8514
17798TIP3    H274886   5.891   0.286   4.848 -0.2482  0.4475  0.0799
17799TIP3   OH274887   2.542   0.932   3.922  0.1497 -0.2226  0.4392
17799TIP3    H174888   2.631   0.961   3.902 -0.2107 -0.9696 -2.4496
17799TIP3    H274889   2.491   1.013   3.927  0.3737  0.0348 -1.1758
17800TIP3   OH274890   4.562   0.957  14.857 -0.6546  0.6743 -0.1301
17800TIP3    H174891   4.650   0.953  14.819 -1.5802 -0.2165 -2.2522
17800TIP3    H274892   4.556   0.879  14.912 -0.5744  0.0163 -1.0423
17801TIP3   OH274893   6.233   0.921   4.493 -0.1671 -0.4294 -0.1702
17801TIP3    H174894   6.230   0.970   4.410 -0.0574  0.0748  0.1215
17801TIP3    H274895   6.250   0.831   4.467  0.1936 -0.2164 -0.6811
17802TIP3   OH274896   2.389   6.645   1.525 -0.0983  0.3028  0.2213
17802TIP3    H174897   2.392   6.701   1.602  1.1161 -0.0393  0.4348
17802TIP3    H274898   2.344   6.697   1.459  0.6722  1.3822  0.5340
17803TIP3   OH274899   0.075   2.191   1.448 -0.1037 -0.3234  0.2626
17803TIP3    H174900  -0.011   2.230   1.462 -0.3396 -0.1798 -1.4261
17803TIP3    H274901   0.062   2.097   1.464 -0.6712 -0.3470 -0.3120
17804TIP3   OH274902   3.675   0.783   1.830 -0.2930 -0.5328 -0.3715
17804TIP3    H174903   3.754   0.830   1.803 -0.1573  0.7115  2.0313
17804TIP3    H274904   3.665   0.805   1.923 -1.7190 -3.1748  0.1465
17805TIP3   OH274905   4.088   5.797   1.272 -0.2509  0.1835  0.1936
17805TIP3    H174906   4.104   5.882   1.232  0.4278  0.7185  1.5691
17805TIP3    H274907   4.137   5.799   1.354 -1.6571 -0.8655  1.0905
17806TIP3   OH274908   1.615   3.477   1.852 -0.3714 -0.2293  0.0995
17806TIP3    H174909   1.691   3.500   1.905  0.2713 -1.9502 -0.0483
17806TIP3    H274910   1.585   3.393   1.887  1.7638 -2.8614 -3.9917
17807TIP3   OH274911   0.923   6.506   6.295 -0.2108  0.1637  0.0323
17807TIP3    H174912   0.950   6.430   6.244 -3.2685 -0.7652 -0.3546
17807TIP3    H274913   0.881   6.469   6.373 -1.5405  1.4091 -0.0477
17808TIP3   OH274914   0.971   2.757   2.001 -0.2644 -0.0513  0.0324
17808TIP3    H174915   0.896   2.757   2.059 -0.4345  0.7811 -0.1867
17808TIP3    H274916   0.980   2.666   1.973 -2.4738  0.2083 -1.5998
17809TIP3   OH274917   2.419   6.475  13.164  0.3677 -0.1449 -0.3170
17809TIP3    H174918   2.489   6.495  13.227  0.9048  0.5530 -1.1215
17809TIP3    H274919   2.428   6.382  13.146  1.4390  0.0487 -0.8180
17810TIP3   OH274920   5.420   5.585  16.104  0.7933  0.4429 -0.1838
17810TIP3    H174921   5.494   5.621  16.056  2.1044 -1.7011  0.1613
17810TIP3    H274922   5.364   5.546  16.037  1.1761 -0.0097 -0.2454
17811TIP3   OH274923   2.434   3.267  16.405 -0.1222 -0.0900 -0.5533
17811TIP3    H174924   2.395   3.318  16.477  0.4879 -1.1729  0.5706
17811TIP3    H274925   2.421   3.176  16.431 -0.1516 -0.4962 -1.9776
17812TIP3   OH274926   1.075   6.525  15.061 -0.2226 -0.3485  0.1813
17812TIP3    H174927   1.088   6.576  14.981  2.8042 -2.3319 -0.7144
17812TIP3    H274928   0.981   6.529  15.077 -0.3879  3.4750 -1.1520
17813TIP3   OH274929   5.791   2.472   3.273  1.0492 -0.0160 -0.1667
17813TIP3    H174930   5.709   2.436   3.239  1.4510  0.8201 -2.0727
17813TIP3    H274931   5.765   2.552   3.318  0.6722 -0.4776  0.4601
17814TIP3   OH274932   4.641   4.143   4.016 -0.6246 -0.2060  0.1886
17814TIP3    H174933   4.598   4.092   3.947  0.0298  0.0277 -0.4016
17814TIP3    H274934   4.731   4.109   4.019 -0.2172  0.8309 -0.1328
17815TIP3   OH274935   3.031   3.227  12.991 -0.6003  0.4486 -0.0604
17815TIP3    H174936   3.000   3.245  13.079  1.5049  0.5379  0.6899
17815TIP3    H274937   3.017   3.309  12.943 -2.7826  0.0530 -0.1343
17816TIP3   OH274938   4.865   3.798  17.020 -0.0694 -0.1537  0.2167
17816TIP3    H174939   4.889   3.764  16.934 -0.2191 -1.4393  0.6599
17816TIP3    H274940   4.772   3.776  17.030 -0.1855  0.4437  0.4990
17817TIP3   OH274941   3.192   2.471   1.415 -0.1688 -0.0733  0.2107
17817TIP3    H174942   3.172   2.540   1.351 -0.3321 -1.2610 -1.0352
17817TIP3    H274943   3.228   2.400   1.363 -0.6781 -1.2096  1.3917
17818TIP3   OH274944   4.800   4.977  14.892  0.3750  0.2424 -0.9038
17818TIP3    H174945   4.740   5.045  14.858 -1.5216 -1.1605 -0.4504
17818TIP3    H274946   4.845   4.945  14.814  0.2259  1.0024 -1.3135
17819TIP3   OH274947   5.567   3.151   1.228  0.0268 -0.3315 -0.2428
17819TIP3    H174948   5.652   3.137   1.185  0.4943 -1.4397  1.0138
17819TIP3    H274949   5.528   3.063   1.231 -0.6919  0.0042  0.1735
17820TIP3   OH274950   2.589   3.080   5.415  0.0124 -0.3411 -0.7368
17820TIP3    H174951   2.539   3.158   5.392 -3.4628 -2.3127 -0.2142
17820TIP3    H274952   2.610   3.091   5.508 -0.8636 -0.2319 -0.5502
17821TIP3   OH274953   5.646   0.835  11.606 -0.4749  0.7468  0.2303
17821TIP3    H174954   5.605   0.756  11.643  0.3011 -0.1681 -0.8162
17821TIP3    H274955   5.676   0.884  11.683  0.5636 -0.8234  0.8537
17822TIP3   OH274956   0.515   2.731  12.353 -0.0183  0.4343 -0.3178
17822TIP3    H174957   0.551   2.670  12.288 -1.2760 -0.8228  0.1245
17822TIP3    H274958   0.570   2.718  12.430 -0.5924 -0.5422 -0.0578
17823TIP3   OH274959   4.651   6.422   3.619 -0.0418  0.2520 -0.1238
17823TIP3    H174960   4.591   6.404   3.691 -0.4970  2.4027  0.0693
17823TIP3    H274961   4.697   6.502   3.646  0.5319  0.4885 -1.7518
17824TIP3   OH274962   2.619   4.076   2.640  0.0060 -0.2256  0.0300
17824TIP3    H174963   2.568   3.997   2.623  0.3570 -0.9414  2.1684
17824TIP3    H274964   2.684   4.049   2.704  0.7428  1.5807  0.0646
17825TIP3   OH274965   4.874   6.315  13.229 -0.4619 -0.1263 -0.2779
17825TIP3    H174966   4.809   6.279  13.289 -0.0074 -1.2995 -0.4899
17825TIP3    H274967   4.837   6.399  13.202 -0.1140  1.0094  2.5828
17826TIP3   OH274968   4.583   0.971   5.929 -0.1612 -0.1219  0.1412
17826TIP3    H174969   4.626   1.056   5.930 -1.5386  0.5821  0.4978
17826TIP3    H274970   4.613   0.928   6.010  1.0913 -0.2745 -0.3939
17827TIP3   OH274971   2.348   1.486  15.313  0.1644 -0.2542 -0.0211
17827TIP3    H174972   2.412   1.431  15.268 -0.2907  0.3974 -1.5011
17827TIP3    H274973   2.356   1.462  15.405  0.2922 -2.4687 -0.5800
17828TIP3   OH274974   1.580   2.647  13.254 -0.2790 -0.4253 -0.0916
17828TIP3    H174975   1.523   2.572  13.271 -0.2813 -0.3246  0.3521
17828TIP3    H274976   1.663   2.624  13.296  0.1523 -0.7715 -1.1392
17829TIP3   OH274977   5.784   5.325  17.062  0.2532  0.0750 -0.1004
17829TIP3    H174978   5.704   5.377  17.062 -0.3480 -0.8342 -0.5639
17829TIP3    H274979   5.780   5.274  17.143 -1.0175 -2.0398 -1.4676
17830TIP3   OH274980   4.273   5.232   4.181  0.0315 -0.1531  0.2781
17830TIP3    H174981   4.259   5.162   4.245 -0.2801  0.2312  0.6291
17830TIP3    H274982   4.205   5.296   4.200  0.1301  0.1064 -0.2393
17831TIP3   OH274983   3.146   0.922  13.923 -0.0411 -0.0152  0.0376
17831TIP3    H174984   3.178   0.978  13.851  1.2790 -1.7918 -0.7984
17831TIP3    H274985   3.061   0.890  13.893  0.7163 -1.1244 -0.9565
17832TIP3   OH274986   5.830   1.181  15.699  0.0131 -0.2346  0.1301
17832TIP3    H174987   5.872   1.139  15.624 -0.2517 -0.1717 -0.0545
17832TIP3    H274988   5.873   1.266  15.706 -1.1589  0.4760 -1.0339
17833TIP3   OH274989   3.442   4.467   3.268 -0.1355 -0.0874  0.3599
17833TIP3    H174990   3.390   4.489   3.346 -0.5504  0.3417 -0.0341
17833TIP3    H274991   3.409   4.383   3.239 -1.6866  0.9045 -0.7978
17834TIP3   OH274992   4.637   6.068  11.470 -0.1515  0.4239  0.1830
17834TIP3    H174993   4.669   5.995  11.524  0.9533 -0.1654 -1.2348
17834TIP3    H274994   4.645   6.145  11.527  3.1210  0.1633  0.1708
17835TIP3   OH274995   0.887   2.825  15.432 -0.2717 -0.4978  0.2422
17835TIP3    H174996   0.873   2.749  15.376  0.9622 -1.1901  0.8458
17835TIP3    H274997   0.967   2.865  15.397 -1.1169  0.7279 -0.2970
17836TIP3   OH274998   0.399   1.998  13.706 -0.6321  0.3029 -0.2097
17836TIP3    H174999   0.408   2.090  13.682 -2.4938  0.6875  0.4511
17836TIP3    H275000   0.443   1.991  13.790 -0.4654  0.5836 -0.2731
17837TIP3   OH275001   0.049   0.204   5.846  0.1737  0.2004  0.1093
17837TIP3    H175002   0.082   0.281   5.799  1.2426  0.3046  1.0073
17837TIP3    H275003  -0.041   0.226   5.869 -0.2275  0.3207 -1.4895
17838TIP3   OH275004   4.352   1.076  11.080 -0.4022  0.5405 -0.3939
17838TIP3    H175005   4.439   1.094  11.117  0.6780 -2.3681 -1.3011
17838TIP3    H275006   4.343   1.139  11.008  0.1843  2.0448  0.8271
17839TIP3   OH275007   1.097   3.539  11.230 -0.0146  0.3664 -0.1024
17839TIP3    H175008   1.017   3.488  11.241 -1.1832  1.8120 -1.7213
17839TIP3    H275009   1.132   3.548  11.318 -1.5430 -0.4180  0.5983
17840TIP3   OH275010   2.088   0.576  12.548 -1.2526  0.6806  0.1971
17840TIP3    H175011   2.063   0.504  12.606 -0.4630  0.2848  0.0634
17840TIP3    H275012   2.088   0.653  12.604  1.4603 -0.0120  1.2366
17841TIP3   OH275013   4.144   2.159   6.640 -0.3850  0.3082 -0.2857
17841TIP3    H175014   4.155   2.084   6.698 -0.1183 -0.6453 -1.5317
17841TIP3    H275015   4.213   2.220   6.666 -0.2163 -0.1447  0.3389
17842TIP3   OH275016   3.018   6.741  12.278 -0.5569  0.5909  0.2417
17842TIP3    H175017   3.039   6.675  12.344 -0.3827  0.4565  0.0523
17842TIP3    H275018   3.024   6.825  12.325 -1.2204  0.4413  0.5912
17843TIP3   OH275019   2.533   4.525  13.990  0.4319  0.4777 -0.2221
17843TIP3    H175020   2.516   4.604  14.041 -1.4357  0.4043 -0.7081
17843TIP3    H275021   2.451   4.476  13.994  1.3425 -1.0842 -0.5438
17844TIP3   OH275022   6.219   3.271   0.388 -0.0983  0.0721 -0.0823
17844TIP3    H175023   6.168   3.267   0.469 -1.2281 -0.0853 -0.8022
17844TIP3    H275024   6.155   3.290   0.320  0.6400 -1.1668 -1.1398
17845TIP3   OH275025   5.170   1.815   3.771  0.0526  1.0353 -0.0774
17845TIP3    H175026   5.217   1.891   3.737 -1.7636  2.6295  0.8828
17845TIP3    H275027   5.092   1.808   3.715  0.4302 -0.3790 -0.4296
17846TIP3   OH275028   6.322   6.536  14.082 -0.0584  0.0464  0.1874
17846TIP3    H175029   6.276   6.457  14.111 -0.3500 -0.4195 -1.4598
17846TIP3    H275030   6.343   6.519  13.990 -0.5795  2.0889 -0.3430
17847TIP3   OH275031   1.813   2.791  13.607  0.4359 -0.4808 -0.2961
17847TIP3    H175032   1.814   2.701  13.642  0.1866 -0.0526  0.8428
17847TIP3    H275033   1.831   2.781  13.514 -0.2430 -1.7724 -0.2967
17848TIP3   OH275034   3.143   6.447   0.562 -0.1652  0.0429  0.1685
17848TIP3    H175035   3.127   6.446   0.656 -0.5228 -0.4844  0.1092
17848TIP3    H275036   3.082   6.513   0.528 -0.3805 -0.1105  0.2529
17849TIP3   OH275037   3.989   3.948  13.361 -0.2450  0.5299  0.2677
17849TIP3    H175038   4.015   3.941  13.453 -1.8620  1.0551  0.7873
17849TIP3    H275039   3.973   3.858  13.334  0.0267  0.3905  0.5616
17850TIP3   OH275040   5.243   4.169  12.326 -0.8145 -0.1263 -0.3082
17850TIP3    H175041   5.286   4.252  12.307 -0.3177 -0.2862  0.0919
17850TIP3    H275042   5.293   4.104  12.277 -2.1817  0.0107 -1.8988
17851TIP3   OH275043   0.032   0.596  14.617  0.3694 -0.6202  0.0069
17851TIP3    H175044   0.074   0.673  14.655  0.0636 -1.0646  1.2738
17851TIP3    H275045   0.066   0.592  14.527  0.4086  0.9574 -0.0558
17852TIP3   OH275046   1.687   6.539   3.929 -0.3117 -0.3092  0.0933
17852TIP3    H175047   1.694   6.483   3.851 -1.0786  0.2006 -0.3548
17852TIP3    H275048   1.763   6.596   3.924 -1.2619  0.9097 -1.2663
17853TIP3   OH275049   2.861   4.953   4.984 -0.0279  0.2520 -0.0797
17853TIP3    H175050   2.862   5.000   4.900  0.8925 -1.7855 -1.2638
17853TIP3    H275051   2.954   4.938   5.004 -0.2887 -0.8565  0.3608
17854TIP3   OH275052   2.275   5.907   5.550  0.5138 -0.2923 -0.1793
17854TIP3    H175053   2.318   5.888   5.633  0.4305  1.9478  0.3984
17854TIP3    H275054   2.186   5.932   5.574  0.9180  1.8008 -0.8255
17855TIP3   OH275055   3.049   2.099   5.323  0.1509 -0.2317  0.5605
17855TIP3    H175056   3.111   2.137   5.385  0.1309 -0.2171  0.5720
17855TIP3    H275057   3.034   2.010   5.355  0.9524 -0.5848 -0.0103
17856TIP3   OH275058   2.740   5.619  13.855  0.6741 -0.4437 -0.6146
17856TIP3    H175059   2.757   5.712  13.837  0.4678 -0.4676 -0.9533
17856TIP3    H275060   2.812   5.573  13.811  1.8712 -0.3519  1.1971
17857TIP3   OH275061   1.157   2.260   1.077  0.0726 -0.4258  0.0543
17857TIP3    H175062   1.065   2.233   1.075  0.7670 -2.9472  0.2107
17857TIP3    H275063   1.179   2.265   1.170  0.5264 -1.4700  0.0132
17858TIP3   OH275064   6.612   1.612   4.763  0.6285  0.0391 -0.7975
17858TIP3    H175065   6.658   1.681   4.716  1.8668 -0.4538 -0.3213
17858TIP3    H275066   6.669   1.536   4.757 -0.1978 -0.6276 -0.3358
17859TIP3   OH275067   6.649   4.435  16.037  0.1140 -0.1540  0.2285
17859TIP3    H175068   6.684   4.521  16.012 -0.9937  0.1359 -0.3571
17859TIP3    H275069   6.631   4.444  16.131 -1.1488  0.6847 -0.0667
17860TIP3   OH275070   3.417   4.587  14.930  0.3304 -0.5810  0.1211
17860TIP3    H175071   3.503   4.602  14.969 -0.6872  1.5507  1.6444
17860TIP3    H275072   3.410   4.652  14.860  0.1950 -1.1576 -0.4060
17861TIP3   OH275073   0.710   6.459  11.654 -0.3289 -0.3169  0.0577
17861TIP3    H175074   0.773   6.531  11.653 -1.4471  0.6750 -0.3964
17861TIP3    H275075   0.694   6.441  11.746  2.1955 -2.0165  0.2357
17862TIP3   OH275076   3.231   1.351   2.928 -0.3199 -0.4584  0.0241
17862TIP3    H175077   3.252   1.399   3.007 -0.8145 -1.0165  0.5032
17862TIP3    H275078   3.294   1.278   2.927  0.1836 -0.0200 -0.5001
17863TIP3   OH275079   4.630   4.780   4.598 -0.4228 -0.8451 -0.4571
17863TIP3    H175080   4.653   4.873   4.599 -0.3942 -0.8515  0.6393
17863TIP3    H275081   4.661   4.747   4.682  0.9853 -2.2085 -1.4923
17864TIP3   OH275082   5.414   5.634   5.404  0.1922 -0.2974 -0.4422
17864TIP3    H175083   5.493   5.673   5.368 -0.9691  1.8067 -0.8191
17864TIP3    H275084   5.350   5.638   5.333 -0.7498 -0.3731  0.3824
17865TIP3   OH275085   4.755   3.912  10.912  0.5387  0.1207  0.3366
17865TIP3    H175086   4.692   3.853  10.953  0.1228 -0.3930 -1.0181
17865TIP3    H275087   4.781   3.867  10.831  0.2803  1.7448 -0.6681
17866TIP3   OH275088   1.956   4.314  12.057  0.1397 -0.0541 -0.1092
17866TIP3    H175089   1.884   4.285  12.001  0.5334 -1.8572  0.2976
17866TIP3    H275090   2.028   4.330  11.996  0.6809 -2.3623 -0.1388
17867TIP3   OH275091   5.453   4.706  12.665  0.4064  0.8383  0.2339
17867TIP3    H175092   5.445   4.622  12.710  0.7827  1.4646  1.5133
17867TIP3    H275093   5.383   4.705  12.600  0.3579 -0.4304  0.2845
17868TIP3   OH275094   0.758   1.418  10.821 -0.2081  0.2485  0.4055
17868TIP3    H175095   0.719   1.390  10.904 -0.2792  0.2574  0.3767
17868TIP3    H275096   0.848   1.443  10.843 -0.4023  0.8066  0.5921
17869TIP3   OH275097   3.873   1.389  16.123  0.3315 -0.4408 -0.6566
17869TIP3    H175098   3.936   1.325  16.092  2.6944  1.7070 -0.4228
17869TIP3    H275099   3.843   1.354  16.207  0.3372 -2.0307 -1.2961
17870TIP3   OH275100   3.296   5.519  15.418 -0.0418 -0.4115 -0.7901
17870TIP3    H175101   3.313   5.450  15.354  1.3091  0.9697 -1.9651
17870TIP3    H275102   3.201   5.533  15.414 -0.1024 -1.0741 -1.7305
17871TIP3   OH275103   0.373   3.866  15.544  0.0026 -0.0616  0.5354
17871TIP3    H175104   0.280   3.846  15.557  0.1034 -0.1175  1.1805
17871TIP3    H275105   0.388   3.848  15.451 -0.5578 -0.3530  0.4951
17872TIP3   OH275106   1.680   3.816  15.234 -0.3571  0.4609  0.0819
17872TIP3    H175107   1.603   3.760  15.243  0.7777 -1.0686  0.3924
17872TIP3    H275108   1.697   3.820  15.140  0.1475 -0.5279  0.1283
17873TIP3   OH275109   1.019   4.273  13.407  0.4497  0.1791  0.2248
17873TIP3    H175110   0.946   4.308  13.356  0.7165 -0.7148 -0.7927
17873TIP3    H275111   0.977   4.229  13.481 -0.1303 -1.4991 -1.0700
17874TIP3   OH275112   6.002   2.041   2.537 -0.0770 -0.4095 -0.4437
17874TIP3    H175113   6.081   2.052   2.590  0.4904 -1.9324 -0.9445
17874TIP3    H275114   5.938   2.003   2.597 -0.3515  0.5393 -0.1195
17875TIP3   OH275115   0.131   3.027  15.031 -0.1001  0.0993  0.3133
17875TIP3    H175116   0.159   2.950  14.983 -1.8882  0.1754 -0.9057
17875TIP3    H275117   0.209   3.083  15.035  0.8069 -1.1152 -0.0407
17876TIP3   OH275118   2.298   6.205   2.536 -0.0728 -0.1624  0.5049
17876TIP3    H175119   2.334   6.291   2.515 -0.6136 -1.0463 -4.9053
17876TIP3    H275120   2.375   6.153   2.560  0.7127  0.9360  0.4341
17877TIP3   OH275121   3.756   1.720   4.409 -0.4278  0.2528 -0.1281
17877TIP3    H175122   3.679   1.750   4.457 -0.4502 -0.1696  0.0959
17877TIP3    H275123   3.828   1.772   4.445 -0.2385 -0.9015  1.2183
17878TIP3   OH275124   4.269   1.271   4.501  0.2851  0.1550  0.6486
17878TIP3    H175125   4.186   1.303   4.537 -0.0101  1.2511 -0.9724
17878TIP3    H275126   4.329   1.344   4.511  0.4930  0.0874 -0.1126
17879TIP3   OH275127   6.078   5.340  12.808 -0.0914 -0.8426  0.2608
17879TIP3    H175128   6.162   5.377  12.782 -0.9283  1.5816  0.8828
17879TIP3    H275129   6.077   5.349  12.904 -1.1887 -0.6012  0.2281
17880TIP3   OH275130   4.963   5.483   5.092  0.0397 -0.4026  0.2540
17880TIP3    H175131   4.909   5.452   5.019  0.4583 -2.3730  0.7644
17880TIP3    H275132   4.908   5.548   5.136 -0.3478  0.5530 -1.5960
17881TIP3   OH275133   5.892   0.894   5.166 -0.3658 -0.5772 -0.2332
17881TIP3    H175134   5.821   0.839   5.134 -0.5843 -0.4769  0.0775
17881TIP3    H275135   5.948   0.834   5.216 -1.3136 -0.2580  1.2223
17882TIP3   OH275136   1.799   0.912   5.484 -0.2571 -0.0315 -0.1269
17882TIP3    H175137   1.808   0.817   5.485 -0.6840 -0.1054 -2.0028
17882TIP3    H275138   1.763   0.934   5.570  0.0028 -1.5293  0.3802
17883TIP3   OH275139   1.168   2.118   3.700  0.0022 -0.1205 -0.3766
17883TIP3    H175140   1.169   2.145   3.792  1.6118 -1.5997  0.0839
17883TIP3    H275141   1.102   2.049   3.696  0.5282 -0.6435 -0.1366
17884TIP3   OH275142   5.001   2.135  13.042 -0.2175 -0.0076 -0.2411
17884TIP3    H175143   5.048   2.212  13.075 -0.9724  0.8251 -1.0903
17884TIP3    H275144   4.933   2.119  13.107  0.3929 -0.4128  0.3102
17885TIP3   OH275145   5.751   2.745  12.343 -0.2613 -0.1214 -0.0921
17885TIP3    H175146   5.822   2.739  12.406 -0.5485 -2.9666  0.0264
17885TIP3    H275147   5.773   2.681  12.275 -2.9936 -1.6174  0.3243
17886TIP3   OH275148   1.324   5.489   1.828  0.2907  0.2752 -0.2601
17886TIP3    H175149   1.297   5.479   1.737  2.1234 -0.5193 -0.7480
17886TIP3    H275150   1.266   5.430   1.877  0.0579 -0.1691 -1.0606
17887TIP3   OH275151   4.265   0.866   0.227 -0.1227  0.4658  0.5463
17887TIP3    H175152   4.277   0.842   0.319 -2.6805 -1.2471  0.4787
17887TIP3    H275153   4.174   0.895   0.221  0.2030  1.1800 -1.3167
17888TIP3   OH275154   4.657   4.384  15.570  1.0774 -0.3177  0.1482
17888TIP3    H175155   4.671   4.337  15.653  2.0506  0.1085  0.2339
17888TIP3    H275156   4.739   4.431  15.555  0.4215  0.6914 -0.3638
17889TIP3   OH275157   3.251   5.036   2.719  0.0096 -0.4459 -0.6401
17889TIP3    H175158   3.269   4.991   2.802  0.9804 -1.2455 -1.2733
17889TIP3    H275159   3.310   5.112   2.720 -0.2769 -0.2269 -0.4106
17890TIP3   OH275160   0.147   3.242   1.284 -0.2917 -0.0060 -0.2386
17890TIP3    H175161   0.147   3.225   1.379 -0.3419  0.8796 -0.0827
17890TIP3    H275162   0.057   3.270   1.265 -0.6217 -1.3751 -0.7645
17891TIP3   OH275163   5.435   0.692  11.959 -0.4742 -0.0073  0.2413
17891TIP3    H175164   5.417   0.736  11.876 -2.4810 -0.1756  0.5734
17891TIP3    H275165   5.499   0.749  12.003  0.8148 -0.0579 -1.5030
17892TIP3   OH275166   3.543   2.201  12.624 -0.6092 -0.3996 -0.1470
17892TIP3    H175167   3.606   2.271  12.637 -1.3482  0.3933 -0.8181
17892TIP3    H275168   3.500   2.190  12.709  1.5205 -2.0315  0.7621
17893TIP3   OH275169   6.353   3.221   5.274  0.0556  0.4311 -0.3281
17893TIP3    H175170   6.275   3.167   5.288 -0.2776  0.5418 -1.7419
17893TIP3    H275171   6.350   3.244   5.181  0.1827  2.9088  0.2531
17894TIP3   OH275172   1.335   3.178   3.806  0.2033  0.5979  0.0132
17894TIP3    H175173   1.241   3.173   3.789  0.0161  1.3943  0.7671
17894TIP3    H275174   1.374   3.199   3.722 -0.1421 -1.1493 -0.6170
17895TIP3   OH275175   5.458   6.749  12.011  0.2006 -0.6507  0.0979
17895TIP3    H175176   5.497   6.702  12.086 -0.3394  0.5554  1.1549
17895TIP3    H275177   5.492   6.703  11.934 -0.5065 -2.9273  1.1008
17896TIP3   OH275178   4.908   0.857  13.987 -0.0834 -0.4177 -0.1252
17896TIP3    H175179   4.841   0.905  13.939 -0.4417 -0.4651  0.3272
17896TIP3    H275180   4.991   0.891  13.952 -0.3237 -1.7115 -2.0384
17897TIP3   OH275181   1.495   2.326  12.086  0.4234 -0.4138  0.3829
17897TIP3    H175182   1.442   2.363  12.157 -1.0726 -0.7924 -0.5242
17897TIP3    H275183   1.555   2.397  12.063 -1.1972  0.8462 -0.0951
17898TIP3   OH275184   1.368   3.422  15.733  0.0396  0.4592 -0.2643
17898TIP3    H175185   1.283   3.437  15.690  0.1772  1.5016 -0.1916
17898TIP3    H275186   1.360   3.335  15.771 -1.1329  0.6736  0.0233
17899TIP3   OH275187   3.052   5.750  13.937 -0.1279  0.2653 -0.4165
17899TIP3    H175188   3.007   5.759  13.853 -0.1899 -1.7068 -0.6168
17899TIP3    H275189   3.016   5.821  13.991  0.6361  2.1728 -2.3352
17900TIP3   OH275190   4.764   5.822  16.334  0.2711  0.2029 -0.2459
17900TIP3    H175191   4.841   5.813  16.278 -0.0190  1.6990 -0.8920
17900TIP3    H275192   4.796   5.863  16.414  0.7818 -2.3916  0.9557
17901TIP3   OH275193   3.223   4.934  13.820 -0.0914  0.2099  0.0163
17901TIP3    H175194   3.267   4.903  13.741  0.7807  1.9703 -0.2211
17901TIP3    H275195   3.141   4.971  13.789  0.4110  1.2239 -0.1200
17902TIP3   OH275196   5.615   6.380   3.797 -0.4370  0.0210 -0.1033
17902TIP3    H175197   5.647   6.292   3.817 -1.4276 -0.7843 -1.8982
17902TIP3    H275198   5.522   6.377   3.818 -0.7316  0.2558 -1.3565
17903TIP3   OH275199   0.088   4.690   0.622 -0.1684  0.3118 -0.0954
17903TIP3    H175200   0.115   4.781   0.615 -3.1069  1.3824  1.7943
17903TIP3    H275201   0.003   4.686   0.580  0.0265 -1.6545 -0.3913
17904TIP3   OH275202   5.877   1.928   2.757  0.2486 -0.4128  0.1123
17904TIP3    H175203   5.940   1.856   2.751 -0.9656 -1.5882  1.2119
17904TIP3    H275204   5.818   1.903   2.828 -0.2125  1.6705  0.5051
17905TIP3   OH275205   2.671   6.130   3.695  0.4716 -0.2786 -0.0655
17905TIP3    H175206   2.738   6.100   3.633  1.5872 -0.0240  0.9997
17905TIP3    H275207   2.617   6.053   3.711  1.8426 -1.0827  0.7632
17906TIP3   OH275208   4.445   3.150   5.322  0.3542  0.6767 -0.1874
17906TIP3    H175209   4.487   3.068   5.348  0.5724  1.0771  0.7129
17906TIP3    H275210   4.448   3.205   5.400  0.0823  1.4959 -0.7480
17907TIP3   OH275211   4.069   3.006  14.811 -0.1261  0.5285  0.4029
17907TIP3    H175212   4.011   3.069  14.768 -0.0099  0.8521  0.7201
17907TIP3    H275213   4.018   2.975  14.886 -0.5086 -0.3779 -0.2259
17908TIP3   OH275214   3.828   1.294  14.017 -0.3655  0.3855 -0.1621
17908TIP3    H175215   3.768   1.326  14.084 -0.8149  1.3524 -1.0068
17908TIP3    H275216   3.888   1.368  14.002 -0.3041  0.1973 -0.8522
17909TIP3   OH275217   3.696   6.687   0.327  0.1122 -0.3431  0.0927
17909TIP3    H175218   3.651   6.603   0.317 -1.0630  0.1029  1.4048
17909TIP3    H275219   3.653   6.745   0.264 -0.7684 -0.0817  0.9174
17910TIP3   OH275220   5.746   3.352   4.843 -0.9256 -0.1402 -0.0324
17910TIP3    H175221   5.826   3.390   4.808  0.5527 -2.3308  0.8959
17910TIP3    H275222   5.676   3.394   4.793  0.7598  2.1104 -0.5606
17911TIP3   OH275223   1.939   5.285  15.995  0.1621  0.2176 -0.9121
17911TIP3    H175224   1.949   5.204  15.944  1.1730  0.3369 -0.9260
17911TIP3    H275225   1.861   5.327  15.959 -0.4394 -0.8115 -0.8281
17912TIP3   OH275226   1.038   6.279  13.103 -0.5535 -0.1300 -0.1427
17912TIP3    H175227   0.978   6.205  13.094  1.3966 -1.9656  1.3480
17912TIP3    H275228   1.016   6.319  13.187  1.4154 -1.9002  1.2607
17913TIP3   OH275229   3.409   5.061  14.510  0.3398  0.2413  0.4725
17913TIP3    H175230   3.337   4.998  14.514 -0.0791  0.6376 -0.6084
17913TIP3    H275231   3.462   5.031  14.435 -0.0878  1.4081 -0.3048
17914TIP3   OH275232   1.378   4.899  12.644  0.4941 -0.5055 -0.2511
17914TIP3    H175233   1.449   4.870  12.702  0.9972  1.6252  0.2491
17914TIP3    H275234   1.308   4.926  12.704  1.5335  3.0255 -0.5092
17915TIP3   OH275235   4.958   5.735  14.371  0.2715  0.6981 -0.3257
17915TIP3    H175236   4.959   5.817  14.321 -1.9672  0.8006 -0.2383
17915TIP3    H275237   4.984   5.761  14.459  2.8373  0.7466 -1.0384
17916TIP3   OH275238   4.017   1.356   1.856  0.0324 -0.1428 -0.4906
17916TIP3    H175239   3.950   1.314   1.802 -1.1142  0.6091  0.3187
17916TIP3    H275240   4.076   1.398   1.793 -1.4957  1.0255 -1.1680
17917TIP3   OH275241   2.331   0.877  16.747  0.0362 -0.0473  0.2851
17917TIP3    H175242   2.349   0.889  16.653 -1.2721  0.9660  0.1514
17917TIP3    H275243   2.296   0.788  16.753  3.3738 -1.4206  0.3160
17918TIP3   OH275244   5.544   5.944  11.437 -0.5965  0.0396 -0.1774
17918TIP3    H175245   5.575   6.020  11.389  0.8600 -0.1908  0.3839
17918TIP3    H275246   5.450   5.960  11.449  0.0104  2.6031  1.4949
17919TIP3   OH275247   0.289   3.385   4.638  1.4361  0.0463 -0.5313
17919TIP3    H175248   0.322   3.474   4.628 -0.2669  0.9025  1.1925
17919TIP3    H275249   0.359   3.329   4.603  2.4384  2.0473 -1.7878
17920TIP3   OH275250   4.718   1.264  10.263 -0.1332  0.4189 -0.3427
17920TIP3    H175251   4.734   1.353  10.232  0.8000 -0.1079 -1.3822
17920TIP3    H275252   4.805   1.223  10.266 -0.5778 -0.5268 -0.0890
17921TIP3   OH275253   0.779   6.048  15.784 -0.2016 -0.3780  0.1995
17921TIP3    H175254   0.787   5.986  15.856 -0.5504 -0.4861  0.1457
17921TIP3    H275255   0.855   6.106  15.794  0.8672 -1.6285 -0.5300
17922TIP3   OH275256   4.846   3.186  15.517  0.0583 -0.0596 -0.3385
17922TIP3    H175257   4.815   3.271  15.488  0.1531 -0.1633 -0.7559
17922TIP3    H275258   4.855   3.135  15.436 -0.6267 -0.6727 -0.0350
17923TIP3   OH275259   3.776   3.686   2.192  0.3548  0.1550 -0.4329
17923TIP3    H175260   3.702   3.630   2.167  1.1507 -1.0182 -0.1667
17923TIP3    H275261   3.804   3.652   2.277  1.5033  0.2921 -0.7497
17924TIP3   OH275262   0.961   5.419   6.090  0.3519  0.0137  0.9833
17924TIP3    H175263   0.890   5.393   6.032  1.1406 -2.0014  0.8681
17924TIP3    H275264   0.939   5.380   6.174  0.9323  0.0374  1.1501
17925TIP3   OH275265   1.515   2.075  15.587  0.2198  0.1152 -0.1350
17925TIP3    H175266   1.509   2.019  15.510 -0.4059 -1.4613  1.0442
17925TIP3    H275267   1.605   2.109  15.586  0.0691  0.4769 -1.8018
17926TIP3   OH275268   1.090   3.592  13.839  0.0504  0.1462  0.5704
17926TIP3    H175269   1.015   3.537  13.862 -1.8008  2.2243 -0.2661
17926TIP3    H275270   1.164   3.550  13.882 -2.0716 -0.3298  3.9797
17927TIP3   OH275271   3.807   5.426  13.128 -0.0300 -0.5535  0.2399
17927TIP3    H175272   3.813   5.362  13.058 -0.4956 -2.6782  2.0745
17927TIP3    H275273   3.873   5.492  13.107  0.3301 -1.5347 -1.7776
17928TIP3   OH275274   0.766   4.107  14.554  0.1266  0.1332  0.2178
17928TIP3    H175275   0.712   4.032  14.580  1.8136 -1.8512 -1.7861
17928TIP3    H275276   0.718   4.183  14.585 -2.3836 -1.7069  0.9995
17929TIP3   OH275277   4.309   0.823   0.530 -0.3291 -0.3449 -0.8235
17929TIP3    H175278   4.293   0.737   0.568  1.3837 -0.2170  0.2809
17929TIP3    H275279   4.233   0.875   0.555 -0.5795 -1.0779 -0.0422
17930TIP3   OH275280   3.820   2.572   2.630  0.2111  0.3177  0.0445
17930TIP3    H175281   3.861   2.491   2.601 -0.4686  0.9883 -2.9859
17930TIP3    H275282   3.729   2.549   2.645  0.7059 -0.1802  2.3955
17931TIP3   OH275283   1.946   0.062   1.639 -0.0445  0.1154 -0.4801
17931TIP3    H175284   1.956   0.074   1.545  0.3729 -2.7908 -0.8525
17931TIP3    H275285   2.034   0.074   1.674  0.5658 -2.6339 -0.9698
17932TIP3   OH275286   1.134   1.301   0.290  0.6333  0.1256  0.1931
17932TIP3    H175287   1.191   1.250   0.347 -0.2248  0.7260  1.6165
17932TIP3    H275288   1.096   1.368   0.347 -1.7357 -0.4442 -0.6321
17933TIP3   OH275289   2.779   4.330   1.701  0.7250 -0.2267 -0.1567
17933TIP3    H175290   2.854   4.310   1.644  0.3508 -1.8354 -0.1132
17933TIP3    H275291   2.722   4.254   1.692 -1.8246  1.7942 -1.6762
17934TIP3   OH275292   6.577   2.691   2.031 -0.1210 -0.3188 -0.2073
17934TIP3    H175293   6.662   2.727   2.058  0.8535 -3.1884  0.7904
17934TIP3    H275294   6.597   2.600   2.009 -2.9503 -0.9990 -0.0378
17935TIP3   OH275295   4.209   0.034   3.470  0.0956  0.2121 -0.3176
17935TIP3    H175296   4.136   0.069   3.521 -0.0639 -0.7431  0.1335
17935TIP3    H275297   4.271   0.003   3.535  0.0696 -0.6616 -0.6922
17936TIP3   OH275298   5.045   1.341  10.921 -0.0902 -0.2951  0.0509
17936TIP3    H175299   5.075   1.432  10.924  0.2841 -0.4297  0.3667
17936TIP3    H275300   5.109   1.296  10.866  0.5697 -0.6878  1.1345
17937TIP3   OH275301   5.598   6.534   2.950  0.4288 -0.0705  0.3442
17937TIP3    H175302   5.508   6.564   2.933  0.6514  0.8047  0.6885
17937TIP3    H275303   5.653   6.606   2.919  1.0774 -1.1344 -1.0710
17938TIP3   OH275304   6.805   3.924   4.962 -0.2641  0.4857 -0.7940
17938TIP3    H175305   6.848   4.009   4.976  1.2419 -0.3955  0.0327
17938TIP3    H275306   6.720   3.947   4.925 -0.2920  2.4254  0.3764
17939TIP3   OH275307   3.753   4.285  16.920  0.0692  0.1200 -0.1462
17939TIP3    H175308   3.722   4.239  16.998 -0.8444 -3.9340 -2.7765
17939TIP3    H275309   3.674   4.319  16.879  0.1688 -0.7748 -1.1023
17940TIP3   OH275310   6.579   3.079  11.286 -0.5441  0.0432 -0.5016
17940TIP3    H175311   6.640   3.024  11.237  1.3038  0.7153  1.0026
17940TIP3    H275312   6.550   3.145  11.222 -1.4478 -1.5960 -1.8318
17941TIP3   OH275313   5.543   3.794   5.273 -0.4239  0.2872 -0.1135
17941TIP3    H175314   5.634   3.820   5.260  0.1486 -0.4750  2.2297
17941TIP3    H275315   5.493   3.866   5.234  1.1558  1.0528 -0.7968
17942TIP3   OH275316   4.291   0.445   4.467  0.0650  0.5208 -0.2377
17942TIP3    H175317   4.214   0.449   4.524 -1.9540  1.6849 -2.8748
17942TIP3    H275318   4.285   0.358   4.426  0.3396  0.4797 -0.1893
17943TIP3   OH275319   5.426   3.170  11.795 -0.1328  0.3606 -0.2258
17943TIP3    H175320   5.434   3.246  11.737 -1.7329 -0.8892 -2.1547
17943TIP3    H275321   5.453   3.096  11.741 -2.0151 -0.8817  0.4859
17944TIP3   OH275322   0.550   2.612   2.921  0.9501 -0.4920  0.0990
17944TIP3    H175323   0.528   2.537   2.867 -1.5475 -0.5548  1.1208
17944TIP3    H275324   0.466   2.640   2.959  2.1785  1.3623  1.5652
17945TIP3   OH275325   3.073   6.559  13.353  0.0495  0.8373  0.0604
17945TIP3    H175326   3.099   6.591  13.440 -0.1121 -1.3175  0.9580
17945TIP3    H275327   3.126   6.479  13.341 -0.1621  0.9418 -1.6960
17946TIP3   OH275328   0.586   0.350   2.750  0.4059  0.2159  0.5319
17946TIP3    H175329   0.642   0.378   2.677 -2.1231  1.4879 -0.9893
17946TIP3    H275330   0.631   0.381   2.828  2.4967  0.0259 -0.5414
17947TIP3   OH275331   0.360   4.762   0.470 -0.2612  0.1073  0.1397
17947TIP3    H175332   0.421   4.800   0.533 -0.2782 -0.7875  0.6910
17947TIP3    H275333   0.370   4.667   0.481 -1.4464 -0.0381 -0.0680
17948TIP3   OH275334   6.073   6.082  11.764 -0.2948 -0.7041 -0.5499
17948TIP3    H175335   6.068   6.129  11.681  1.1703 -2.6216 -1.7626
17948TIP3    H275336   6.124   6.139  11.821  0.2948 -0.2022 -1.5692
17949TIP3   OH275337   6.756   0.219  15.397 -0.4547  0.3333  0.0526
17949TIP3    H175338   6.791   0.294  15.446  1.8639 -0.5111 -0.2624
17949TIP3    H275339   6.804   0.144  15.431 -0.5729 -0.6031 -1.7829
17950TIP3   OH275340   5.060   0.017  11.814 -0.0852  0.4900 -0.5222
17950TIP3    H175341   5.048   0.086  11.750  0.6124  0.1498 -1.0186
17950TIP3    H275342   5.049   0.060  11.899  1.9823  1.5293 -0.7658
17951TIP3   OH275343   1.212   1.363   4.048  0.1795  1.1071  0.6327
17951TIP3    H175344   1.142   1.382   4.111 -0.9394  0.1590 -0.2923
17951TIP3    H275345   1.248   1.279   4.077 -1.1573  0.0630 -0.6746
17952TIP3   OH275346   6.809   4.230   1.724 -0.4830  0.4674  0.4115
17952TIP3    H175347   6.887   4.187   1.689 -0.9347 -0.7332  0.8348
17952TIP3    H275348   6.787   4.178   1.802 -0.2724  2.2822  1.7040
17953TIP3   OH275349   3.169   5.120   0.513 -0.1644 -0.2140 -0.6853
17953TIP3    H175350   3.091   5.174   0.504 -1.0371 -1.4216 -0.4674
17953TIP3    H275351   3.155   5.070   0.594  2.2419  1.8431  1.0801
17954TIP3   OH275352   5.940   3.104   3.904 -1.1621 -0.1749 -0.2525
17954TIP3    H175353   6.006   3.038   3.927 -2.8825 -2.8695 -2.7336
17954TIP3    H275354   5.980   3.154   3.832 -0.8545 -0.1712 -0.0798
17955TIP3   OH275355   4.959   2.811  16.276  0.4514 -0.0149 -0.3315
17955TIP3    H175356   5.045   2.786  16.311  0.9062  1.6489 -0.2156
17955TIP3    H275357   4.947   2.901  16.305 -1.3338 -0.2216 -0.3867
17956TIP3   OH275358   1.657   6.316  13.556  0.2226 -0.9699 -0.3610
17956TIP3    H175359   1.731   6.321  13.495  1.8676  0.7472  1.7245
17956TIP3    H275360   1.681   6.247  13.617 -0.7345 -1.6270 -0.7102
17957TIP3   OH275361   2.742   4.704  11.332 -0.2508 -0.4178  0.2726
17957TIP3    H175362   2.757   4.626  11.279 -1.4458 -1.3636  1.2675
17957TIP3    H275363   2.647   4.703  11.350 -0.4925  1.9094 -0.6639
17958TIP3   OH275364   4.219   2.161   3.827  0.1024  0.2186 -0.2121
17958TIP3    H175365   4.292   2.117   3.783 -0.7268 -0.8870 -0.4932
17958TIP3    H275366   4.243   2.160   3.920  0.0115 -0.9629 -0.1987
17959TIP3   OH275367   3.131   0.407   0.215 -0.4638  0.1452  0.1187
17959TIP3    H175368   3.165   0.392   0.126  0.4701 -0.8552  0.6282
17959TIP3    H275369   3.063   0.473   0.204  0.2724  0.7028 -1.2255
17960TIP3   OH275370   0.102   0.210   2.549 -0.1208  0.0817 -0.1335
17960TIP3    H175371   0.175   0.184   2.606 -0.7575  0.5265  0.9077
17960TIP3    H275372   0.136   0.201   2.460  0.7075 -1.1706  0.3069
17961TIP3   OH275373   2.053   2.988  14.586 -0.7086  0.1210  0.4809
17961TIP3    H175374   2.087   2.916  14.639  1.5228  0.6587 -0.1689
17961TIP3    H275375   2.054   2.953  14.496 -0.4818  0.6558  0.2762
17962TIP3   OH275376   5.945   1.114  15.450  0.7409  0.0912 -0.1967
17962TIP3    H175377   6.025   1.063  15.465  1.3380  1.1707  0.3598
17962TIP3    H275378   5.959   1.155  15.365  0.5452 -0.1381 -0.3420
17963TIP3   OH275379   4.149   6.084   1.446 -0.0136  0.1315 -0.0962
17963TIP3    H175380   4.099   6.024   1.500  0.4592  0.0388  0.2426
17963TIP3    H275381   4.099   6.092   1.365  0.2089 -1.1641 -0.3623
17964TIP3   OH275382   4.216   3.579  15.976 -0.0640  1.0531  0.2547
17964TIP3    H175383   4.255   3.586  16.063 -2.7585  0.2830  1.5967
17964TIP3    H275384   4.286   3.544  15.921  1.3242  0.3544  2.4056
17965TIP3   OH275385   0.752   2.167   2.405  0.4650 -0.3389 -0.5695
17965TIP3    H175386   0.686   2.100   2.422  1.4996 -1.3535 -0.4078
17965TIP3    H275387   0.833   2.129   2.441  1.0522  1.0390 -0.4004
17966TIP3   OH275388   0.223   3.825  11.846 -0.0300  0.0381  0.0644
17966TIP3    H175389   0.227   3.759  11.916 -0.5300 -1.2025 -1.0593
17966TIP3    H275390   0.154   3.885  11.874 -0.1509 -0.3861  0.6969
17967TIP3   OH275391   0.129   5.681  16.935 -0.5232 -0.6905  0.3900
17967TIP3    H175392   0.216   5.645  16.920 -0.6458 -0.6140 -0.5258
17967TIP3    H275393   0.088   5.619  16.996  0.2083 -0.6501  0.9299
17968TIP3   OH275394   0.783   3.198   4.965  0.5463  0.9235 -0.1503
17968TIP3    H175395   0.691   3.176   4.977  0.6189  1.2173  1.0166
17968TIP3    H275396   0.817   3.130   4.907  0.2019 -0.6680  1.4713
17969TIP3   OH275397   3.340   2.224   0.708  0.0771  0.2430 -0.1953
17969TIP3    H175398   3.318   2.169   0.633 -0.6239  0.4400 -0.1349
17969TIP3    H275399   3.256   2.260   0.737  0.3187 -0.0053  0.8184
17970TIP3   OH275400   5.266   3.261  14.932  0.4699  0.2975 -0.4244
17970TIP3    H175401   5.234   3.334  14.984 -0.0059 -0.9345  1.0744
17970TIP3    H275402   5.233   3.183  14.977 -1.4210 -0.7972 -3.5263
17971TIP3   OH275403   2.702   5.765  15.535 -0.1067 -0.1201 -0.1077
17971TIP3    H175404   2.619   5.744  15.579 -0.2690 -0.7927 -0.7237
17971TIP3    H275405   2.727   5.684  15.491  1.1225 -0.0564  0.4501
17972TIP3   OH275406   2.399   1.353   1.578 -0.4960  0.1775 -1.0526
17972TIP3    H175407   2.405   1.306   1.662  1.2788  2.8646  0.3954
17972TIP3    H275408   2.330   1.417   1.592  1.2599  2.0839 -0.8301
17973TIP3   OH275409   1.373   3.670  12.642  0.0907 -0.0206 -0.2336
17973TIP3    H175410   1.382   3.605  12.573  2.2712 -0.5754  0.5298
17973TIP3    H275411   1.398   3.624  12.722  1.0587  1.5835  0.4100
17974TIP3   OH275412   1.395   3.288   1.273 -0.4213 -0.0211  0.1154
17974TIP3    H175413   1.478   3.315   1.234 -0.6474 -0.0224 -0.3742
17974TIP3    H275414   1.350   3.371   1.292 -0.6594 -0.0333 -0.3908
17975TIP3   OH275415   6.327   1.120  14.282 -0.3044 -0.1358  0.0335
17975TIP3    H175416   6.337   1.048  14.345 -2.8167 -1.6575 -1.2192
17975TIP3    H275417   6.271   1.183  14.327 -1.0540 -0.6311 -0.2056
17976TIP3   OH275418   5.979   1.972  17.098 -0.4992  0.1634  0.7225
17976TIP3    H175419   5.908   1.981  17.162  0.7465  0.1374  2.1135
17976TIP3    H275420   5.950   1.902  17.040 -1.4352 -0.1094  1.5040
17977TIP3   OH275421   1.500   3.116   3.996 -1.0494 -0.3552 -0.4053
17977TIP3    H175422   1.440   3.145   3.927 -0.4301 -0.4717 -1.0096
17977TIP3    H275423   1.506   3.021   3.983 -0.1892 -0.2508 -0.8070
17978TIP3   OH275424   6.291   5.806  14.838  0.0662  0.7207 -0.0501
17978TIP3    H175425   6.386   5.809  14.852  0.0914  0.9122 -0.2509
17978TIP3    H275426   6.260   5.739  14.898  0.2214  1.2795  0.6560
17979TIP3   OH275427   2.127   5.782  16.646  0.3700 -0.2303 -0.4438
17979TIP3    H175428   2.076   5.845  16.697 -0.1264 -2.2102  1.5436
17979TIP3    H275429   2.218   5.803  16.667  0.1938 -0.4480  0.5239
17980TIP3   OH275430   0.731   4.168  15.593 -0.2561  0.0686 -0.1316
17980TIP3    H175431   0.734   4.081  15.553  0.4820  0.2473 -0.4740
17980TIP3    H275432   0.646   4.203  15.569 -0.3847 -0.3908 -0.3490
17981TIP3   OH275433   5.091   0.494   3.771 -0.5511 -0.3978 -0.2780
17981TIP3    H175434   5.081   0.462   3.682  0.8025  0.3142 -0.6998
17981TIP3    H275435   5.016   0.457   3.819 -0.6985 -1.6368 -1.4481
17982TIP3   OH275436   6.239   0.764  14.823  0.2451 -0.1416  0.3530
17982TIP3    H175437   6.222   0.690  14.766 -1.4719  0.2754  0.2841
17982TIP3    H275438   6.320   0.741  14.869  0.9367 -1.0450 -1.2813
17983TIP3   OH275439   3.154   2.578   3.936 -0.2412  0.5977  0.4153
17983TIP3    H175440   3.185   2.488   3.934 -0.3280  0.5759 -0.1214
17983TIP3    H275441   3.233   2.631   3.931 -0.2689  0.5433 -0.7658
17984TIP3   OH275442   1.581   6.216  15.817 -0.1253  0.0904 -0.0539
17984TIP3    H175443   1.611   6.299  15.780 -0.3246  0.2777  0.2063
17984TIP3    H275444   1.486   6.219  15.810 -0.2854  0.8837  2.0630
17985TIP3   OH275445   5.821   4.971  11.586  0.3571 -0.3372 -0.0319
17985TIP3    H175446   5.823   4.875  11.578  0.6843 -0.3436  0.1175
17985TIP3    H275447   5.745   4.997  11.534 -0.7833 -0.8059  1.3874
17986TIP3   OH275448   2.442   0.088  13.384  0.3753 -0.0877 -0.0519
17986TIP3    H175449   2.455   0.050  13.297 -0.6768 -1.7527  0.4962
17986TIP3    H275450   2.529   0.119  13.410  1.0754 -1.2910 -0.9148
17987TIP3   OH275451   1.420   3.288   0.838  0.1005  0.4622  0.0895
17987TIP3    H175452   1.359   3.319   0.905  0.7448  1.1727  0.3638
17987TIP3    H275453   1.367   3.234   0.779 -0.3259 -0.8046  1.5977
17988TIP3   OH275454   5.688   6.343  15.592  0.7559  0.0474 -0.2184
17988TIP3    H175455   5.713   6.252  15.611  2.1169  0.7934  1.7657
17988TIP3    H275456   5.770   6.392  15.600 -0.4735  1.8573  1.6259
17989TIP3   OH275457   4.389   1.588   4.081 -0.3075  0.0539 -0.0285
17989TIP3    H175458   4.339   1.663   4.049 -0.7109 -0.6651 -1.1611
17989TIP3    H275459   4.440   1.559   4.005  1.1921  0.2540  0.8795
17990TIP3   OH275460   1.489   4.276   4.160 -0.5536  0.0004  0.5523
17990TIP3    H175461   1.508   4.269   4.253 -0.2880 -1.9707  0.3741
17990TIP3    H275462   1.409   4.223   4.148 -2.0503  2.2873  0.0718
17991TIP3   OH275463   2.520   3.489   0.018  0.1014  0.4877 -0.3868
17991TIP3    H175464   2.549   3.474   0.108  0.2460 -0.1692 -0.5415
17991TIP3    H275465   2.553   3.413  -0.031  1.2146  1.5349 -1.2672
17992TIP3   OH275466   4.087   5.223  11.210  0.0526  0.0738 -0.1715
17992TIP3    H175467   4.088   5.135  11.171 -0.3378  0.1173 -0.2875
17992TIP3    H275468   4.174   5.258  11.192  0.0937 -0.1555 -0.4355
17993TIP3   OH275469   1.610   1.519  15.704  0.0030 -0.7257 -0.5829
17993TIP3    H175470   1.528   1.537  15.658 -1.4749 -0.2726  2.1162
17993TIP3    H275471   1.608   1.425  15.720 -1.9654 -0.1918  2.9047
17994TIP3   OH275472   4.597   3.957  11.212 -0.0999 -0.0087  0.3712
17994TIP3    H175473   4.567   3.965  11.121 -0.6798  1.1065  0.6489
17994TIP3    H275474   4.582   4.044  11.250  1.1004 -0.1674  1.2481
17995TIP3   OH275475   0.370   2.235  15.773 -0.2166 -0.0371  0.6045
17995TIP3    H175476   0.281   2.225  15.740  0.4780  1.0388 -1.6726
17995TIP3    H275477   0.393   2.149  15.807 -1.5749 -0.7255 -0.1715
17996TIP3   OH275478   3.475   0.776  13.162  0.4336 -0.6774  0.1981
17996TIP3    H175479   3.410   0.840  13.133  0.1717 -0.4400  1.2895
17996TIP3    H275480   3.492   0.722  13.085 -2.0689 -1.6045  0.2704
17997TIP3   OH275481   5.289   0.442  16.081  0.4517  0.1020 -0.3219
17997TIP3    H175482   5.205   0.456  16.127  0.2630 -1.1827 -0.2609
17997TIP3    H275483   5.347   0.509  16.117 -0.3997  0.6588  0.0333
17998TIP3   OH275484   6.521   5.259   1.544  0.5032  0.5947 -0.2130
17998TIP3    H175485   6.610   5.224   1.551  1.1727  2.2004 -0.5057
17998TIP3    H275486   6.501   5.290   1.632 -0.0142 -0.3180 -0.0013
17999TIP3   OH275487   1.589   2.603  16.464 -0.2561  0.3166 -0.0106
17999TIP3    H175488   1.536   2.538  16.419 -1.9655  1.3825  0.4236
17999TIP3    H275489   1.602   2.672  16.399 -0.4923  0.6461  0.2918
18000TIP3   OH275490   3.955   0.797  11.490  0.0069 -0.1205 -0.2615
18000TIP3    H175491   3.957   0.879  11.538 -1.0963 -0.2096 -0.0507
18000TIP3    H275492   4.035   0.751  11.517 -0.5610 -0.1304  1.4250
18001TIP3   OH275493   1.373   3.030   5.891  0.0546  0.0600 -0.0604
18001TIP3    H175494   1.348   2.956   5.946  0.0112  0.4670  0.4743
18001TIP3    H275495   1.290   3.059   5.852  0.2193 -0.7948 -1.0540
18002TIP3   OH275496   1.990   0.724  14.358 -0.2895  0.1645  0.6707
18002TIP3    H175497   1.935   0.667  14.304 -0.0685  0.4296  0.1595
18002TIP3    H275498   1.933   0.798  14.380  0.1856  0.9840 -0.7815
18003TIP3   OH275499   6.366   1.643  11.920  0.3378 -0.7278 -0.1899
18003TIP3    H175500   6.401   1.696  11.848 -2.0362  1.5191  0.2352
18003TIP3    H275501   6.303   1.585  11.879 -0.3697 -0.0612 -0.0521
18004TIP3   OH275502   0.199   6.372   0.089 -0.3182 -0.0795  0.4077
18004TIP3    H175503   0.215   6.391   0.181 -2.3249  1.6731  0.4326
18004TIP3    H275504   0.264   6.306   0.066 -0.1058 -0.9048  3.2110
18005TIP3   OH275505   3.332   1.362  16.754 -0.1226  0.1923  0.0789
18005TIP3    H175506   3.382   1.401  16.826  1.4200 -1.2691 -0.1692
18005TIP3    H275507   3.255   1.324  16.796 -0.9866  2.3203  0.4912
18006TIP3   OH275508   6.158   1.953   1.955  0.0549 -0.1795  0.0168
18006TIP3    H175509   6.128   2.013   2.023  0.3848 -0.6592  0.5896
18006TIP3    H275510   6.084   1.892   1.944 -1.3095  1.8235 -2.3657
18007TIP3   OH275511   2.630   1.891  14.937  0.6657  0.1173  0.0253
18007TIP3    H175512   2.546   1.936  14.935  1.5775  1.8506 -0.0399
18007TIP3    H275513   2.608   1.798  14.929 -1.2609  0.5124  0.5738
18008TIP3   OH275514   1.168   1.389  15.178  0.4471 -0.2746 -0.7176
18008TIP3    H175515   1.223   1.442  15.235 -0.6847  2.1414 -1.8084
18008TIP3    H275516   1.184   1.424  15.090  1.0421 -2.9485 -1.7155
18009TIP3   OH275517   1.963   3.921   3.735 -0.2467  0.4738 -0.1474
18009TIP3    H175518   1.885   3.975   3.741 -1.6231 -1.2446 -1.9139
18009TIP3    H275519   2.012   3.957   3.660 -1.6713 -1.2918 -1.9790
18010TIP3   OH275520   4.943   0.923   1.295  0.2177 -0.1711 -0.4812
18010TIP3    H175521   4.921   0.990   1.360  0.1694 -0.4399 -0.2232
18010TIP3    H275522   5.007   0.867   1.338 -2.3597 -2.4105  0.5788
18011TIP3   OH275523   0.649   3.511  17.075  0.3239 -0.2555 -0.2729
18011TIP3    H175524   0.713   3.582  17.077 -1.0316  0.9645  0.5882
18011TIP3    H275525   0.636   3.487  17.166  1.8120 -2.6208 -0.6153
18012TIP3   OH275526   2.247   0.391   3.652  0.0777 -0.4780  0.1688
18012TIP3    H175527   2.254   0.375   3.746 -0.3755  1.4799  0.5662
18012TIP3    H275528   2.270   0.483   3.642 -0.2479 -0.5752 -1.5967
18013TIP3   OH275529   1.678   2.681   0.112  0.0464  0.7118 -0.6572
18013TIP3    H175530   1.697   2.593   0.144 -0.8881  0.6362 -0.2731
18013TIP3    H275531   1.641   2.667   0.025  0.3477  0.7535 -0.7904
18014TIP3   OH275532   4.355   6.472   5.307  0.1114  0.1604 -0.5214
18014TIP3    H175533   4.423   6.485   5.241  0.2153  2.0538 -0.0644
18014TIP3    H275534   4.402   6.440   5.384  0.1983 -0.5771 -0.8815
18015TIP3   OH275535   3.272   1.506   4.858  0.2827 -0.1816 -0.0896
18015TIP3    H175536   3.188   1.548   4.836 -0.2997 -2.0349 -1.5204
18015TIP3    H275537   3.249   1.443   4.927  0.3213 -1.2891 -1.0730
18016TIP3   OH275538   5.993   0.012  14.175 -0.0875  0.0466 -1.0983
18016TIP3    H175539   5.904  -0.001  14.208  0.3215  0.8285  0.3502
18016TIP3    H275540   6.048  -0.039  14.234  0.7869  2.5288  0.2771
18017TIP3   OH275541   2.437   3.809  11.442 -0.6219 -0.2203 -0.3306
18017TIP3    H175542   2.364   3.802  11.503 -1.4289  0.5707 -1.1749
18017TIP3    H275543   2.514   3.778  11.491 -1.4482 -0.6585  0.6947
18018TIP3   OH275544   5.256   2.355   1.121 -0.1901  1.3329  0.4079
18018TIP3    H175545   5.169   2.383   1.147 -0.7722  1.2004 -1.2947
18018TIP3    H275546   5.298   2.434   1.087  0.1100  1.2568  0.5950
18019TIP3   OH275547   3.105   6.127  11.272 -0.2371 -0.4006 -0.7504
18019TIP3    H175548   3.076   6.049  11.223 -0.1047  0.4837 -2.2842
18019TIP3    H275549   3.032   6.188  11.263  1.5137  1.3817 -3.5567
18020TIP3   OH275550   5.113   3.296  12.516 -0.3735 -0.3810  0.5231
18020TIP3    H175551   5.138   3.247  12.594  1.6089 -0.0996  0.0798
18020TIP3    H275552   5.095   3.384  12.548 -0.2599 -0.4449  0.7653
18021TIP3   OH275553   5.817   1.367   4.755  0.2084 -0.1801  0.3434
18021TIP3    H175554   5.833   1.401   4.843  0.3521 -0.7166  0.5286
18021TIP3    H275555   5.728   1.396   4.734  0.1529 -0.0983  0.6852
18022TIP3   OH275556   3.966   5.340  15.382 -0.1722  0.6614  0.5761
18022TIP3    H175557   3.953   5.417  15.326  0.7297  1.9129  2.0410
18022TIP3    H275558   3.954   5.265  15.323 -0.7852  1.9165 -0.9403
18023TIP3   OH275559   1.457   3.272  12.448 -0.4084 -0.6902  0.4544
18023TIP3    H175560   1.534   3.329  12.455 -1.7831  1.2384 -0.0415
18023TIP3    H275561   1.402   3.296  12.522 -1.2591 -0.9949 -0.0706
18024TIP3   OH275562   5.807   5.677  11.904 -0.4955  0.2278 -0.5680
18024TIP3    H175563   5.868   5.749  11.916 -0.7825  0.1236  1.8441
18024TIP3    H275564   5.737   5.713  11.849 -1.7544  2.5162  2.3948
18025TIP3   OH275565   0.442   0.480   5.181  0.6889 -0.6219 -0.0097
18025TIP3    H175566   0.516   0.427   5.211  1.9796  1.3290  0.3044
18025TIP3    H275567   0.398   0.424   5.116  2.5915 -1.6948 -0.4193
18026TIP3   OH275568   5.092   2.240   2.573  0.0762 -0.1994  0.4252
18026TIP3    H175569   5.063   2.150   2.593 -0.6245 -0.2316 -0.6465
18026TIP3    H275570   5.010   2.287   2.555  0.5987 -0.0120 -1.5899
18027TIP3   OH275571   2.317   3.790  15.029  0.3423 -0.0649 -0.4147
18027TIP3    H175572   2.241   3.829  14.986  0.3801  1.0486  0.4947
18027TIP3    H275573   2.280   3.742  15.103  0.4721 -0.0414 -0.3355
18028TIP3   OH275574   2.667   4.093   0.267  0.2812 -0.3377 -0.1000
18028TIP3    H175575   2.675   3.998   0.257 -0.3394 -0.5834  1.5863
18028TIP3    H275576   2.705   4.129   0.187  0.6998 -2.0023 -0.6631
18029TIP3   OH275577   5.219   1.486   2.206  0.2516 -0.2247  0.2271
18029TIP3    H175578   5.165   1.423   2.158  1.6026 -1.8384  0.7467
18029TIP3    H275579   5.190   1.477   2.297 -0.9515  1.3941  0.0119
18030TIP3   OH275580   3.685   3.344   0.203 -0.1873 -0.2795  0.1175
18030TIP3    H175581   3.694   3.259   0.159  1.2635  0.2041 -0.5757
18030TIP3    H275582   3.759   3.346   0.265 -1.1725 -0.2014  1.3145
18031TIP3   OH275583   3.098   2.121   4.857  0.1681  0.3133  0.0391
18031TIP3    H175584   3.193   2.124   4.853  0.1666 -0.2668 -0.8254
18031TIP3    H275585   3.078   2.028   4.867 -0.3229  0.3236 -0.7652
18032TIP3   OH275586   6.455   3.825  16.552  0.3612 -0.2525  0.0252
18032TIP3    H175587   6.416   3.871  16.626  1.2398 -0.8900  0.9026
18032TIP3    H275588   6.508   3.756  16.592  0.3786 -0.9774 -1.2175
18033TIP3   OH275589   3.101   4.898   6.219 -0.4521  0.2509 -0.3128
18033TIP3    H175590   3.057   4.983   6.211 -2.6633 -0.6487  1.8282
18033TIP3    H275591   3.186   4.918   6.258 -0.7078  1.5392 -0.4014
18034TIP3   OH275592   0.799   3.016  11.570  0.2809 -0.6876  0.3353
18034TIP3    H175593   0.767   3.102  11.543  0.2073 -0.6283  0.6082
18034TIP3    H275594   0.720   2.968  11.595  0.1520 -1.3742 -1.3170
18035TIP3   OH275595   0.823   6.259  16.894  0.9128 -0.0856  0.1755
18035TIP3    H175596   0.887   6.284  16.828 -0.8815 -0.2681 -1.6778
18035TIP3    H275597   0.753   6.216  16.845 -1.0163  0.8361  2.0167
18036TIP3   OH275598   1.700   3.123  16.612 -0.6556  0.4190  0.2501
18036TIP3    H175599   1.773   3.182  16.593  0.2270 -0.6847  0.2136
18036TIP3    H275600   1.633   3.146  16.547  0.3379  0.2196 -0.8391
18037TIP3   OH275601   0.580   6.454  14.734 -0.2140  0.1389 -0.0173
18037TIP3    H175602   0.591   6.470  14.827  2.4704 -0.3446 -0.2232
18037TIP3    H275603   0.486   6.462  14.719 -0.4455  2.3142  2.3275
18038TIP3   OH275604   0.825   5.225  16.462  0.6214 -1.4163  0.1909
18038TIP3    H175605   0.784   5.139  16.470  0.9991 -1.4947  1.4786
18038TIP3    H275606   0.919   5.207  16.459  0.6214 -1.2075 -2.2556
18039TIP3   OH275607   1.503   4.452   0.626  0.4286 -0.0764 -0.2044
18039TIP3    H175608   1.596   4.463   0.603  0.9327  0.1180  1.8287
18039TIP3    H275609   1.484   4.525   0.684  0.0966 -2.3047  2.5608
18040TIP3   OH275610   6.383   5.379  16.871 -0.1659 -0.2084 -0.4152
18040TIP3    H175611   6.349   5.416  16.790  0.0611 -0.8774 -0.8197
18040TIP3    H275612   6.430   5.452  16.912  0.6132 -0.1467 -1.3918
18041TIP3   OH275613   1.587   2.523   6.314 -0.0486 -0.0899 -0.0216
18041TIP3    H175614   1.496   2.530   6.285 -0.4538  0.6129  1.3367
18041TIP3    H275615   1.586   2.450   6.377  0.0611  0.7039  0.9121
18042TIP3   OH275616   5.083   0.411   3.517  0.0058  0.3881 -0.0454
18042TIP3    H175617   5.170   0.379   3.492  0.2218  1.7516 -1.0714
18042TIP3    H275618   5.035   0.419   3.435 -1.4161 -1.2081  0.5901
18043TIP3   OH275619   3.217   0.682  16.403  0.5284  0.1978  0.7611
18043TIP3    H175620   3.175   0.608  16.358  3.6333 -2.0099  1.2696
18043TIP3    H275621   3.212   0.754  16.340 -0.6790 -1.0507 -0.6349
18044TIP3   OH275622   4.885   2.325   6.053 -0.3328  0.7298 -0.4954
18044TIP3    H175623   4.951   2.394   6.045  1.2624 -0.8821 -1.7313
18044TIP3    H275624   4.848   2.336   6.141  2.0259  1.2776  0.4487
18045TIP3   OH275625   5.274   5.577  14.488 -0.5655 -0.1501  0.0101
18045TIP3    H175626   5.198   5.628  14.517  0.3972  1.5130 -0.3150
18045TIP3    H275627   5.339   5.590  14.557  0.5265  1.0351 -1.2042
18046TIP3   OH275628   4.156   1.994  13.843  0.5692 -0.4311 -0.0413
18046TIP3    H175629   4.151   2.017  13.750  1.2750 -0.8608 -0.1903
18046TIP3    H275630   4.184   2.075  13.886  1.5235 -0.5715 -0.3728
18047TIP3   OH275631   6.305   6.609   1.049 -0.4343 -0.0955 -0.3500
18047TIP3    H175632   6.378   6.573   1.100 -0.4695  0.8426  0.3803
18047TIP3    H275633   6.238   6.540   1.051 -0.7186  0.1997  1.5009
18048TIP3   OH275634   0.332   3.900  14.182  0.0531  0.7660  0.3764
18048TIP3    H175635   0.333   3.841  14.106 -0.0294  0.9421  0.2409
18048TIP3    H275636   0.395   3.860  14.243  0.3299  0.7791  0.0998
18049TIP3   OH275637   4.898   6.695   1.422 -0.3361 -0.4813 -0.4388
18049TIP3    H175638   4.903   6.613   1.374  1.2537 -0.0992 -0.9429
18049TIP3    H275639   4.920   6.762   1.358  2.3841 -0.0220  0.9250
18050TIP3   OH275640   0.809   6.250   2.158 -0.5013  0.3094 -0.2243
18050TIP3    H175641   0.826   6.313   2.088 -2.3817  0.6430 -0.3957
18050TIP3    H275642   0.896   6.234   2.197  0.3642  1.0684 -1.7999
18051TIP3   OH275643   5.209   1.461  14.185 -0.0659 -0.2390 -0.3940
18051TIP3    H175644   5.297   1.493  14.203 -0.5280 -0.0865  1.7360
18051TIP3    H275645   5.169   1.530  14.132  0.7739  0.1502 -0.5331
18052TIP3   OH275646   4.522   6.477   5.900 -1.0365  0.1693 -0.1320
18052TIP3    H175647   4.557   6.409   5.957 -0.6765  0.7989  0.4127
18052TIP3    H275648   4.555   6.559   5.938 -0.9252  0.6033 -1.1618
18053TIP3   OH275649   2.463   0.028   0.720 -0.0725 -0.1843 -0.0013
18053TIP3    H175650   2.517  -0.017   0.655 -0.8080 -0.9513 -0.0880
18053TIP3    H275651   2.392   0.068   0.669 -0.1481 -0.0230  0.2276
18054TIP3   OH275652   6.420   1.910   1.917  0.1074  0.0087  0.3033
18054TIP3    H175653   6.479   1.986   1.919  1.8411 -1.3361  3.0807
18054TIP3    H275654   6.337   1.943   1.952  0.4506  0.9349  0.2494
18055TIP3   OH275655   5.361   0.215  15.464  0.1442 -0.0745 -0.0197
18055TIP3    H175656   5.342   0.250  15.377  0.3501 -0.9585 -0.4214
18055TIP3    H275657   5.318   0.277  15.524 -1.5074 -0.4111 -0.8137
18056TIP3   OH275658   6.773   0.649   6.639 -0.2346 -0.2495  0.1755
18056TIP3    H175659   6.819   0.573   6.604 -2.0836 -1.1238 -0.3768
18056TIP3    H275660   6.687   0.616   6.664 -1.3405  1.8167 -0.7844
18057TIP3   OH275661   3.599   5.854  16.866  0.7049 -0.4608 -0.1194
18057TIP3    H175662   3.680   5.878  16.821  1.4878 -0.9152  1.0340
18057TIP3    H275663   3.611   5.763  16.892 -0.5406 -0.8117 -0.7099
18058TIP3   OH275664   3.263   1.879   3.560  0.2869 -0.2083 -0.0272
18058TIP3    H175665   3.261   1.973   3.544 -2.0852 -0.2442 -0.1146
18058TIP3    H275666   3.201   1.866   3.632  0.6417 -1.6981  0.0287
18059TIP3   OH275667   5.376   3.421  15.950 -0.3482  0.4978 -0.1077
18059TIP3    H175668   5.286   3.455  15.952 -1.3622 -2.0432 -0.7807
18059TIP3    H275669   5.415   3.462  15.874 -2.5323 -2.0755 -2.7433
18060TIP3   OH275670   6.153   5.720   5.830 -0.0599  0.0429  0.1670
18060TIP3    H175671   6.058   5.725   5.828 -0.0412  0.2029 -0.5086
18060TIP3    H275672   6.176   5.660   5.759  0.1536 -3.2553  2.8674
18061TIP3   OH275673   1.220   3.292   2.506 -0.2357 -0.3965  0.1003
18061TIP3    H175674   1.281   3.287   2.580 -1.1515 -1.1718  0.8149
18061TIP3    H275675   1.227   3.382   2.476  0.7964 -0.3028  0.5772
18062TIP3   OH275676   0.462   2.720   1.314 -1.0642 -0.5741 -0.0578
18062TIP3    H175677   0.508   2.686   1.237  0.2491 -0.7709  0.7880
18062TIP3    H275678   0.375   2.681   1.309 -0.1060 -2.8627  0.0482
18063TIP3   OH275679   4.111   5.857   2.339 -0.2921  0.2024  0.7096
18063TIP3    H175680   4.154   5.885   2.259  0.1494 -0.1112  0.8364
18063TIP3    H275681   4.043   5.796   2.310  0.6005 -0.7732  0.6664
18064TIP3   OH275682   0.387   3.215   2.742 -0.1628  0.1956 -0.4664
18064TIP3    H175683   0.436   3.145   2.698 -1.7300 -2.0114  1.2235
18064TIP3    H275684   0.300   3.213   2.701 -0.7686 -0.0517  0.8135
18065TIP3   OH275685   4.475   2.105  11.790 -0.4290  0.5178  0.4026
18065TIP3    H175686   4.549   2.148  11.747  0.3914 -1.5229 -0.3098
18065TIP3    H275687   4.423   2.071  11.717 -0.4260 -0.7126  0.9755
18066TIP3   OH275688   1.026   6.655   3.206  0.2633  0.1523  0.4665
18066TIP3    H175689   0.958   6.683   3.269 -1.2169 -1.7813 -0.2133
18066TIP3    H275690   1.000   6.696   3.124  1.0807  1.0599  0.6549
18067TIP3   OH275691   4.346   5.076   5.050  0.0235  0.1524  0.3711
18067TIP3    H175692   4.400   5.096   4.973 -2.4328 -0.0045 -1.4535
18067TIP3    H275693   4.406   5.032   5.110  1.3620 -2.2086 -2.5566
18068TIP3   OH275694   5.093   6.198   1.957 -0.5912  0.0729 -0.1281
18068TIP3    H175695   5.071   6.261   1.887 -1.1006  0.7033  0.5837
18068TIP3    H275696   5.168   6.150   1.923 -1.3830 -0.2413 -1.4935
18069TIP3   OH275697   3.120   6.744  12.776  0.0217  0.4251 -0.2529
18069TIP3    H175698   3.039   6.794  12.766  0.2371  0.8145 -0.0260
18069TIP3    H275699   3.188   6.802  12.743  0.1884  0.0268 -0.6128
18070TIP3   OH275700   3.729   4.163  13.728 -0.2234  0.2929  0.0048
18070TIP3    H175701   3.787   4.111  13.784 -2.1966 -1.1129  0.8222
18070TIP3    H275702   3.644   4.159  13.772 -1.4004  0.6591 -2.1699
18071TIP3   OH275703   6.002   0.075   0.181 -0.5072  0.6026  0.3636
18071TIP3    H175704   5.914   0.111   0.193 -0.2938  0.6023  2.0062
18071TIP3    H275705   6.001  -0.008   0.228  0.4977  0.8144  0.7809
18072TIP3   OH275706   6.468   5.617   5.663  0.3087  0.4318 -0.1320
18072TIP3    H175707   6.516   5.544   5.622  1.2809  0.0064  1.6968
18072TIP3    H275708   6.377   5.603   5.639  0.5194 -1.2818  0.0225
18073TIP3   OH275709   3.428   0.636   0.818 -0.1298 -0.5479  0.1708
18073TIP3    H175710   3.411   0.575   0.890  2.7246 -0.2445  1.1603
18073TIP3    H275711   3.507   0.603   0.777  0.8763  1.8901  0.0847
18074TIP3   OH275712   5.533   2.346  14.544  0.5237 -0.3929  0.6138
18074TIP3    H175713   5.439   2.349  14.559  0.4259 -0.0886 -0.0277
18074TIP3    H275714   5.544   2.286  14.470  0.7742  0.0312  0.2971
18075TIP3   OH275715   4.992   2.405   0.513 -0.2967 -0.4108 -0.2564
18075TIP3    H175716   4.946   2.487   0.527 -0.7511 -0.2786 -2.4287
18075TIP3    H275717   5.075   2.430   0.472  1.3666 -0.7332  2.6953
18076TIP3   OH275718   6.699   2.858   4.824  0.1888  0.1968 -0.0715
18076TIP3    H175719   6.668   2.943   4.794 -0.3844  0.7431  2.0132
18076TIP3    H275720   6.790   2.854   4.796 -0.4624  0.4507 -2.3159
18077TIP3   OH275721   1.680   2.692   6.121 -0.0114 -0.1784  0.8530
18077TIP3    H175722   1.739   2.749   6.170 -0.1907  0.3908  0.4106
18077TIP3    H275723   1.638   2.638   6.188  3.4467 -2.9261  0.9564
18078TIP3   OH275724   1.517   2.840  14.374  0.6989  0.7034 -0.3119
18078TIP3    H175725   1.453   2.834  14.303  1.8743  2.1507 -1.5390
18078TIP3    H275726   1.493   2.920  14.421  0.8247  0.5480  0.0196
18079TIP3   OH275727   4.166   2.404   2.849 -0.4627 -0.1110  0.3042
18079TIP3    H175728   4.082   2.360   2.836  0.3921 -1.8282  0.4617
18079TIP3    H275729   4.230   2.347   2.807  0.5293  1.6454 -0.6113
18080TIP3   OH275730   1.582   1.611   2.489 -0.1842  0.1254  0.4545
18080TIP3    H175731   1.640   1.630   2.563  1.2005  0.9708 -0.8133
18080TIP3    H275732   1.617   1.531   2.451 -0.7597 -0.1816  0.5582
18081TIP3   OH275733   5.520   2.414  12.759 -0.1798  0.0347  0.5055
18081TIP3    H175734   5.494   2.361  12.683 -0.6163  0.5128  0.3115
18081TIP3    H275735   5.514   2.355  12.833  2.0192 -0.9580 -0.0536
18082TIP3   OH275736   1.850   2.937  13.997  0.4793  0.1889  0.1832
18082TIP3    H175737   1.787   2.898  14.059  1.2922  1.5258  1.9084
18082TIP3    H275738   1.925   2.878  14.000 -0.4073 -1.0583 -1.3878
18083TIP3   OH275739   5.191   5.815   6.053 -0.6608 -0.3988 -0.1664
18083TIP3    H175740   5.187   5.798   6.147 -2.0604  2.1667  0.2899
18083TIP3    H275741   5.256   5.883   6.043 -1.1343 -0.0515 -0.9546
18084TIP3   OH275742   4.167   6.047  12.318  0.0785  0.1243 -0.1935
18084TIP3    H175743   4.254   6.062  12.280  0.5172 -0.6994  0.4759
18084TIP3    H275744   4.120   6.130  12.304  0.3775 -0.0069 -2.1150
18085TIP3   OH275745   2.144   4.593   5.578 -0.3785 -0.5229  0.5098
18085TIP3    H175746   2.129   4.529   5.508 -2.1158  1.2342 -0.7811
18085TIP3    H275747   2.133   4.678   5.536  3.0669  0.6979  1.9606
18086TIP3   OH275748   6.567   1.522   0.743 -0.1022  0.5052  0.0552
18086TIP3    H175749   6.491   1.577   0.721  0.7026  2.1650  1.3197
18086TIP3    H275750   6.620   1.522   0.663 -0.6100  0.7142 -0.2869
18087TIP3   OH275751   4.315   1.425   0.677 -0.1525 -0.0057 -0.1225
18087TIP3    H175752   4.242   1.485   0.693  0.6991  1.0714 -0.2515
18087TIP3    H275753   4.377   1.444   0.747  0.2729 -0.4926 -0.3674
18088TIP3   OH275754   3.861   4.664  11.615 -0.2130  0.1839  0.0808
18088TIP3    H175755   3.935   4.631  11.665  0.6950  2.8480  0.5450
18088TIP3    H275756   3.791   4.674  11.679 -0.2294  0.0133  0.0911
18089TIP3   OH275757   3.934   5.893  13.032 -0.9127 -0.0335 -0.0212
18089TIP3    H175758   4.015   5.874  12.985  0.3156 -0.0455  2.0673
18089TIP3    H275759   3.882   5.944  12.970 -0.7802 -2.9084 -2.6585
18090TIP3   OH275760   2.398   4.161   4.697  0.7565 -0.3111  0.2444
18090TIP3    H175761   2.331   4.094   4.679 -0.2753  1.5834 -3.5943
18090TIP3    H275762   2.481   4.116   4.683  0.1023 -1.1836 -1.0184
18091TIP3   OH275763   3.088   3.812   4.712 -0.0552 -0.1765 -0.4882
18091TIP3    H175764   3.036   3.841   4.787  2.0245 -0.2211  1.0056
18091TIP3    H275765   3.163   3.871   4.710  0.2917 -0.6429 -2.1027
18092TIP3   OH275766   1.797   3.004  14.311  0.3070 -0.6203 -0.6007
18092TIP3    H175767   1.886   3.004  14.274  0.1111  1.2840 -1.1573
18092TIP3    H275768   1.755   3.080  14.269 -0.6183  0.3058  1.9402
18093TIP3   OH275769   3.608   1.266  12.394  0.2143  0.1418  0.2059
18093TIP3    H175770   3.672   1.206  12.355  0.3268  1.0658 -1.0417
18093TIP3    H275771   3.611   1.245  12.488  0.8518 -1.2316 -0.0976
18094TIP3   OH275772   4.988   1.220   3.307 -0.4135  0.3365 -0.6217
18094TIP3    H175773   5.019   1.204   3.396  0.5977 -1.8892 -1.3307
18094TIP3    H275774   5.067   1.218   3.254 -1.3831 -2.1560 -2.0423
18095TIP3   OH275775   0.227   5.054   3.024 -0.7860 -0.4847 -0.0157
18095TIP3    H175776   0.184   5.139   3.022 -1.0518 -0.6552 -1.4780
18095TIP3    H275777   0.303   5.064   2.966 -1.5482 -1.6317 -1.2253
18096TIP3   OH275778   6.439   4.074   0.192 -0.2254  0.0845 -0.5335
18096TIP3    H175779   6.530   4.047   0.179 -0.1053  0.6301 -0.8584
18096TIP3    H275780   6.444   4.168   0.206 -0.6006 -0.1084  0.9739
18097TIP3   OH275781   2.049   4.267  15.883  0.2365  0.0437  0.3170
18097TIP3    H175782   2.075   4.244  15.794 -0.4714 -2.0186  0.6029
18097TIP3    H275783   1.975   4.209  15.902  1.4158 -0.7126  2.8002
18098TIP3   OH275784   1.825   4.828   2.720 -1.0654  0.1608  0.3373
18098TIP3    H175785   1.868   4.745   2.698 -0.1498  0.7324 -0.0628
18098TIP3    H275786   1.733   4.814   2.696 -0.8929 -0.6847  0.1324
18099TIP3   OH275787   0.532   2.600   4.725  0.1416 -0.0873  0.3620
18099TIP3    H175788   0.479   2.672   4.760 -0.0171 -0.6192  1.2366
18099TIP3    H275789   0.472   2.552   4.668  0.1032  0.1827  0.1763
18100TIP3   OH275790   0.889   3.343  10.652 -0.1721  0.1645  0.2903
18100TIP3    H175791   0.950   3.416  10.652  0.4046 -0.3200 -0.5270
18100TIP3    H275792   0.856   3.338  10.563  0.8273 -1.4260 -0.0194
18101TIP3   OH275793   6.775   6.268  15.207  0.0364  0.4018  0.8147
18101TIP3    H175794   6.696   6.217  15.190  0.1176 -0.1853  2.1317
18101TIP3    H275795   6.746   6.341  15.262  0.5812 -0.4690  2.3026
18102TIP3   OH275796   0.443   3.981  11.399  0.2885  0.3478  0.5676
18102TIP3    H175797   0.454   3.886  11.407  0.5199  0.1649 -1.6123
18102TIP3    H275798   0.352   3.992  11.370  0.7296  0.6906 -0.6998
18103TIP3   OH275799   1.361   0.302   5.505  0.9383 -0.2413 -0.5058
18103TIP3    H175800   1.419   0.377   5.518  1.1536 -0.5286  0.2309
18103TIP3    H275801   1.319   0.290   5.590  1.4631 -1.4181 -0.4040
18104TIP3   OH275802   1.153   3.994  11.071 -0.2666 -0.1191  0.1079
18104TIP3    H175803   1.086   4.001  11.003 -0.8599  0.1223  0.7033
18104TIP3    H275804   1.214   3.927  11.039 -2.8022 -3.1012  1.2270
18105TIP3   OH275805   2.557   1.460  16.540 -0.3753  0.0815 -0.6777
18105TIP3    H175806   2.507   1.440  16.620 -0.3575  1.7559 -0.2157
18105TIP3    H275807   2.643   1.423  16.556 -0.2087  0.8761  0.3313
18106TIP3   OH275808   0.010   3.085   4.228  0.1741  0.4652  0.2546
18106TIP3    H175809  -0.031   3.042   4.303 -0.9106 -0.5766 -0.9279
18106TIP3    H275810  -0.032   3.171   4.224  1.9496  1.5031  2.2762
18107TIP3   OH275811   5.386   5.053   0.519  0.0302  0.0855 -0.4929
18107TIP3    H175812   5.436   4.986   0.472 -0.6230 -0.8684  0.1616
18107TIP3    H275813   5.324   5.004   0.573 -1.7259  1.2404 -1.3904
18108TIP3   OH275814   0.509   6.266   2.639  0.1912  0.2155 -0.4728
18108TIP3    H175815   0.501   6.193   2.577  1.0134 -0.6508  0.4160
18108TIP3    H275816   0.598   6.259   2.674 -0.8309 -0.4559  2.1529
18109TIP3   OH275817   0.358   2.004  15.600 -0.3385  0.2789 -0.1216
18109TIP3    H175818   0.284   2.065  15.605  1.4502  2.4884 -0.4030
18109TIP3    H275819   0.396   2.019  15.513  1.8694  0.8591  0.9239
18110TIP3   OH275820   2.047   0.394   3.384 -0.1344 -0.2102 -0.0562
18110TIP3    H175821   2.119   0.405   3.446  0.3614  0.6238 -0.7756
18110TIP3    H275822   2.021   0.303   3.394  1.2361 -0.6040 -0.0260
18111TIP3   OH275823   4.456   4.293  13.529 -0.1799  0.7971 -0.5450
18111TIP3    H175824   4.388   4.360  13.533  0.5937  1.5787 -0.4546
18111TIP3    H275825   4.460   4.257  13.618 -1.8604 -0.6456 -1.0290
18112TIP3   OH275826   2.228   2.099   1.596 -0.1122  0.7714 -0.5592
18112TIP3    H175827   2.280   2.083   1.517  0.1239  3.1341 -0.9170
18112TIP3    H275828   2.164   2.164   1.569 -0.1878  1.4162  1.1473
18113TIP3   OH275829   3.501   2.170  13.616 -0.1370 -0.1681  0.1485
18113TIP3    H175830   3.594   2.181  13.635  0.1223 -0.5971 -0.8258
18113TIP3    H275831   3.458   2.180  13.701  0.8568 -0.6430  0.7206
18114TIP3   OH275832   4.905   2.730   1.910 -0.5849  0.3348  0.0738
18114TIP3    H175833   4.898   2.669   1.836  0.5021  1.6915 -1.1649
18114TIP3    H275834   4.864   2.810   1.879  1.6882  1.5703  0.2058
18115TIP3   OH275835   5.613   3.182  15.572 -0.7240 -0.1038  0.1563
18115TIP3    H175836   5.575   3.151  15.489  0.9456  1.3531 -1.1893
18115TIP3    H275837   5.619   3.277  15.561 -1.8149  0.2822  2.5478
18116TIP3   OH275838   6.087   6.592  14.290  0.1519  0.4539 -0.2518
18116TIP3    H175839   6.001   6.567  14.324 -1.1812  1.6113 -2.6184
18116TIP3    H275840   6.127   6.510  14.261  0.7524 -0.3649  2.7762
18117TIP3   OH275841   6.713   1.379  12.971 -0.2535 -0.2929  0.0485
18117TIP3    H175842   6.760   1.408  12.893 -0.1204  0.0025  0.2384
18117TIP3    H275843   6.768   1.408  13.044 -0.9933  0.5266  0.2866
18118TIP3   OH275844   6.786   5.985  13.578  0.0217  0.2334  0.1756
18118TIP3    H175845   6.729   5.911  13.602  0.3952 -0.0009  0.3663
18118TIP3    H275846   6.840   5.998  13.656  2.9935 -2.1711 -1.3854
18119TIP3   OH275847   3.821   4.418  13.318 -0.2812  0.2381  0.4557
18119TIP3    H175848   3.763   4.397  13.391 -0.1947 -0.2572  0.3815
18119TIP3    H275849   3.868   4.496  13.347  0.1802 -0.3038  1.1802
18120TIP3   OH275850   4.605   5.958  12.354 -0.3059 -0.0711 -0.7090
18120TIP3    H175851   4.699   5.971  12.340 -0.6601  1.3189 -1.9511
18120TIP3    H275852   4.564   6.027  12.303 -1.9629  0.3988  1.2210
18121TIP3   OH275853   3.398   6.041   2.373  0.6155 -0.1905  0.6237
18121TIP3    H175854   3.444   5.958   2.383  2.3738  0.6361 -0.3672
18121TIP3    H275855   3.318   6.031   2.425  1.6388 -1.8645  1.9209
18122TIP3   OH275856   5.273   4.916  14.199 -0.9175  0.1800  0.0004
18122TIP3    H175857   5.244   4.975  14.130  0.3350  1.3443  0.4346
18122TIP3    H275858   5.364   4.895  14.176 -1.8721 -3.0049 -1.0817
18123TIP3   OH275859   3.150   5.235  14.152 -0.2658 -0.0363  0.0927
18123TIP3    H175860   3.065   5.270  14.124  0.1454  1.1775  0.3102
18123TIP3    H275861   3.128   5.168  14.217 -1.0478  0.5268  0.4176
18124TIP3   OH275862   1.950   3.251  16.682 -0.5362  0.0342  0.2896
18124TIP3    H175863   1.886   3.307  16.726  0.2759  0.0369  1.5009
18124TIP3    H275864   2.001   3.213  16.754  0.3353 -0.5323 -0.6308
18125TIP3   OH275865   2.648   2.601   1.166  0.4263  0.2992  0.5039
18125TIP3    H175866   2.738   2.587   1.196  0.2297  0.2406  1.0806
18125TIP3    H275867   2.597   2.537   1.215 -0.0555  0.9411  0.8419
18126TIP3   OH275868   2.199   6.458   4.517 -0.2418 -0.4588 -0.1473
18126TIP3    H175869   2.254   6.465   4.439 -1.3812  0.8974 -0.8354
18126TIP3    H275870   2.241   6.389   4.569  1.6360 -0.0159 -1.0355
18127TIP3   OH275871   1.553   4.563   5.144  0.4908  0.2188 -0.2011
18127TIP3    H175872   1.603   4.507   5.203  1.0043  1.3193  0.4211
18127TIP3    H275873   1.601   4.645   5.143 -0.7698  0.9594 -0.3792
18128TIP3   OH275874   1.223   0.710  16.653 -0.7861 -0.9895  0.0987
18128TIP3    H175875   1.182   0.785  16.695  0.0097 -0.3273 -0.2839
18128TIP3    H275876   1.184   0.708  16.565  1.0334  0.5362 -0.7872
18129TIP3   OH275877   2.014   5.470  12.176  0.3517 -0.5178  0.3905
18129TIP3    H175878   2.099   5.504  12.147  0.9708 -0.7549  1.8917
18129TIP3    H275879   2.008   5.497  12.268 -1.9374  0.9175 -0.1559
18130TIP3   OH275880   4.795   5.145  13.724 -0.4347 -0.4754  0.2632
18130TIP3    H175881   4.818   5.206  13.795  1.1160 -2.6733  1.7073
18130TIP3    H275882   4.862   5.077  13.729 -0.9389 -1.2370 -2.6636
18131TIP3   OH275883   0.799   3.510  13.897 -0.2642  0.8634  0.7416
18131TIP3    H175884   0.717   3.545  13.861  0.2372  0.7954 -0.4880
18131TIP3    H275885   0.807   3.424  13.856  0.1957  0.6869  1.2078
18132TIP3   OH275886   1.413   0.152   6.157  0.2101 -0.3386 -0.0145
18132TIP3    H175887   1.335   0.112   6.120 -0.6299  0.7841  0.4953
18132TIP3    H275888   1.404   0.138   6.251  0.7290 -0.3938  0.0253
18133TIP3   OH275889   0.094   3.429   2.714 -0.4812 -0.2017 -0.1887
18133TIP3    H175890   0.126   3.356   2.661 -1.3404  0.1312 -1.1835
18133TIP3    H275891   0.165   3.447   2.776  0.1151 -1.2629 -0.5589
18134TIP3   OH275892   1.789   2.497   2.339  0.5339 -0.4230 -0.3986
18134TIP3    H175893   1.840   2.508   2.259 -1.4579  0.0369 -1.6542
18134TIP3    H275894   1.717   2.439   2.313 -0.4054  0.1175  0.9370
18135TIP3   OH275895   6.250   3.652  13.388  0.0632  0.4860  0.2819
18135TIP3    H175896   6.177   3.702  13.351 -0.0582  1.7583  2.1323
18135TIP3    H275897   6.327   3.706  13.374  0.0555  0.8606  1.6116
18136TIP3   OH275898   2.616   0.781  10.988  0.0274 -0.4373  0.0996
18136TIP3    H175899   2.705   0.755  10.962 -0.7453 -1.1824 -1.9400
18136TIP3    H275900   2.559   0.735  10.926 -1.7075  1.1476  0.4797
18137TIP3   OH275901   6.736   5.254  15.282  0.2287  0.3467 -1.3253
18137TIP3    H175902   6.809   5.216  15.331 -1.6939  0.1324  1.4164
18137TIP3    H275903   6.759   5.346  15.274  0.6868  0.3268 -0.2939
18138TIP3   OH275904   6.114   0.847  15.439  0.2522 -0.5687 -0.1033
18138TIP3    H175905   6.188   0.905  15.458 -0.4426 -0.0661  1.0920
18138TIP3    H275906   6.109   0.788  15.514 -0.0986 -1.0993 -0.5330
18139TIP3   OH275907   4.033   5.701   6.110 -0.3700 -0.0016 -0.4911
18139TIP3    H175908   3.986   5.772   6.153 -0.8463  1.7042 -3.7520
18139TIP3    H275909   4.124   5.731   6.106  0.2793 -1.4571  1.9106
18140TIP3   OH275910   6.118   4.976   5.455 -0.0187  0.3034 -0.1101
18140TIP3    H175911   6.039   4.991   5.507 -0.3118 -1.6470  0.0559
18140TIP3    H275912   6.085   4.940   5.372  0.6619 -0.2596 -0.1422
18141TIP3   OH275913   2.749   6.245  16.563  0.1565  0.2459  0.1959
18141TIP3    H175914   2.727   6.336  16.547 -2.8265 -0.4291  0.1520
18141TIP3    H275915   2.725   6.230  16.654  1.4248 -0.2934  0.4519
18142TIP3   OH275916   4.283   4.351   3.763  0.0085  0.1003 -0.0213
18142TIP3    H175917   4.354   4.378   3.822 -0.5371 -0.8079  1.0373
18142TIP3    H275918   4.223   4.425   3.763  0.3525  0.3860  0.0017
18143TIP3   OH275919   6.691   1.597  14.821 -0.1035 -0.0208 -0.2927
18143TIP3    H175920   6.719   1.574  14.733  1.4080  0.7797 -0.0351
18143TIP3    H275921   6.606   1.554  14.831  0.0810 -0.7810 -1.8362
18144TIP3   OH275922   5.684   0.427  15.296 -0.4880  0.1231 -0.2904
18144TIP3    H175923   5.662   0.395  15.384  0.1105  0.8720  0.1412
18144TIP3    H275924   5.604   0.414  15.245 -0.9919  0.1202  0.4957
18145TIP3   OH275925   5.919   5.286  15.993  0.3387 -0.0748 -0.7168
18145TIP3    H175926   5.868   5.366  16.003 -0.8408 -1.0571  1.5333
18145TIP3    H275927   5.968   5.278  16.075  0.4095 -1.6664 -0.8962
18146TIP3   OH275928   3.342   3.429  14.186 -0.3466 -0.2097 -0.6405
18146TIP3    H175929   3.258   3.444  14.144  0.0456 -0.3804 -1.4948
18146TIP3    H275930   3.387   3.367  14.129 -0.2792 -1.3847  0.6596
18147TIP3   OH275931   4.042   6.089   1.194  0.4603 -0.2437  0.1966
18147TIP3    H175932   3.988   6.159   1.228  0.2267 -0.3437  0.0320
18147TIP3    H275933   4.043   6.102   1.100 -1.1161 -1.5412 -0.0258
18148TIP3   OH275934   4.878   5.546  12.635  0.3054  0.3363  0.5132
18148TIP3    H175935   4.929   5.546  12.716 -0.4695 -0.5679  1.0171
18148TIP3    H275936   4.925   5.484  12.578  0.6290  0.6685  0.4191
18149TIP3   OH275937   5.869   2.276  14.617  0.2421 -0.0580  0.3631
18149TIP3    H175938   5.960   2.296  14.595 -0.0189  0.3858 -0.3128
18149TIP3    H275939   5.823   2.277  14.533 -0.4599  0.0860  0.7433
18150TIP3   OH275940   6.368   2.675   5.701 -0.2809  0.3196 -0.1426
18150TIP3    H175941   6.363   2.739   5.631 -0.2067  0.2189 -0.2399
18150TIP3    H275942   6.279   2.672   5.738 -0.2842  0.4762 -0.1396
18151TIP3   OH275943   6.400   1.250   3.116 -1.2178  0.1605 -0.4525
18151TIP3    H175944   6.473   1.312   3.113  0.2836 -1.4946  1.3669
18151TIP3    H275945   6.410   1.204   3.199 -4.7548  0.3906  0.1662
18152TIP3   OH275946   4.034   3.975   4.345 -0.3021 -0.4396 -0.7939
18152TIP3    H175947   3.989   3.917   4.284 -2.1750 -1.2451  1.3270
18152TIP3    H275948   4.110   3.925   4.375  0.0289 -0.4428 -1.6199
18153TIP3   OH275949   4.581   4.522  15.904 -0.4758 -0.4163  0.2708
18153TIP3    H175950   4.489   4.546  15.889 -1.1494 -2.8343  0.2799
18153TIP3    H275951   4.579   4.465  15.981  0.9838 -0.7391  0.0858
18154TIP3   OH275952   5.448   5.260   3.867  1.1121  0.5199  0.2135
18154TIP3    H175953   5.367   5.232   3.824  1.6035 -1.9777  0.8596
18154TIP3    H275954   5.443   5.356   3.867 -1.3274  0.4260 -0.7139
18155TIP3   OH275955   0.610   1.725   2.659 -0.6806 -0.1747 -0.5765
18155TIP3    H175956   0.601   1.636   2.692  0.9242 -0.5660 -1.1341
18155TIP3    H275957   0.595   1.781   2.736  0.2232 -0.9842  0.2027
18156TIP3   OH275958   2.219   1.118  16.882 -0.6739 -0.2303  0.2292
18156TIP3    H175959   2.241   1.197  16.832 -0.7837 -1.1014 -1.2296
18156TIP3    H275960   2.251   1.046  16.828 -1.2859 -1.2288  1.1743
18157TIP3   OH275961   4.779   3.987  16.262 -0.3575 -1.0265  0.4354
18157TIP3    H175962   4.806   3.903  16.223  0.5726 -0.4668 -0.1455
18157TIP3    H275963   4.686   3.993  16.243 -0.2867 -1.6224 -0.1211
18158TIP3   OH275964   0.153   0.258  15.197  0.5642 -0.3050 -0.5721
18158TIP3    H175965   0.131   0.344  15.160  2.7551  1.0762  1.2245
18158TIP3    H275966   0.087   0.243  15.264  2.1572  1.6610  1.5470
18159TIP3   OH275967   0.107   1.482  12.756 -0.4153 -0.3898 -0.2203
18159TIP3    H175968   0.079   1.457  12.668  0.2491  1.2282 -0.9077
18159TIP3    H275969   0.121   1.577  12.751 -0.8180 -0.2108  1.7498
18160TIP3   OH275970   5.522   3.045  13.762 -0.3248  1.0347 -0.2409
18160TIP3    H175971   5.559   3.089  13.685 -1.3265 -0.8644 -1.8622
18160TIP3    H275972   5.428   3.061  13.756 -0.6421 -0.7298 -0.5338
18161TIP3   OH275973   5.723   5.062   4.826 -0.6240 -0.5571  0.0596
18161TIP3    H175974   5.649   5.007   4.848 -0.7519 -0.2934  0.2871
18161TIP3    H275975   5.692   5.115   4.752 -0.9643  0.1843  0.7247
18162TIP3   OH275976   1.708   4.350  16.046 -0.2547 -0.2061 -0.2288
18162TIP3    H175977   1.654   4.272  16.059 -1.9488  0.9691 -0.1012
18162TIP3    H275978   1.651   4.412  16.000  0.4315  1.6889  1.4193
18163TIP3   OH275979   3.357   1.244  13.442 -0.0910  0.1347 -0.0781
18163TIP3    H175980   3.419   1.175  13.469  0.3603  1.2196  1.7476
18163TIP3    H275981   3.402   1.289  13.371  0.6003 -0.0235  0.2512
18164TIP3   OH275982   2.517   6.421   4.541  0.2048  0.5115  0.0178
18164TIP3    H175983   2.501   6.513   4.560  2.8324  0.8420  0.8361
18164TIP3    H275984   2.596   6.421   4.487 -1.7874 -1.0639 -3.0439
18165TIP3   OH275985   4.165   0.457   2.180  0.2706  0.2113  0.7445
18165TIP3    H175986   4.160   0.414   2.266  0.1117  0.6940  0.9774
18165TIP3    H275987   4.088   0.514   2.177 -0.1965 -0.4540 -0.0761
18166TIP3   OH275988   4.614   5.653   5.444  0.1280  0.5195  0.1577
18166TIP3    H175989   4.628   5.591   5.516 -1.9238  1.7172  1.6400
18166TIP3    H275990   4.679   5.628   5.378  0.0176 -2.5548  1.1241
18167TIP3   OH275991   6.262   1.293   1.682 -0.5309 -0.3515  0.1251
18167TIP3    H175992   6.227   1.340   1.606 -2.3279  0.6637  1.5429
18167TIP3    H275993   6.280   1.205   1.649  2.2349  1.0527 -2.4138
18168TIP3   OH275994   4.406   2.437   3.297 -0.0105 -0.5183 -0.2451
18168TIP3    H175995   4.424   2.463   3.207  0.8499 -2.6731 -0.7446
18168TIP3    H275996   4.479   2.473   3.348 -1.9254  3.0757  0.0912
18169TIP3   OH275997   2.033   1.485  13.454 -0.5833  1.0494 -0.1347
18169TIP3    H175998   2.124   1.514  13.449 -0.5448  0.7926 -0.9947
18169TIP3    H275999   2.038   1.391  13.468 -0.7142  0.9544 -0.7166
18170TIP3   OH276000   6.665   4.739   0.308 -0.0649 -0.8534  0.5605
18170TIP3    H176001   6.672   4.724   0.214 -2.1936 -0.0286  0.2369
18170TIP3    H276002   6.748   4.781   0.332  0.4890 -1.0524 -0.9484
18171TIP3   OH276003   5.771   3.305   0.482 -0.3507  0.8950  0.1146
18171TIP3    H176004   5.814   3.282   0.400 -2.6264  1.3585 -1.2731
18171TIP3    H276005   5.725   3.387   0.462 -0.5402  1.2782  2.0070
18172TIP3   OH276006   4.286   5.612  13.992  0.0068  0.1067  0.6778
18172TIP3    H176007   4.237   5.587  13.913 -1.0162  1.1309  0.9727
18172TIP3    H276008   4.226   5.669  14.040  1.4595  1.2969  1.1161
18173TIP3   OH276009   2.617   3.199   5.146 -0.2635 -0.0929  0.2234
18173TIP3    H176010   2.577   3.125   5.099  0.7402 -0.6767  0.2770
18173TIP3    H276011   2.551   3.268   5.141 -1.2541 -1.0056  0.2301
18174TIP3   OH276012   5.138   4.200  16.952  0.1471 -0.1111  0.0414
18174TIP3    H176013   5.179   4.123  16.913 -0.4971  0.4501 -1.8043
18174TIP3    H276014   5.205   4.268  16.949 -0.4470  0.4395 -1.7965
18175TIP3   OH276015   1.341   2.463  16.637 -0.5668 -0.2476  0.5239
18175TIP3    H176016   1.366   2.445  16.547 -2.9658 -1.6242  0.0851
18175TIP3    H276017   1.404   2.414  16.690  0.2413 -0.2412 -0.4142
18176TIP3   OH276018   6.333   0.058  11.893 -0.1734  0.4219  0.1137
18176TIP3    H176019   6.401   0.003  11.932 -0.6511 -0.1773  0.1052
18176TIP3    H276020   6.261   0.055  11.955 -1.6361 -2.0088 -1.6348
18177TIP3   OH276021   0.782   3.097  17.056  0.3277  0.3892  0.4373
18177TIP3    H176022   0.687   3.109  17.049  0.0466 -0.4881  2.3643
18177TIP3    H276023   0.819   3.182  17.033 -0.9268  0.7209 -0.3838
18178TIP3   OH276024   5.546   0.678  15.573  0.6186 -0.5088  0.3411
18178TIP3    H176025   5.578   0.761  15.536 -0.4006  0.2974  1.2285
18178TIP3    H276026   5.493   0.640  15.503 -2.5640  1.7472  1.3952
18179TIP3   OH276027   1.152   3.100  11.982  0.1537  0.4641  1.0245
18179TIP3    H176028   1.223   3.039  11.959  1.4392  1.8923  1.0742
18179TIP3    H276029   1.181   3.140  12.064 -1.5548 -0.1992  1.9715
18180TIP3   OH276030   1.414   1.664   3.795  0.3057 -0.2712 -0.0712
18180TIP3    H176031   1.352   1.706   3.735  1.6710  0.8144 -0.7504
18180TIP3    H276032   1.430   1.578   3.756  0.8370  0.2545 -1.0329
18181TIP3   OH276033   4.842   2.615  14.627  0.6453 -0.0218 -0.0447
18181TIP3    H176034   4.758   2.578  14.651  0.3937 -1.0028 -2.3404
18181TIP3    H276035   4.905   2.544  14.641  0.5687 -0.4371 -1.6796
18182TIP3   OH276036   6.638   6.472   5.393 -0.3137 -0.6070 -0.1112
18182TIP3    H176037   6.726   6.509   5.403  0.2277 -1.2807 -2.0701
18182TIP3    H276038   6.653   6.380   5.372 -1.5446 -1.1009  1.1018
18183TIP3   OH276039   5.940   0.699  14.804  0.0958 -0.1991  0.1335
18183TIP3    H176040   5.953   0.765  14.736 -2.6529 -0.2335 -0.4659
18183TIP3    H276041   6.029   0.673  14.829  1.1937 -0.1182 -3.3745
18184TIP3   OH276042   6.632   5.164  14.754  0.7545  0.0212 -0.2413
18184TIP3    H176043   6.584   5.087  14.783 -2.9183  1.4602 -2.2210
18184TIP3    H276044   6.620   5.229  14.824  2.1353 -0.5076  0.4981
18185TIP3   OH276045   4.310   0.810   5.466 -0.0298  0.0926  0.4310
18185TIP3    H176046   4.313   0.715   5.476  0.7219  0.2366  1.6487
18185TIP3    H276047   4.394   0.841   5.501 -0.6351  1.2660  0.8864
18186TIP3   OH276048   3.786   2.137   3.815 -0.2302  0.0416 -0.1181
18186TIP3    H176049   3.811   2.050   3.846 -0.0718  0.1873  0.1597
18186TIP3    H276050   3.850   2.196   3.854 -1.1255  0.4415  0.7593
18187TIP3   OH276051   1.258   1.635   4.025 -0.4561 -0.4494 -0.5554
18187TIP3    H176052   1.242   1.541   4.019  2.2090 -0.8799 -1.5534
18187TIP3    H276053   1.305   1.656   3.945  1.4869  1.1756  0.9642
18188TIP3   OH276054   5.575   3.163   5.411  0.5280  0.0702  0.1810
18188TIP3    H176055   5.544   3.153   5.321 -0.6777  2.8579  0.2020
18188TIP3    H276056   5.557   3.079   5.453  0.3897 -1.0020 -1.9651
18189TIP3   OH276057   0.204   3.050   2.320  0.1774  0.6432  0.6460
18189TIP3    H176058   0.246   2.969   2.348 -0.2829  0.2953  0.3153
18189TIP3    H276059   0.276   3.102   2.283  0.6130  0.7115  1.5799
18190TIP3   OH276060   4.815   2.115  13.991 -0.2573  0.0878  0.1336
18190TIP3    H176061   4.881   2.171  14.031 -0.0491 -0.2836  0.3099
18190TIP3    H276062   4.862   2.070  13.920 -0.5975  0.6637 -0.4586
18191TIP3   OH276063   5.814   4.436  13.466  0.1967 -0.2907  0.5920
18191TIP3    H176064   5.732   4.393  13.441 -0.2744  0.1847  1.3041
18191TIP3    H276065   5.790   4.489  13.542  1.6207 -1.8470  2.1737
18192TIP3   OH276066   5.965   3.431  17.031 -0.2393  0.2567  0.3211
18192TIP3    H176067   5.925   3.413  17.116 -1.5041  3.3984  0.4382
18192TIP3    H276068   5.971   3.345  16.989 -1.7899 -1.0243  2.6020
18193TIP3   OH276069   6.442   3.180  14.255 -0.4258 -0.5386 -0.9888
18193TIP3    H176070   6.462   3.226  14.174 -0.3623  1.8339  0.3346
18193TIP3    H276071   6.441   3.088  14.230  2.2685 -0.0538 -3.1444
18194TIP3   OH276072   0.079   1.811  12.437  0.1842  0.5345 -0.4496
18194TIP3    H176073   0.105   1.810  12.345  1.3266  0.5141 -0.1256
18194TIP3    H276074   0.159   1.792  12.486 -1.0739 -2.7506  0.4267
18195TIP3   OH276075   0.011   1.146  12.373 -0.2099 -0.3061  0.3099
18195TIP3    H176076  -0.057   1.092  12.412 -0.6800  0.0968  0.0575
18195TIP3    H276077   0.007   1.126  12.279  0.5188 -0.8350  0.3926
18196TIP3   OH276078   6.462   1.439   1.016 -0.5198 -0.4090 -0.3110
18196TIP3    H176079   6.483   1.346   1.016  1.5623  0.0242 -1.6163
18196TIP3    H276080   6.519   1.477   0.950 -0.2319  2.0487  1.2524
18197TIP3   OH276081   2.991   4.163   1.080 -0.0435 -0.1275  0.2147
18197TIP3    H176082   2.982   4.252   1.115  0.9464  0.1259 -0.1547
18197TIP3    H276083   3.073   4.165   1.031  0.2783 -1.4117  0.6905
18198TIP3   OH276084   4.488   6.285  17.054 -0.0456  1.1927  0.6205
18198TIP3    H176085   4.473   6.245  16.969  1.4956 -1.9048  1.7453
18198TIP3    H276086   4.574   6.326  17.047  0.3732  0.3598  0.8948
18199TIP3   OH276087   4.621   2.410  15.638  0.0917 -0.1233 -0.6280
18199TIP3    H176088   4.633   2.370  15.724 -1.5324 -1.7341 -1.1234
18199TIP3    H276089   4.616   2.504  15.656 -0.6347 -0.4783  1.1014
18200TIP3   OH276090   2.554   1.289   0.329 -0.1322 -0.2864  0.1385
18200TIP3    H176091   2.620   1.358   0.326  0.1128 -0.5488 -0.4225
18200TIP3    H276092   2.575   1.231   0.256 -0.3770 -0.9234  0.5616
18201TIP3   OH276093   4.357   1.307  15.413  0.2008 -0.9482 -0.3899
18201TIP3    H176094   4.399   1.304  15.327  1.9799 -2.3222  0.4865
18201TIP3    H276095   4.324   1.218  15.427 -0.9678 -0.4774 -0.0634
18202TIP3   OH276096   3.193   3.388  11.660  0.4962 -0.1851  0.8947
18202TIP3    H176097   3.150   3.303  11.648  1.7810 -0.8599  1.0228
18202TIP3    H276098   3.180   3.434  11.577  1.0118 -1.0651  0.3206
18203TIP3   OH276099   5.144   4.647   5.872 -0.1945  0.4507  0.6314
18203TIP3    H176100   5.233   4.675   5.892  0.2177 -0.3307 -0.0919
18203TIP3    H276101   5.147   4.552   5.876 -0.8957  0.4045  0.1728
18204TIP3   OH276102   5.147   5.928   3.278  1.2000  0.1696 -0.1677
18204TIP3    H176103   5.170   5.844   3.318 -1.2681 -0.1096  0.7710
18204TIP3    H276104   5.228   5.978   3.278  2.1698 -1.3533  1.3996
18205TIP3   OH276105   2.243   5.828  16.252  0.0535 -0.4162  0.4665
18205TIP3    H176106   2.158   5.825  16.297 -0.4205 -0.0150 -0.3780
18205TIP3    H276107   2.227   5.885  16.176  0.8667 -0.9801 -0.1309
18206TIP3   OH276108   3.823   1.870  10.769 -0.1229  0.2973  0.0248
18206TIP3    H176109   3.883   1.874  10.694 -0.4128 -1.2223 -0.2955
18206TIP3    H276110   3.762   1.800  10.747 -0.6666  0.3415  1.3636
18207TIP3   OH276111   3.564   6.348   1.753  0.1479 -0.5374 -0.1781
18207TIP3    H176112   3.656   6.337   1.775  0.1431  0.9431  0.6443
18207TIP3    H276113   3.518   6.338   1.837 -0.0654  2.8344  0.1950
18208TIP3   OH276114   4.058   4.797  11.300 -0.2383 -0.0136  0.1583
18208TIP3    H176115   4.138   4.850  11.297 -1.0149  1.1454 -0.3116
18208TIP3    H276116   4.045   4.768  11.209 -0.0118 -0.7330  0.3488
18209TIP3   OH276117   4.123   2.569   6.437  0.6231 -0.8127  0.3347
18209TIP3    H176118   4.098   2.511   6.365  0.0395 -0.3394  0.1459
18209TIP3    H276119   4.060   2.641   6.432 -0.7058 -1.7698  2.5853
18210TIP3   OH276120   1.189   4.940   2.358 -0.3645 -0.2530 -0.9061
18210TIP3    H176121   1.220   4.980   2.276 -0.4729  3.5411  0.7956
18210TIP3    H276122   1.269   4.912   2.403 -0.1176  0.1221 -1.1094
18211TIP3   OH276123   1.676   2.637  15.178 -0.4715 -0.2245 -0.5266
18211TIP3    H176124   1.658   2.717  15.128  0.5772  1.9836  2.4158
18211TIP3    H276125   1.771   2.628  15.176 -0.4962 -0.6931  0.1109
18212TIP3   OH276126   1.170   1.953  11.989  0.4270  0.1034 -0.0172
18212TIP3    H176127   1.214   2.038  11.999  0.5853 -0.1351  1.4435
18212TIP3    H276128   1.184   1.930  11.897  1.0718  1.2849 -0.2341
18213TIP3   OH276129   3.678   6.558   1.566 -0.2974 -0.3090 -0.0113
18213TIP3    H176130   3.751   6.507   1.532 -0.2820 -0.9039  0.9085
18213TIP3    H276131   3.641   6.504   1.635 -0.8759  0.5053  0.3196
18214TIP3   OH276132   5.178   5.308  13.875  0.5673 -0.0700 -0.2638
18214TIP3    H176133   5.151   5.359  13.951  1.1494 -0.4389  0.1883
18214TIP3    H276134   5.128   5.345  13.802 -0.7106 -0.3519  0.4664
18215TIP3   OH276135   0.177   2.866  12.764  0.2364  0.4336  0.3150
18215TIP3    H176136   0.199   2.788  12.714 -1.5113  1.3190 -1.9157
18215TIP3    H276137   0.236   2.933  12.732 -2.1052  1.4790 -1.9683
18216TIP3   OH276138   1.205   3.606  11.502  0.0558 -1.0206 -0.8435
18216TIP3    H176139   1.218   3.525  11.550  0.8864  0.5043  1.6140
18216TIP3    H276140   1.288   3.653  11.511 -0.7069  0.5040 -1.4220
18217TIP3   OH276141   6.310   6.421  12.976 -0.2106  0.3725  0.2090
18217TIP3    H176142   6.314   6.512  13.005  0.1432  0.5378 -0.3440
18217TIP3    H276143   6.218   6.408  12.952  0.0635  1.1137 -1.3445
18218TIP3   OH276144   0.318   1.066  16.815 -0.4890  0.0446  0.4465
18218TIP3    H176145   0.393   1.124  16.803  2.0021 -2.3197  3.3860
18218TIP3    H276146   0.341   1.014  16.892 -5.0919 -0.9709  1.2943
18219TIP3   OH276147   3.236   3.457  12.807 -0.8381  0.2904  0.2173
18219TIP3    H176148   3.282   3.461  12.891 -0.8513 -0.2343  0.2522
18219TIP3    H276149   3.225   3.363  12.791 -4.5629  0.3849  1.6749
18220TIP3   OH276150   2.624   1.360   0.800 -0.1479 -0.5203  0.0041
18220TIP3    H176151   2.611   1.268   0.776 -1.9805 -0.1535 -0.4641
18220TIP3    H276152   2.642   1.358   0.894  1.3815 -1.4700 -0.2828
18221TIP3   OH276153   0.562   0.381   5.844  0.2338  0.1300  0.2225
18221TIP3    H176154   0.579   0.378   5.750  1.4473 -2.4478  0.4583
18221TIP3    H276155   0.634   0.433   5.880 -0.8498  2.0592 -0.3821
18222TIP3   OH276156   5.871   1.499  12.370 -0.1378  0.1789  0.6719
18222TIP3    H176157   5.889   1.584  12.329 -0.6689 -0.8606 -1.8520
18222TIP3    H276158   5.898   1.509  12.461 -0.7565  3.2261  0.5579
18223TIP3   OH276159   1.039   1.760   5.738  0.6180  0.2405  0.3646
18223TIP3    H176160   1.099   1.790   5.806 -0.0955  2.0575  0.2342
18223TIP3    H276161   0.995   1.684   5.775  1.2862  0.3402  1.3639
18224TIP3   OH276162   6.606   1.225   3.523  0.4976  0.0749 -0.5119
18224TIP3    H176163   6.626   1.236   3.430  1.6088 -0.3168 -0.3176
18224TIP3    H276164   6.689   1.237   3.567  0.1316 -0.6117  0.3707
18225TIP3   OH276165   0.225   2.894   6.283 -0.6438  0.2262 -0.6121
18225TIP3    H176166   0.196   2.896   6.375 -0.8581 -1.4109 -0.6295
18225TIP3    H276167   0.179   2.967   6.242  0.8243  2.0967  0.9659
18226TIP3   OH276168   0.721   3.562   2.822 -0.1024 -0.5311  0.1609
18226TIP3    H176169   0.721   3.624   2.894 -0.6840  0.5866 -0.7923
18226TIP3    H276170   0.646   3.587   2.768 -0.6690 -2.3995  0.0528
18227TIP3   OH276171   4.883   6.378  16.233 -0.2734  0.0376  0.0080
18227TIP3    H176172   4.882   6.392  16.139  0.0763 -1.0023 -0.1527
18227TIP3    H276173   4.973   6.397  16.259  0.3927 -2.5286 -0.3181
18228TIP3   OH276174   6.706   6.310  16.242  0.2120 -0.4575  0.2936
18228TIP3    H176175   6.660   6.337  16.162  0.5338 -1.0330 -0.0933
18228TIP3    H276176   6.790   6.355  16.238  0.3997 -0.8174  0.0874
18229TIP3   OH276177   5.804   0.405   1.161  0.3032  0.1775 -0.2000
18229TIP3    H176178   5.867   0.447   1.220  0.4618 -0.0594 -0.2045
18229TIP3    H276179   5.790   0.318   1.198 -0.1987  0.3112 -0.0662
18230TIP3   OH276180   5.586   5.953   4.585  0.2639 -0.2767 -0.4778
18230TIP3    H176181   5.579   5.918   4.496  0.1195 -1.4386 -0.0252
18230TIP3    H276182   5.580   5.876   4.641 -1.1242  0.5987  0.6018
18231TIP3   OH276183   5.951   0.817  13.626  0.0673  0.1282  0.1999
18231TIP3    H176184   6.020   0.816  13.693  0.4971 -1.5201 -0.2418
18231TIP3    H276185   5.870   0.805  13.675  0.2995 -0.1654  0.5162
18232TIP3   OH276186   0.323   5.949  12.794 -0.5140 -0.5036 -0.1462
18232TIP3    H176187   0.248   5.947  12.734 -0.7536 -1.1247  0.1646
18232TIP3    H276188   0.289   5.911  12.875 -0.1111  0.0626  0.2929
18233TIP3   OH276189   0.029   3.632   4.175  0.2185  0.0971  0.1759
18233TIP3    H176190   0.082   3.688   4.118 -0.7882  1.4180  0.5309
18233TIP3    H276191   0.028   3.676   4.260  1.4243 -1.6973  1.1471
18234TIP3   OH276192   1.435   3.026  16.770 -0.1957 -0.0619  0.4994
18234TIP3    H176193   1.506   3.037  16.706 -0.5554  0.8494  0.2488
18234TIP3    H276194   1.479   3.028  16.855  0.0239  1.1884  0.3764
18235TIP3   OH276195   5.062   2.200   3.040 -0.3783 -0.8046 -0.3358
18235TIP3    H176196   4.976   2.191   3.000 -0.9663 -0.3864  0.8400
18235TIP3    H276197   5.089   2.290   3.021 -1.3641 -0.0862  1.5974
18236TIP3   OH276198   3.688   2.583  13.318 -0.0795  1.3111  0.0627
18236TIP3    H176199   3.704   2.677  13.331  2.0400  1.1600 -1.0911
18236TIP3    H276200   3.766   2.553  13.271 -1.3094 -0.7804 -0.6807
18237TIP3   OH276201   1.975   5.118  10.546 -0.3347 -0.1967 -0.6029
18237TIP3    H176202   1.913   5.058  10.504 -0.5907  1.0670 -2.1027
18237TIP3    H276203   2.045   5.128  10.481  0.0508  0.5632 -0.0724
18238TIP3   OH276204   1.775   4.187  15.827  0.0257 -0.2410  1.0851
18238TIP3    H176205   1.791   4.259  15.888 -1.3242  0.0087  1.1627
18238TIP3    H276206   1.680   4.175  15.828 -0.0436 -0.0428 -1.1976
18239TIP3   OH276207   5.127   4.671  11.609 -0.2002 -0.0410  0.0981
18239TIP3    H176208   5.110   4.740  11.545 -0.4677 -0.1607  0.0370
18239TIP3    H276209   5.103   4.590  11.563  1.5697 -0.3237 -0.3822
18240TIP3   OH276210   1.196   2.787   5.633 -0.4830 -0.3397 -0.4632
18240TIP3    H176211   1.150   2.718   5.586 -1.5269 -0.4643  0.6902
18240TIP3    H276212   1.153   2.789   5.719 -0.0640  1.3311 -0.2823
18241TIP3   OH276213   0.371   3.918  12.614  0.5381  0.8428 -0.0960
18241TIP3    H176214   0.383   4.009  12.588  1.3126  0.8565  0.3032
18241TIP3    H276215   0.395   3.867  12.537 -2.7403  1.0394 -1.3410
18242TIP3   OH276216   2.184   1.406   4.498  1.2212 -0.4543  0.5524
18242TIP3    H176217   2.149   1.495   4.491 -0.1457 -1.0981 -0.9124
18242TIP3    H276218   2.215   1.400   4.589  0.5538  1.2270  0.9101
18243TIP3   OH276219   3.751   4.883  10.584  0.1787 -0.1133 -0.0920
18243TIP3    H176220   3.802   4.962  10.600 -0.7195  0.2673  0.9877
18243TIP3    H276221   3.810   4.811  10.606  0.9709  0.2398 -0.9992
18244TIP3   OH276222   3.206   1.078   2.652  0.6439 -0.8400 -0.0266
18244TIP3    H176223   3.153   1.108   2.579  1.6136 -0.9787 -0.8074
18244TIP3    H276224   3.279   1.140   2.656  0.3170 -0.5220  1.1698
18245TIP3   OH276225   6.242   0.522  12.327 -0.5494  0.4162 -0.7703
18245TIP3    H176226   6.329   0.555  12.351  0.1052 -1.6515 -0.2046
18245TIP3    H276227   6.183   0.595  12.347  1.1623  2.2257 -2.1379
18246TIP3   OH276228   0.743   2.515  11.310 -0.4800  0.3934 -0.3564
18246TIP3    H176229   0.762   2.606  11.332 -0.6199  0.2794  0.2354
18246TIP3    H276230   0.816   2.466  11.348  0.3811  0.4047 -1.9660
18247TIP3   OH276231   1.850   4.291   4.594  0.2974 -0.5637 -0.4847
18247TIP3    H176232   1.925   4.308   4.537 -1.7656 -0.9309 -3.4587
18247TIP3    H276233   1.828   4.199   4.577 -0.0811 -0.8277  1.3129
18248TIP3   OH276234   1.774   2.140  13.445 -0.6224 -0.4821 -0.2412
18248TIP3    H176235   1.824   2.062  13.472  0.2832 -0.0853 -0.7658
18248TIP3    H276236   1.774   2.136  13.350  0.9286  1.1073 -0.3175
18249TIP3   OH276237   5.888   3.056  12.279 -0.2201 -0.1397  0.2485
18249TIP3    H176238   5.855   3.091  12.196  1.7922 -0.3215 -0.6412
18249TIP3    H276239   5.938   2.978  12.255  0.0600 -0.4249  1.6737
18250TIP3   OH276240   4.418   3.067   2.502 -0.5547 -0.0146  0.3697
18250TIP3    H176241   4.350   3.134   2.506  0.5550  1.2133 -0.7273
18250TIP3    H276242   4.498   3.112   2.527  0.1783 -0.9655 -0.1982
18251TIP3   OH276243   1.808   3.558  16.684 -0.5711 -0.4476  0.1362
18251TIP3    H176244   1.722   3.595  16.664  0.0980  2.1799  1.8302
18251TIP3    H276245   1.795   3.509  16.765 -0.3657  0.5173  0.7651
18252TIP3   OH276246   3.626   0.413   6.500 -0.4880  1.1120  0.0094
18252TIP3    H176247   3.552   0.357   6.476  1.3943 -0.4763 -2.3653
18252TIP3    H276248   3.685   0.355   6.549 -0.7036  2.3316  1.7747
18253TIP3   OH276249   0.559   4.106   0.287  0.0867  0.2129  0.0201
18253TIP3    H176250   0.484   4.148   0.329  0.8849  0.8990  0.7702
18253TIP3    H276251   0.635   4.155   0.317  0.7527  0.2817 -1.6793
18254TIP3   OH276252   2.875   5.911   2.325 -0.0806 -0.7006  0.1151
18254TIP3    H176253   2.827   5.835   2.292  0.9150 -1.4214  0.2895
18254TIP3    H276254   2.878   5.898   2.420  1.3546 -1.2273  0.0182
18255TIP3   OH276255   3.918   1.850   5.887 -0.1665  1.1223 -0.7478
18255TIP3    H176256   3.924   1.936   5.845  0.0061  1.1837 -0.5984
18255TIP3    H276257   3.887   1.868   5.976  0.8966  1.1346 -0.3658
18256TIP3   OH276258   0.615   0.671   5.700 -0.2054  0.0819 -0.0993
18256TIP3    H176259   0.555   0.734   5.739 -2.5828 -1.5100 -1.0627
18256TIP3    H276260   0.659   0.630   5.775  0.1060  1.6343  0.5917
18257TIP3   OH276261   5.662   2.339   5.313 -0.0858  0.2215 -0.0968
18257TIP3    H176262   5.607   2.275   5.268  0.1512  0.3209 -0.5302
18257TIP3    H276263   5.620   2.423   5.295  0.4190  0.3431 -0.7658
18258TIP3   OH276264   4.130   2.759  16.844  0.3562 -0.2409 -0.4892
18258TIP3    H176265   4.049   2.782  16.800 -0.6200 -1.8562  0.4351
18258TIP3    H276266   4.191   2.830  16.821 -1.6135  1.5599 -0.2916
18259TIP3   OH276267   2.207   4.025  16.767 -0.1583  0.5097 -0.4460
18259TIP3    H176268   2.209   4.025  16.671  2.7402  0.2343 -0.4196
18259TIP3    H276269   2.201   4.118  16.790 -1.1399  0.5619 -0.8763
18260TIP3   OH276270   4.608   4.426   3.590  0.7406  0.2184 -0.0320
18260TIP3    H176271   4.618   4.341   3.633  1.8642  0.2941 -0.1457
18260TIP3    H276272   4.622   4.490   3.660 -0.8854  0.3252  0.2289
18261TIP3   OH276273   2.116   1.710  16.108 -0.1568  0.0459  0.2507
18261TIP3    H176274   2.027   1.690  16.135 -0.2853 -0.5836 -0.6134
18261TIP3    H276275   2.167   1.707  16.189 -0.7597 -0.4768  0.6145
18262TIP3   OH276276   6.024   3.683  14.416  0.1027  0.4972  0.4028
18262TIP3    H176277   6.073   3.752  14.372  1.5060 -0.3707  0.5792
18262TIP3    H276278   5.936   3.719  14.426  1.3023  3.0321  2.2674
18263TIP3   OH276279   5.932   2.199  13.688  0.1269  0.1692 -0.0454
18263TIP3    H176280   5.921   2.152  13.605 -0.2100  1.5706 -0.8090
18263TIP3    H276281   6.025   2.218  13.692  0.5427 -2.0289  1.0859
18264TIP3   OH276282   0.691   1.339   5.951  0.9531 -0.5929 -0.4747
18264TIP3    H176283   0.672   1.356   6.044  0.6659 -0.0573 -0.6292
18264TIP3    H276284   0.664   1.248   5.938 -1.0746 -0.0048 -0.5650
18265TIP3   OH276285   4.232   3.126  15.447  0.0279  0.3447  0.7192
18265TIP3    H176286   4.163   3.118  15.512  0.1422 -1.9155  0.6188
18265TIP3    H276287   4.299   3.179  15.490  0.7144 -2.2632  3.0427
18266TIP3   OH276288   2.204   4.545   2.242 -0.2650  0.3758  0.8208
18266TIP3    H176289   2.265   4.597   2.294  2.0744  0.9343 -2.3349
18266TIP3    H276290   2.235   4.455   2.250  0.7643  0.6047 -0.4355
18267TIP3   OH276291   3.778   0.345  12.569  0.4993 -0.4707  0.2073
18267TIP3    H176292   3.790   0.396  12.489 -0.3871 -2.2545 -1.0906
18267TIP3    H276293   3.713   0.394  12.620  0.3508  0.1582 -0.5864
18268TIP3   OH276294   6.419   1.702   1.735  0.0160  0.0927  0.5601
18268TIP3    H176295   6.399   1.774   1.795  0.5727 -0.2893  1.2212
18268TIP3    H276296   6.372   1.723   1.655  0.4094  1.3322  0.6559
18269TIP3   OH276297   5.029   0.634   1.647  0.1888 -0.0790 -0.2923
18269TIP3    H176298   4.995   0.586   1.722 -1.2894  2.1970  0.5333
18269TIP3    H276299   4.953   0.650   1.591  1.0599 -0.6631 -1.6712
18270TIP3   OH276300   4.149   3.168   1.272  0.2993 -0.0887 -0.4922
18270TIP3    H176301   4.231   3.215   1.258  0.5664 -0.1343  0.8724
18270TIP3    H276302   4.176   3.085   1.313 -0.5400  0.5345  1.3688
18271TIP3   OH276303   3.576   6.653   2.972 -0.0767  0.2767 -0.6389
18271TIP3    H176304   3.582   6.562   3.002  1.3986  0.9996  1.3641
18271TIP3    H276305   3.518   6.694   3.036  0.9894  1.2499 -0.3041
18272TIP3   OH276306   4.351   0.653   4.297  0.1430 -0.3086  0.4590
18272TIP3    H176307   4.339   0.594   4.223 -0.2614 -0.1220  0.3795
18272TIP3    H276308   4.357   0.594   4.373 -2.6007 -0.3614  0.6858
18273TIP3   OH276309   1.491   1.345   0.438  0.0251 -0.1370 -0.5754
18273TIP3    H176310   1.412   1.294   0.419 -0.1566 -0.7715  1.7314
18273TIP3    H276311   1.457   1.425   0.479  0.4768  0.5467 -1.5210
18274TIP3   OH276312   5.520   4.567  16.819  0.1180 -0.1987 -0.4574
18274TIP3    H176313   5.608   4.587  16.787 -0.4157  0.3737 -1.6214
18274TIP3    H276314   5.497   4.485  16.774  0.6472 -1.1790  1.0263
18275TIP3   OH276315   3.874   5.892  15.972 -0.4328  0.3716  0.0227
18275TIP3    H176316   3.897   5.985  15.977  2.2279 -0.3150  1.7208
18275TIP3    H276317   3.937   5.856  15.910 -1.0065 -0.4159 -0.0991
18276TIP3   OH276318   0.787   2.823   5.557  0.0101 -0.0085 -0.0910
18276TIP3    H176319   0.824   2.911   5.546  2.2940 -0.8816  0.3663
18276TIP3    H276320   0.749   2.802   5.471  0.6638  0.8790 -0.6033
18277TIP3   OH276321   6.308   0.797   5.481 -1.0011 -0.0723 -0.4720
18277TIP3    H176322   6.250   0.724   5.504 -1.8644  0.8983  0.5184
18277TIP3    H276323   6.314   0.849   5.561  0.6681  0.2390 -0.7821
18278TIP3   OH276324   5.505   5.816   3.393  0.3359  0.0729  0.5571
18278TIP3    H176325   5.572   5.750   3.381  0.1555 -0.0590  0.2552
18278TIP3    H276326   5.424   5.774   3.363  0.2097  0.4061  0.4291
18279TIP3   OH276327   1.717   2.366   1.407  0.4116 -0.1535 -0.1167
18279TIP3    H176328   1.691   2.448   1.364 -0.6660 -0.5316 -0.2169
18279TIP3    H276329   1.785   2.329   1.352 -1.7450 -1.2073 -2.1742
18280TIP3   OH276330   2.666   4.595  16.670 -0.3501 -0.0228 -0.2624
18280TIP3    H176331   2.662   4.523  16.734 -0.4122  0.4085  0.2289
18280TIP3    H276332   2.613   4.565  16.596 -1.7508  0.2002  0.6322
18281TIP3   OH276333   0.558   1.059  12.393  0.5076 -0.0379  0.1861
18281TIP3    H176334   0.598   1.113  12.460 -0.0976  0.5779  0.0535
18281TIP3    H276335   0.631   1.030  12.338  0.7518  1.3267 -0.2334
18282TIP3   OH276336   0.247   5.488  11.272 -0.2396 -0.2396 -0.0230
18282TIP3    H176337   0.250   5.479  11.367  0.8993  1.1641  0.1053
18282TIP3    H276338   0.337   5.469  11.244 -0.0171  1.4801 -0.5752
18283TIP3   OH276339   4.557   4.119  14.055 -0.4934 -0.4941 -0.0600
18283TIP3    H176340   4.520   4.178  14.121  0.8155  1.1603 -0.7506
18283TIP3    H276341   4.523   4.151  13.972  0.6946 -0.3500 -0.4977
18284TIP3   OH276342   4.783   5.964   1.551 -0.3120 -0.1457 -0.0652
18284TIP3    H176343   4.754   5.949   1.462  0.0926 -2.1323  0.1079
18284TIP3    H276344   4.710   6.009   1.594 -0.7851  0.1580 -1.1914
18285TIP3   OH276345   5.157   5.240  15.816  0.3740  0.1867  0.2428
18285TIP3    H176346   5.142   5.227  15.910  0.9431 -0.7191  0.2105
18285TIP3    H276347   5.074   5.216  15.775  0.0756  0.7272  0.5215
18286TIP3   OH276348   0.059   2.892  11.864 -0.4897 -0.3484  0.0335
18286TIP3    H176349   0.014   2.964  11.909  0.5523  1.1866 -1.3091
18286TIP3    H276350   0.083   2.929  11.779  1.0057 -1.9774 -0.2742
18287TIP3   OH276351   4.810   4.517  14.543  0.2993  0.0581 -0.1906
18287TIP3    H176352   4.883   4.454  14.547 -0.2680 -0.5770  0.2885
18287TIP3    H276353   4.852   4.602  14.533  1.0623 -0.4601 -1.5443
18288TIP3   OH276354   1.276   6.410  16.485 -0.0351  0.0556  0.2820
18288TIP3    H176355   1.280   6.490  16.537 -0.6865  0.9601 -1.0427
18288TIP3    H276356   1.364   6.374  16.489  0.2703  0.8530  0.8540
18289TIP3   OH276357   1.881   1.842  12.574 -0.4833  0.0887 -0.1965
18289TIP3    H176358   1.872   1.770  12.511 -1.5637 -0.7460  0.8915
18289TIP3    H276359   1.850   1.919  12.525 -0.4400 -0.3854 -0.9883
18290TIP3   OH276360   5.595   1.003   4.810  0.6843 -0.7180  0.0830
18290TIP3    H176361   5.537   1.022   4.737  0.2883  1.8377  1.0037
18290TIP3    H276362   5.683   1.024   4.777  0.6253 -0.6317 -0.0176
18291TIP3   OH276363   4.135   6.252   0.043  0.0724 -0.0494 -0.2135
18291TIP3    H176364   4.110   6.201   0.120  0.9713 -0.6692 -0.3269
18291TIP3    H276365   4.059   6.243  -0.016 -0.1115 -0.5958  0.0971
18292TIP3   OH276366   2.819   4.296  15.551  0.0217  0.9191 -0.1704
18292TIP3    H176367   2.833   4.202  15.561 -2.1731  0.3143 -2.3814
18292TIP3    H276368   2.906   4.331  15.532  0.5809 -0.8968 -1.0445
18293TIP3   OH276369   4.724   5.155  13.303  0.3719 -0.0788 -0.0782
18293TIP3    H176370   4.633   5.145  13.276  0.3827 -1.0707  0.2200
18293TIP3    H276371   4.730   5.106  13.385  1.5638 -1.4600 -0.9598
18294TIP3   OH276372   3.335   4.544   2.726  0.1565  0.2899 -0.1472
18294TIP3    H176373   3.415   4.581   2.763 -0.7998  1.6590  0.6336
18294TIP3    H276374   3.347   4.550   2.631  1.1843  0.0058 -0.0412
18295TIP3   OH276375   4.361   5.322  14.945 -0.1467 -0.1604  0.2725
18295TIP3    H176376   4.342   5.379  15.020  0.4077 -0.3929  0.5934
18295TIP3    H276377   4.453   5.338  14.925 -0.1329 -0.5550  0.0298
18296TIP3   OH276378   1.261   4.483  12.116 -0.0361  0.1579 -0.3637
18296TIP3    H176379   1.283   4.471  12.023 -0.9055  0.7688 -0.6543
18296TIP3    H276380   1.207   4.407  12.138  1.6453 -0.9141  0.1261
18297TIP3   OH276381   1.126   4.116   0.493  0.4677  0.4693 -0.8352
18297TIP3    H176382   1.162   4.028   0.495  0.5544  0.5163 -0.3202
18297TIP3    H276383   1.202   4.174   0.488  0.5098  0.5992  1.0008
18298TIP3   OH276384   3.358   5.830   3.677  0.5154  0.8175  0.6800
18298TIP3    H176385   3.314   5.875   3.605  0.1791  1.2438  1.1483
18298TIP3    H276386   3.425   5.777   3.634 -0.8904 -0.3885 -0.1207
18299TIP3   OH276387   6.470   1.479   5.245 -0.3246  0.0641  0.1792
18299TIP3    H176388   6.383   1.494   5.207  0.4938  0.2171 -1.6955
18299TIP3    H276389   6.522   1.554   5.217  0.2773  0.2517  1.7552
18300TIP3   OH276390   0.105   3.817  16.249  0.4209  0.1031  0.3912
18300TIP3    H176391   0.190   3.787  16.280  0.6017  0.0410 -0.1629
18300TIP3    H276392   0.122   3.901  16.208  0.4200 -0.4546 -0.7792
18301TIP3   OH276393   6.724   1.101   6.291 -0.5484  0.1663 -0.0500
18301TIP3    H176394   6.740   1.096   6.385  2.4744  0.0821 -0.5186
18301TIP3    H276395   6.729   1.194   6.270  2.6055 -0.0520 -0.6460
18302TIP3   OH276396   5.662   0.506  14.205  0.2066 -0.2157 -0.0749
18302TIP3    H176397   5.713   0.469  14.277 -1.8513 -1.5875  0.7127
18302TIP3    H276398   5.713   0.484  14.127  1.8775  0.2902  0.8342
18303TIP3   OH276399   0.170   1.758  17.228 -0.0118  0.3092 -0.1828
18303TIP3    H176400   0.168   1.717  17.142  0.6116  1.3396 -0.6977
18303TIP3    H276401   0.079   1.779  17.247 -0.0980  0.5230 -0.8122
18304TIP3   OH276402   1.114   6.752  15.835  0.3597  0.2356 -0.4397
18304TIP3    H176403   1.200   6.791  15.822 -0.5391  2.2818 -0.4617
18304TIP3    H276404   1.081   6.792  15.915 -0.5081 -0.6654 -0.3312
18305TIP3   OH276405   4.002   3.293   2.392  0.7476 -0.2667 -0.3826
18305TIP3    H176406   3.980   3.274   2.300  0.1478 -2.2747  0.1457
18305TIP3    H276407   3.923   3.272   2.440  0.7813  1.6282  0.5249
18306TIP3   OH276408   2.176   4.170  12.157  0.4288  0.2750  0.5057
18306TIP3    H176409   2.149   4.250  12.113  0.7727  0.6947  1.0503
18306TIP3    H276410   2.199   4.197  12.246  1.2395 -0.2984  0.4859
18307TIP3   OH276411   0.556   4.746  16.140  0.0865  0.1420  0.1884
18307TIP3    H176412   0.601   4.808  16.198  1.3422 -0.7498  0.1996
18307TIP3    H276413   0.490   4.705  16.196  2.0881 -1.5922  1.3885
18308TIP3   OH276414   0.563   6.286  11.522 -0.2483  0.0653 -0.2262
18308TIP3    H176415   0.493   6.349  11.504  0.2185  0.8664  0.7730
18308TIP3    H276416   0.633   6.337  11.563  1.0870 -0.6588 -1.5291
18309TIP3   OH276417   5.181   3.294   2.048  0.4411 -0.2213  0.5442
18309TIP3    H176418   5.181   3.201   2.025 -0.6134 -0.2682  0.6949
18309TIP3    H276419   5.273   3.315   2.063  1.1813 -0.3133 -3.2578
18310TIP3   OH276420   3.943   4.664  17.193 -0.4639  0.1014 -0.7101
18310TIP3    H176421   3.994   4.705  17.263  0.0068  1.1315 -1.6404
18310TIP3    H276422   3.853   4.689  17.211 -0.4181 -0.1378 -0.1384
18311TIP3   OH276423   2.096   1.062   2.339 -0.6440 -0.2241  0.1869
18311TIP3    H176424   2.145   1.142   2.320 -1.4479  0.3932  0.6954
18311TIP3    H276425   2.096   1.055   2.434 -1.4636 -0.2743  0.1863
18312TIP3   OH276426   5.054   6.110  11.875  0.7468 -1.2277  0.2259
18312TIP3    H176427   5.132   6.163  11.863  0.6620 -1.2170 -0.2671
18312TIP3    H276428   5.076   6.024  11.840  0.6982 -1.3663  0.5265
18313TIP3   OH276429   2.630   2.867  16.918 -0.1997 -0.5977 -0.4494
18313TIP3    H176430   2.671   2.813  16.850 -1.2047 -1.7698 -0.1469
18313TIP3    H276431   2.551   2.818  16.942 -0.5503  0.4827  0.6086
18314TIP3   OH276432   1.191   6.639   1.143 -0.0692  0.3018  0.2118
18314TIP3    H176433   1.192   6.556   1.191  1.9184  1.2374  1.8600
18314TIP3    H276434   1.161   6.703   1.206  0.8866  1.2646 -0.2910
18315TIP3   OH276435   2.840   1.535   3.291  0.0532 -0.2321  1.0127
18315TIP3    H176436   2.882   1.621   3.294 -0.9927  0.2524  2.2700
18315TIP3    H276437   2.761   1.545   3.344 -2.0297 -0.9551 -1.8538
18316TIP3   OH276438   5.509   5.472  11.774 -0.4283  0.8230  0.1909
18316TIP3    H176439   5.449   5.510  11.711  1.5229  2.5557 -0.6954
18316TIP3    H276440   5.494   5.377  11.768 -1.7100  1.1040 -1.3492
18317TIP3   OH276441   1.410   0.178  14.683  0.4679 -0.0474  0.1969
18317TIP3    H176442   1.456   0.131  14.614  3.8097  2.5059  0.5536
18317TIP3    H276443   1.361   0.246  14.637  1.3019  0.5398  0.1495
18318TIP3   OH276444   0.845   0.929   2.598 -0.2471  0.3003  0.3651
18318TIP3    H176445   0.879   0.937   2.687  1.6090  1.6222 -0.4295
18318TIP3    H276446   0.921   0.902   2.546 -1.2190 -0.0728 -0.8790
18319TIP3   OH276447   5.722   5.073   2.240 -0.6192 -0.2156 -0.5123
18319TIP3    H176448   5.712   5.152   2.186 -0.4712 -0.1217 -0.4034
18319TIP3    H276449   5.767   5.011   2.183  0.8906  0.3903 -0.0184
18320TIP3   OH276450   2.497   0.768  14.999 -0.2811 -0.7026  0.3121
18320TIP3    H176451   2.508   0.746  15.092  1.7713  0.2644  0.3401
18320TIP3    H276452   2.487   0.863  14.998 -0.0381 -0.6805 -0.4729
18321TIP3   OH276453   4.585   5.673   0.094  0.0922 -0.1031  0.5632
18321TIP3    H176454   4.598   5.664   0.189  1.7761 -0.1707  0.3412
18321TIP3    H276455   4.516   5.738   0.086  0.6371  0.6582  1.8288
18322TIP3   OH276456   1.341   5.455  11.951  0.6353 -0.0443  0.8519
18322TIP3    H176457   1.402   5.492  12.015  0.7258  1.9113 -0.3286
18322TIP3    H276458   1.289   5.530  11.922  1.3122 -0.7117 -2.1650
18323TIP3   OH276459   1.638   1.104  13.955 -0.5751  0.7146  0.3662
18323TIP3    H176460   1.632   1.116  13.860 -1.7766  0.7081  0.4409
18323TIP3    H276461   1.700   1.172  13.983 -1.3556  1.6951 -0.2369
18324TIP3   OH276462   0.463   1.511   5.412  0.3639 -0.1181 -0.0893
18324TIP3    H176463   0.434   1.497   5.502  0.2056 -0.1541 -0.1440
18324TIP3    H276464   0.517   1.590   5.415  0.9924 -0.5523  0.1692
18325TIP3   OH276465   2.861   3.439  13.158 -0.2135 -0.2447 -0.3195
18325TIP3    H176466   2.881   3.490  13.079  1.2257 -1.1107 -0.5313
18325TIP3    H276467   2.945   3.433  13.204 -0.4491 -2.0591 -0.1003
18326TIP3   OH276468   0.355   3.139  16.454 -0.3796 -0.8354 -0.4137
18326TIP3    H176469   0.413   3.063  16.444  1.7686  1.0453 -2.8355
18326TIP3    H276470   0.384   3.181  16.534  0.8168 -0.6001 -0.9595
18327TIP3   OH276471   3.452   1.700  13.819 -0.2281  0.4011 -0.2296
18327TIP3    H176472   3.509   1.775  13.800 -0.6658  1.4835  2.5723
18327TIP3    H276473   3.508   1.624  13.804  0.5455  1.2972 -2.0827
18328TIP3   OH276474   2.794   4.749  13.761 -0.3992 -0.3832  0.0702
18328TIP3    H176475   2.817   4.706  13.843 -0.3885 -2.5150 -1.0200
18328TIP3    H276476   2.700   4.764  13.767 -0.2776  0.1050  0.7609
18329TIP3   OH276477   2.310   2.890   1.376  0.2692 -0.1211 -0.3819
18329TIP3    H176478   2.232   2.911   1.323  1.0204 -1.2551 -1.9888
18329TIP3    H276479   2.377   2.868   1.311  2.3733  2.2517  0.9206
18330TIP3   OH276480   5.902   3.743  15.099 -0.4558 -0.2014  0.6541
18330TIP3    H176481   5.811   3.728  15.073  0.0597 -0.2727 -1.1453
18330TIP3    H276482   5.919   3.834  15.075  0.2543 -0.4978  0.0251
18331TIP3   OH276483   0.378   5.753   1.803  0.0182 -0.3439 -0.2325
18331TIP3    H176484   0.332   5.702   1.869 -0.1462 -1.8037 -1.4477
18331TIP3    H276485   0.457   5.784   1.848  0.5979 -2.4674  0.2888
18332TIP3   OH276486   1.359   4.395   4.760  0.0288  0.4122 -0.2198
18332TIP3    H176487   1.392   4.305   4.761  0.0049  0.3954 -0.7985
18332TIP3    H276488   1.429   4.446   4.802  1.0736  0.4651 -1.9854
18333TIP3   OH276489   4.090   1.889   1.442  0.1267 -0.4431 -0.5012
18333TIP3    H176490   4.008   1.896   1.491  1.3447  0.8744  1.3771
18333TIP3    H276491   4.089   1.964   1.382  0.3678  0.0729  0.1422
18334TIP3   OH276492   4.458   6.671   5.056 -0.2956 -0.1011  0.4346
18334TIP3    H176493   4.368   6.692   5.083 -0.3498  0.9856 -0.5377
18334TIP3    H276494   4.451   6.660   4.961  0.4327 -0.9629  0.4780
18335TIP3   OH276495   6.456   3.465  11.790  0.4673 -0.3046 -0.0776
18335TIP3    H176496   6.426   3.377  11.766 -1.7870  0.3209  0.2927
18335TIP3    H276497   6.378   3.519  11.782  1.7830  1.6262 -0.0451
18336TIP3   OH276498   1.349   0.729   2.388 -0.0927  0.8367  0.3391
18336TIP3    H176499   1.316   0.702   2.302 -1.2108  1.5884  0.5173
18336TIP3    H276500   1.316   0.663   2.449  0.1901  0.6422  0.2862
18337TIP3   OH276501   4.784   1.017   2.836 -0.3761  0.2894 -0.0012
18337TIP3    H176502   4.743   0.962   2.769  0.1433  0.2891 -0.3249
18337TIP3    H276503   4.789   0.961   2.913 -0.4862  0.1091 -0.1248
18338TIP3   OH276504   1.991   1.442  15.969  0.0763 -0.6545 -0.1106
18338TIP3    H176505   1.915   1.386  15.954 -0.3273 -0.2371  0.3369
18338TIP3    H276506   1.963   1.503  16.038  1.3600 -1.5632  1.2546
18339TIP3   OH276507   0.856   1.461   4.477 -0.1476 -0.4101 -0.3664
18339TIP3    H176508   0.803   1.539   4.495  0.4898  0.1291 -0.8108
18339TIP3    H276509   0.812   1.391   4.525 -0.1615  0.4070  0.8386
18340TIP3   OH276510   5.080   5.725  14.637 -0.3779  0.3276 -0.3429
18340TIP3    H176511   5.006   5.773  14.674 -2.0881 -2.3125 -0.1943
18340TIP3    H276512   5.155   5.750  14.691 -1.7829  0.6631  1.4899
18341TIP3   OH276513   3.395   2.612  15.369  0.3682 -0.0367 -0.6673
18341TIP3    H176514   3.412   2.519  15.378 -3.9606 -0.9036 -0.6458
18341TIP3    H276515   3.369   2.624  15.277  1.6419  1.2955 -0.8751
18342TIP3   OH276516   4.163   2.023  17.077 -0.0889  0.0753 -0.1566
18342TIP3    H176517   4.129   2.091  17.136 -3.6247 -0.9875 -0.8964
18342TIP3    H276518   4.167   1.945  17.131  0.6338  0.0390 -0.2531
18343TIP3   OH276519   5.486   2.717  12.461  0.3828 -0.1378  0.4867
18343TIP3    H176520   5.567   2.729  12.411  0.2374  1.5927  0.6448
18343TIP3    H276521   5.416   2.737  12.400 -0.0239 -3.0174 -0.0630
18344TIP3   OH276522   5.636   4.014   1.674  0.3776  0.0581 -0.3351
18344TIP3    H176523   5.705   3.985   1.734  0.9510 -0.5846 -1.3099
18344TIP3    H276524   5.554   3.995   1.721  0.8057 -0.9085  0.0296
18345TIP3   OH276525   6.749   5.479  15.872 -0.7813 -0.1636 -0.1338
18345TIP3    H176526   6.841   5.503  15.867 -0.9144  0.0791 -1.7647
18345TIP3    H276527   6.703   5.563  15.875 -0.9804 -0.2774  0.0242
18346TIP3   OH276528   1.005   4.748   0.137  0.4093 -0.4723 -0.3775
18346TIP3    H176529   0.924   4.712   0.173  0.6195  0.1558  0.7537
18346TIP3    H276530   0.985   4.763   0.044 -1.3358  1.2217  0.2380
18347TIP3   OH276531   0.590   3.494  15.893 -0.1806  0.7420  0.3187
18347TIP3    H176532   0.575   3.583  15.862 -1.3870  0.3985 -0.1272
18347TIP3    H276533   0.618   3.503  15.984 -1.3333  1.5141  0.5965
18348TIP3   OH276534   4.529   5.582  12.454  0.3471 -0.2378 -0.1362
18348TIP3    H176535   4.607   5.591  12.398  1.0425  0.3161  0.8954
18348TIP3    H276536   4.528   5.663  12.505 -0.3096 -0.7154  0.6113
18349TIP3   OH276537   3.894   2.301   2.593 -0.8789 -0.3009  0.0780
18349TIP3    H176538   3.916   2.264   2.678 -1.2598 -0.0940  0.2652
18349TIP3    H276539   3.822   2.246   2.561 -2.8675  1.5510  1.2769
18350TIP3   OH276540   2.469   2.495   0.912  0.1440 -0.0394 -0.0681
18350TIP3    H176541   2.517   2.440   0.973  0.3269  2.2634  1.9312
18350TIP3    H276542   2.416   2.552   0.968 -1.8233  0.2523 -2.1356
18351TIP3   OH276543   5.484   6.442   0.947 -0.0650 -0.1061 -0.1381
18351TIP3    H176544   5.565   6.392   0.940 -0.0749  0.0569 -1.6255
18351TIP3    H276545   5.453   6.450   0.856 -2.3904 -1.2443  0.5228
18352TIP3   OH276546   1.578   2.553   3.707  0.2370 -0.5217 -0.1494
18352TIP3    H176547   1.588   2.521   3.797  1.6037  0.1062 -0.0649
18352TIP3    H276548   1.571   2.475   3.654 -0.0756 -0.9066  0.4484
18353TIP3   OH276549   3.276   5.289   1.646  0.4355 -0.5478 -0.3200
18353TIP3    H176550   3.231   5.220   1.596 -0.7295 -1.1098  1.4885
18353TIP3    H276551   3.208   5.353   1.667  1.3005  0.6347 -1.0421
18354TIP3   OH276552   2.132   4.984  12.848 -0.2604 -0.5232  0.2746
18354TIP3    H176553   2.058   4.929  12.873  1.5811 -3.8082 -1.2365
18354TIP3    H276554   2.206   4.947  12.896  1.1852  0.0366 -1.4784
18355TIP3   OH276555   3.117   0.899  16.215  0.4577  0.1224 -0.6679
18355TIP3    H176556   3.212   0.900  16.226  0.4050 -1.5969  0.2600
18355TIP3    H276557   3.087   0.979  16.258  1.3434 -0.3458  0.8926
18356TIP3   OH276558   2.949   2.689   2.803  0.0490 -0.1728 -0.2347
18356TIP3    H176559   2.916   2.752   2.740  0.8261 -0.9976 -1.4834
18356TIP3    H276560   3.044   2.697   2.798  0.1010  0.9741  2.0935
18357TIP3   OH276561   0.181   4.286   2.906  0.1345 -0.4642  0.3018
18357TIP3    H176562   0.209   4.198   2.931  2.5951  0.1334 -0.1751
18357TIP3    H276563   0.234   4.344   2.960 -1.3426  0.7416  0.4895
18358TIP3   OH276564   3.575   0.126  10.951 -0.0222 -0.5137  0.2359
18358TIP3    H176565   3.655   0.177  10.956  0.2832 -0.8483 -1.1475
18358TIP3    H276566   3.602   0.040  10.920 -0.6455 -1.2958  1.7733
18359TIP3   OH276567   4.548   4.769  17.029  0.4054 -0.5411 -0.4303
18359TIP3    H176568   4.574   4.678  17.012 -0.5913 -0.5540 -1.9052
18359TIP3    H276569   4.526   4.804  16.943 -0.4558  0.7183  0.3032
18360TIP3   OH276570   5.452   2.141  12.601 -0.4786 -0.7445  0.3024
18360TIP3    H176571   5.541   2.124  12.568 -0.8270 -1.0694 -0.4881
18360TIP3    H276572   5.419   2.055  12.625 -1.0884 -0.8025 -0.7206
18361TIP3   OH276573   3.389   2.194  10.892  0.1237  0.1829 -0.2128
18361TIP3    H176574   3.442   2.225  10.965  0.9760  0.5991 -1.0024
18361TIP3    H276575   3.404   2.100  10.888 -1.3543 -0.1517  1.2913
18362TIP3   OH276576   3.589   6.479   2.066 -0.1590 -0.7998 -0.7506
18362TIP3    H176577   3.525   6.411   2.088  1.4779 -1.7197  1.3357
18362TIP3    H276578   3.543   6.535   2.003 -3.0646 -1.3164  0.8065
18363TIP3   OH276579   1.810   2.854  11.611 -0.2879 -0.4438  0.1545
18363TIP3    H176580   1.887   2.875  11.559 -1.2172  0.1528 -0.9967
18363TIP3    H276581   1.781   2.769  11.578 -0.1682 -0.6458  0.5559
18364TIP3   OH276582   2.467   5.283  16.965  0.3045 -0.5132 -0.7431
18364TIP3    H176583   2.451   5.377  16.974  2.1509 -0.2880  0.3880
18364TIP3    H276584   2.476   5.269  16.871 -0.6429  0.3160 -0.9721
18365TIP3   OH276585   5.549   1.068   4.480 -1.0703 -0.0546 -0.2979
18365TIP3    H176586   5.490   1.118   4.424 -1.0028  0.2088 -0.1338
18365TIP3    H276587   5.630   1.119   4.480 -0.4986 -0.9418 -1.3570
18366TIP3   OH276588   2.496   3.458  14.373 -0.0494 -0.3805 -0.1976
18366TIP3    H176589   2.506   3.540  14.325  1.5590 -0.2033  0.4150
18366TIP3    H276590   2.500   3.483  14.465 -0.8187 -0.9958  0.0078
18367TIP3   OH276591   3.391   4.941  11.674  0.5711 -0.3205  0.7502
18367TIP3    H176592   3.376   5.030  11.706  0.9213  0.4284 -1.1449
18367TIP3    H276593   3.311   4.894  11.696 -1.2399  1.4832 -1.8097
18368TIP3   OH276594   5.311   6.252  11.853 -0.0462  0.0624  0.0521
18368TIP3    H176595   5.291   6.324  11.793 -0.1704 -0.6214 -0.7419
18368TIP3    H276596   5.380   6.202  11.808 -1.5732 -1.6327 -0.4885
18369TIP3   OH276597   2.333   5.034  15.375  0.2715 -1.0131 -0.3887
18369TIP3    H176598   2.254   5.040  15.320 -1.4285 -0.6789  2.0118
18369TIP3    H276599   2.331   4.945  15.410  0.1096 -0.5113  0.8939
18370TIP3   OH276600   4.803   3.455  15.490  0.5639 -0.6270 -0.5666
18370TIP3    H176601   4.709   3.463  15.505  1.1155  0.6492  2.7973
18370TIP3    H276602   4.818   3.499  15.407 -1.5530  0.9482 -0.1515
18371TIP3   OH276603   5.490   4.108   5.342 -0.1297  0.5706  0.3169
18371TIP3    H176604   5.576   4.068   5.328  0.1521  0.4462  2.3031
18371TIP3    H276605   5.428   4.046   5.303  0.6542  0.4757 -0.7879
18372TIP3   OH276606   5.706   6.445  15.136  0.2864  0.0792 -0.3574
18372TIP3    H176607   5.798   6.446  15.108  0.1837 -1.2794 -0.7524
18372TIP3    H276608   5.700   6.368  15.194 -0.6566  0.0382 -0.5131
18373TIP3   OH276609   3.615   2.343  11.166 -0.5899  0.1031 -0.0290
18373TIP3    H176610   3.660   2.278  11.218  0.2436  0.1314 -0.7054
18373TIP3    H276611   3.674   2.361  11.092 -1.5111  0.4426 -0.7019
18374TIP3   OH276612   6.678   2.706  15.430  0.0668  0.2147  0.0366
18374TIP3    H176613   6.670   2.611  15.418  0.1979  0.2144 -0.0483
18374TIP3    H276614   6.594   2.732  15.468  0.1892  0.0062  0.4546
18375TIP3   OH276615   6.019   4.832   5.227 -0.0961  0.1142  0.2338
18375TIP3    H176616   5.954   4.861   5.162 -1.1006 -0.5068  0.9460
18375TIP3    H276617   6.085   4.785   5.176 -0.0055  1.0625 -0.5458
18376TIP3   OH276618   4.249   3.494  13.073 -0.1226 -0.5793  0.4955
18376TIP3    H176619   4.168   3.508  13.024  0.8229 -0.0268 -0.9224
18376TIP3    H276620   4.288   3.417  13.033  0.2466 -0.6090  0.9165
18377TIP3   OH276621   5.377   2.649   1.904 -0.2139 -0.6538 -0.1586
18377TIP3    H176622   5.305   2.680   1.960 -1.5946  0.2285 -2.3476
18377TIP3    H276623   5.427   2.590   1.960 -2.1705 -0.6382  1.6874
18378TIP3   OH276624   2.347   2.026  14.914 -0.0838  0.1574  0.1341
18378TIP3    H176625   2.254   2.003  14.909  0.6143 -2.8260  0.1358
18378TIP3    H276626   2.361   2.083  14.838 -1.7168 -0.0841 -0.3775
18379TIP3   OH276627   0.037   2.313  13.160  0.0849 -0.2932  0.4775
18379TIP3    H176628  -0.057   2.306  13.144  0.1900  1.0315 -0.7830
18379TIP3    H276629   0.060   2.401  13.132  1.5160 -0.2226  1.8130
18380TIP3   OH276630   1.990   2.965   0.566 -0.4727 -0.1020  0.2535
18380TIP3    H176631   1.934   3.042   0.558  1.2794  1.2567  0.8320
18380TIP3    H276632   2.016   2.963   0.658  1.0506 -0.2499 -0.1633
18381TIP3   OH276633   1.638   0.418   3.131 -0.3507  0.2051  0.0007
18381TIP3    H176634   1.644   0.510   3.104 -1.9263 -0.4466 -2.7750
18381TIP3    H276635   1.729   0.387   3.127  0.3978  1.9633  2.3336
18382TIP3   OH276636   2.179   2.557  15.315 -0.0743  0.1708  0.0781
18382TIP3    H176637   2.176   2.641  15.361 -0.6004  0.1659  0.0633
18382TIP3    H276638   2.217   2.496  15.378 -0.8436  0.1526  0.5382
18383TIP3   OH276639   1.878   1.157   5.898 -0.0174 -0.3701  0.1867
18383TIP3    H176640   1.939   1.155   5.972 -0.1580  3.2788  0.4708
18383TIP3    H276641   1.935   1.156   5.820  0.2722 -0.3814  0.3980
18384TIP3   OH276642   3.125   1.893  14.873  0.3425  0.3380 -0.3302
18384TIP3    H176643   3.131   1.861  14.963 -1.5112 -0.5172 -0.4831
18384TIP3    H276644   3.046   1.852  14.838  1.5066 -0.0359 -2.6486
18385TIP3   OH276645   4.197   4.804   4.201  0.0536  0.0965 -0.1442
18385TIP3    H176646   4.219   4.715   4.171 -0.4188  0.2195 -0.8864
18385TIP3    H276647   4.167   4.849   4.121 -1.2099  0.4452  0.5147
18386TIP3   OH276648   2.399   5.703  16.009 -0.2044 -0.4463  0.5193
18386TIP3    H176649   2.462   5.775  16.006 -0.4454 -0.2649 -0.3012
18386TIP3    H276650   2.441   5.637  16.065  0.9807 -0.5725 -0.4992
18387TIP3   OH276651   0.426   1.125   5.698 -0.1152 -0.2691  0.0612
18387TIP3    H176652   0.478   1.063   5.748  0.1839  0.0459  0.1431
18387TIP3    H276653   0.475   1.207   5.703  0.3485 -0.4349 -1.4391
18388TIP3   OH276654   0.987   4.040   1.148  0.0026 -0.1984  1.1372
18388TIP3    H176655   1.077   4.019   1.126 -0.4005  0.6500 -1.5057
18388TIP3    H276656   0.993   4.099   1.222  1.5581 -0.9261  1.6153
18389TIP3   OH276657   2.425   6.146  14.164 -0.2624 -0.2807 -0.6395
18389TIP3    H176658   2.498   6.186  14.115 -1.0424  1.6469 -0.2860
18389TIP3    H276659   2.400   6.213  14.227 -1.4128 -1.4960  0.2069
18390TIP3   OH276660   5.756   4.235   0.427 -0.2608  0.2370  0.1961
18390TIP3    H176661   5.767   4.186   0.508  0.5977  1.3660  0.7767
18390TIP3    H276662   5.668   4.274   0.434 -0.5032 -0.3083  0.2231
18391TIP3   OH276663   2.537   4.598   2.703 -0.4666  0.0041 -0.3914
18391TIP3    H176664   2.606   4.611   2.637  0.3168 -0.7361  0.2642
18391TIP3    H276665   2.523   4.503   2.704 -0.9068  0.0718  0.0705
18392TIP3   OH276666   4.575   3.385  11.992  0.3018  0.4677  0.2981
18392TIP3    H176667   4.639   3.434  12.043  0.3477 -1.5047  2.2158
18392TIP3    H276668   4.616   3.375  11.906  1.4752  1.3781  0.7311
18393TIP3   OH276669   2.851   0.687  10.841  0.5465  0.1309 -0.1507
18393TIP3    H176670   2.835   0.741  10.764 -1.3487  0.5458  0.5161
18393TIP3    H276671   2.882   0.604  10.806 -0.1145  0.3772 -1.3500
18394TIP3   OH276672   4.971   4.828  14.739  0.0031  0.1840  0.2865
18394TIP3    H176673   4.979   4.801  14.648  0.9757 -3.0972  1.2981
18394TIP3    H276674   5.023   4.909  14.744  0.8393 -0.1837 -1.8147
18395TIP3   OH276675   2.477   0.640  16.460  0.5719 -0.4983 -0.1680
18395TIP3    H176676   2.410   0.640  16.528  0.5134  0.3988 -0.2259
18395TIP3    H276677   2.442   0.583  16.392  0.6952 -1.5136  0.6063
18396TIP3   OH276678   5.270   5.471   5.949  0.0727 -0.1204 -0.1296
18396TIP3    H176679   5.272   5.442   6.040 -0.2153 -0.2723 -0.1707
18396TIP3    H276680   5.317   5.554   5.949  0.0445 -0.1033  0.1633
18397TIP3   OH276681   0.265   5.293   1.491  0.2388 -0.0097 -0.0435
18397TIP3    H176682   0.241   5.375   1.447 -0.3165 -0.3846 -0.4623
18397TIP3    H276683   0.181   5.248   1.504  0.5385 -0.5029  0.1887
18398TIP3   OH276684   1.250   0.761   0.992 -0.0017 -0.0257 -0.9570
18398TIP3    H176685   1.188   0.783   0.922 -1.2414  0.3161  0.2436
18398TIP3    H276686   1.323   0.822   0.979 -0.9256  1.0749 -1.0182
18399TIP3   OH276687   2.348   6.337  13.898  0.3036 -0.2358 -0.6929
18399TIP3    H176688   2.288   6.408  13.877  1.4243  1.1681  0.7030
18399TIP3    H276689   2.295   6.274  13.947  0.1201  1.3934  1.2747
18400TIP3   OH276690   6.664   2.792  12.054  0.4060  0.0172  0.1637
18400TIP3    H176691   6.580   2.757  12.025  0.8883 -0.9071 -0.1518
18400TIP3    H276692   6.652   2.887  12.055 -0.7269 -0.1214  0.4013
18401TIP3   OH276693   0.138   2.181  15.634 -0.1185  0.3643  0.0790
18401TIP3    H176694   0.135   2.234  15.555 -0.7667 -1.0409 -0.8487
18401TIP3    H276695   0.047   2.175  15.662  0.1489  1.1700  1.1520
18402TIP3   OH276696   3.126   5.145  12.290 -0.0322 -0.9625 -0.1440
18402TIP3    H176697   3.164   5.058  12.295 -0.2745 -1.0922 -0.5277
18402TIP3    H276698   3.195   5.203  12.321  0.1805 -1.2764 -0.0295
18403TIP3   OH276699   1.918   2.856  12.500  0.8048 -0.2907 -0.5162
18403TIP3    H176700   1.993   2.798  12.491  1.0133 -0.2782  0.9784
18403TIP3    H276701   1.928   2.895  12.587 -0.8168 -0.1437 -0.3771
18404TIP3   OH276702   5.740   3.160   1.714 -0.1118 -0.1902 -0.1430
18404TIP3    H176703   5.673   3.108   1.670 -0.7753 -0.6217  1.3334
18404TIP3    H276704   5.724   3.250   1.686  0.7161 -0.6943 -2.3051
18405TIP3   OH276705   2.323   4.897  14.854 -0.0014  0.8476 -0.1762
18405TIP3    H176706   2.404   4.915  14.901  3.0606 -2.8943 -3.5722
18405TIP3    H276707   2.302   4.806  14.877 -1.2726  0.6524 -1.9932
18406TIP3   OH276708   6.201   6.672  13.514  0.1243  0.1952  0.5407
18406TIP3    H176709   6.138   6.648  13.581  0.7737  0.9173  1.4172
18406TIP3    H276710   6.153   6.729  13.454 -0.0728  0.6902  1.1659
18407TIP3   OH276711   1.011   0.477  11.631 -0.7136 -0.1753 -0.0624
18407TIP3    H176712   1.029   0.570  11.620  0.7609 -0.4245  0.2465
18407TIP3    H276713   1.047   0.436  11.552 -1.4915 -0.4779 -0.2693
18408TIP3   OH276714   5.888   1.152  11.185 -0.0800 -0.5180 -0.3674
18408TIP3    H176715   5.910   1.086  11.119  0.1438  0.6684 -1.5024
18408TIP3    H276716   5.946   1.226  11.165 -0.4149  0.0687  0.8115
18409TIP3   OH276717   0.581   3.122   0.598  0.5085 -0.2627  0.2930
18409TIP3    H176718   0.552   3.071   0.674 -0.7894 -0.2527 -0.1782
18409TIP3    H276719   0.550   3.072   0.522  2.7733 -0.8669 -0.2872
18410TIP3   OH276720   0.536   2.017  10.751 -0.3192 -0.2751  0.2193
18410TIP3    H176721   0.500   1.937  10.789 -0.9594  0.0649  0.3307
18410TIP3    H276722   0.629   1.997  10.738  0.0106 -0.2639  2.3086
18411TIP3   OH276723   2.583   5.482   3.670  0.5790  0.2171  0.6695
18411TIP3    H176724   2.520   5.489   3.742 -0.5899 -3.1266  0.0489
18411TIP3    H276725   2.659   5.438   3.709  1.8069  2.5512  0.9557
18412TIP3   OH276726   6.050   4.096   5.791  0.1539  0.6437 -0.1268
18412TIP3    H176727   6.104   4.065   5.865 -1.7361  0.7135  1.3194
18412TIP3    H276728   6.107   4.158   5.745  1.3154  0.7250  1.3614
18413TIP3   OH276729   6.195   5.746  11.942 -0.2008  0.1314  0.4973
18413TIP3    H176730   6.188   5.654  11.967 -0.5194  0.0488  0.1105
18413TIP3    H276731   6.133   5.791  12.000  0.3487  0.1828  1.0603
18414TIP3   OH276732   4.432   0.077  11.558 -0.3442 -0.1209  0.4618
18414TIP3    H176733   4.368   0.019  11.599 -0.1544  1.0256  2.4195
18414TIP3    H276734   4.469   0.025  11.487 -1.3607 -1.8093  1.1458
18415TIP3   OH276735   0.960   3.764   3.522  0.2421 -1.0605 -0.4381
18415TIP3    H176736   1.007   3.800   3.447  0.6660  0.4845  0.5421
18415TIP3    H276737   0.881   3.816   3.529  1.2570  0.3050  1.5045
18416TIP3   OH276738   5.484   2.873   5.106  0.4179 -0.5590 -0.1512
18416TIP3    H176739   5.505   2.965   5.088 -1.2258 -0.0242  0.6150
18416TIP3    H276740   5.538   2.851   5.182 -0.2443  0.2107  0.5533
18417TIP3   OH276741   1.922   5.986  16.810 -0.0927 -0.3969  0.2081
18417TIP3    H176742   1.979   6.033  16.750 -0.0174 -0.2851  0.3631
18417TIP3    H276743   1.981   5.956  16.879 -0.1745 -0.5423  0.2133
18418TIP3   OH276744   2.159   0.029   5.489  0.0150 -0.1662 -0.5516
18418TIP3    H176745   2.126  -0.059   5.508 -0.9818  0.1164 -0.9184
18418TIP3    H276746   2.127   0.083   5.561 -2.1850  0.5322 -1.9656
18419TIP3   OH276747   2.284   4.924   3.532  0.4970  0.6808 -0.1354
18419TIP3    H176748   2.271   5.016   3.506 -1.9082  1.6621  4.0514
18419TIP3    H276749   2.363   4.925   3.586  2.4778 -0.3951 -2.9430
18420TIP3   OH276750   0.005   1.451  16.005  0.4449 -0.3837  0.2293
18420TIP3    H176751  -0.069   1.417  15.954 -1.1283  0.3353  1.9494
18420TIP3    H276752   0.049   1.511  15.945  0.2090 -1.5464 -1.1396
18421TIP3   OH276753   3.648   0.068  14.655 -0.1365  0.2061  0.2656
18421TIP3    H176754   3.739   0.093  14.642 -0.5285  1.5690  0.0182
18421TIP3    H276755   3.634  -0.005  14.596  0.0240  1.8366 -1.8319
18422TIP3   OH276756   0.860   1.170  13.248 -0.3283 -0.5474  0.3803
18422TIP3    H176757   0.930   1.229  13.277 -0.6313 -0.5046  1.0110
18422TIP3    H276758   0.816   1.219  13.178  0.0108 -0.4098  0.2571
18423TIP3   OH276759   2.190   2.603  11.732  0.2079  0.2893  0.8319
18423TIP3    H176760   2.277   2.568  11.713  0.1874  0.4159  0.5076
18423TIP3    H276761   2.151   2.619  11.646 -0.8767 -1.6193  0.9480
18424TIP3   OH276762   5.812   4.762   5.372 -0.7697  0.2119  0.6856
18424TIP3    H176763   5.886   4.815   5.343 -0.6112 -0.0054  0.6881
18424TIP3    H276764   5.851   4.676   5.390 -1.0689  0.0226  0.4255
18425TIP3   OH276765   0.313   4.119  12.149  0.3192 -0.1117 -0.7968
18425TIP3    H176766   0.319   4.031  12.186 -1.3268 -0.3901 -1.1481
18425TIP3    H276767   0.389   4.126  12.092  0.5589 -1.2423 -0.6394
18426TIP3   OH276768   5.020   1.306   2.012  0.3123 -0.1841 -0.1978
18426TIP3    H176769   5.009   1.223   1.965  0.8052 -1.3456  1.7150
18426TIP3    H276770   5.013   1.283   2.104  2.3905  1.6152  0.4380
18427TIP3   OH276771   0.355   4.863   4.983  0.0111  0.1516  0.2521
18427TIP3    H176772   0.331   4.925   4.914  0.1732  0.1608  0.2035
18427TIP3    H276773   0.328   4.778   4.949  1.7600 -0.0725 -0.6137
18428TIP3   OH276774   5.974   3.524  15.470  0.3171 -0.0953  0.0165
18428TIP3    H176775   5.997   3.451  15.412 -1.0740  0.1097 -0.8054
18428TIP3    H276776   5.985   3.602  15.416 -1.5141  0.0591 -0.1514
18429TIP3   OH276777   5.783   4.312   5.759  0.2193 -0.3780  0.4062
18429TIP3    H176778   5.826   4.261   5.690  1.4240  0.1903  0.7361
18429TIP3    H276779   5.773   4.251   5.832 -0.2289 -0.7218  0.0610
18430TIP3   OH276780   6.634   2.769   6.070 -0.7590 -0.3993  0.4169
18430TIP3    H176781   6.628   2.861   6.096 -1.2305  0.1062 -1.4202
18430TIP3    H276782   6.543   2.738   6.075 -0.5165 -0.9443  1.6193
18431TIP3   OH276783   0.062   3.368   2.173 -0.6883  0.6324 -0.3877
18431TIP3    H176784   0.123   3.437   2.148  0.1972  0.2576  0.7282
18431TIP3    H276785   0.115   3.289   2.180 -1.6892 -0.1737 -1.6202
18432TIP3   OH276786   5.530   1.377  13.881 -0.1334  0.0126  0.2045
18432TIP3    H176787   5.610   1.419  13.914 -1.1547  2.7457 -0.5960
18432TIP3    H276788   5.459   1.423  13.926 -1.3252 -0.5158 -1.1115
18433TIP3   OH276789   3.895   3.033   3.423 -0.0599 -0.5688  0.2880
18433TIP3    H176790   3.897   2.958   3.481  0.7816 -0.8825 -0.1403
18433TIP3    H276791   3.879   2.996   3.336  1.1454 -0.3305 -0.0391
18434TIP3   OH276792   3.981   4.515  11.355  0.1477 -0.5058  0.8510
18434TIP3    H176793   3.890   4.484  11.351  0.1529 -0.3940 -0.9331
18434TIP3    H276794   3.976   4.600  11.399 -0.9382  0.5241 -1.1780
18435TIP3   OH276795   2.556   0.505  12.662  0.3131  0.4765  0.4039
18435TIP3    H176796   2.489   0.565  12.630  1.0993  1.6790  0.9813
18435TIP3    H276797   2.522   0.474  12.746 -1.6400 -2.4966 -1.3862
18436TIP3   OH276798   6.758   2.736   0.786 -0.7086 -0.2416 -0.3294
18436TIP3    H176799   6.668   2.767   0.783  0.4059  3.1629 -1.3206
18436TIP3    H276800   6.796   2.780   0.862  0.8472  0.6099 -1.5630
18437TIP3   OH276801   4.547   0.685  15.372 -0.8649 -0.1870  0.1546
18437TIP3    H176802   4.558   0.734  15.454  0.2072  0.7246 -0.5250
18437TIP3    H276803   4.635   0.681  15.334 -1.3311 -0.7360 -0.8834
18438TIP3   OH276804   2.662   4.329  10.854  0.1357 -0.4014  0.7648
18438TIP3    H176805   2.689   4.317  10.763 -2.2171 -2.5201  0.3058
18438TIP3    H276806   2.682   4.245  10.895 -1.9098 -0.5873  1.3945
18439TIP3   OH276807   2.474   2.805   0.006 -0.0077  0.7783 -0.2373
18439TIP3    H176808   2.413   2.775  -0.061 -0.0011 -0.6718  0.3889
18439TIP3    H276809   2.428   2.877   0.050 -1.4023 -0.4648  0.3953
18440TIP3   OH276810   0.643   1.634  16.330 -0.4359 -0.1627 -0.2721
18440TIP3    H176811   0.657   1.658  16.422 -0.1877  1.4076 -0.6986
18440TIP3    H276812   0.590   1.554  16.334 -3.0916  1.5923  1.2398
18441TIP3   OH276813   2.339   1.226  11.803 -0.4849 -0.3635 -0.4511
18441TIP3    H176814   2.312   1.314  11.828  1.2380  0.4370 -1.3030
18441TIP3    H276815   2.341   1.228  11.707  0.4756 -1.0438 -0.4536
18442TIP3   OH276816   5.769   3.845  11.215 -0.2395  0.2652  0.6886
18442TIP3    H176817   5.813   3.777  11.266  1.2198 -0.2263 -1.1441
18442TIP3    H276818   5.838   3.909  11.197 -0.8159  0.6243 -0.2928
18443TIP3   OH276819   3.291   2.098   0.477 -0.1448  0.0276 -0.4613
18443TIP3    H176820   3.356   2.100   0.406 -0.4909 -1.6551 -0.8379
18443TIP3    H276821   3.226   2.034   0.447  0.1763 -1.3854  1.7853
18444TIP3   OH276822   5.746   1.805  12.275 -0.1752  0.3643 -0.1141
18444TIP3    H176823   5.823   1.766  12.234 -0.6003  0.0306 -0.6017
18444TIP3    H276824   5.737   1.891  12.234 -0.6141  0.0210 -0.7470
18445TIP3   OH276825   0.323   5.610   0.688  0.4872 -0.0819  0.7193
18445TIP3    H176826   0.415   5.628   0.703  0.9800 -1.9480  0.0462
18445TIP3    H276827   0.322   5.536   0.627 -1.4468 -0.0661  0.6929
18446TIP3   OH276828   5.088   0.941  14.251 -0.7983  0.1732 -0.4191
18446TIP3    H176829   5.122   0.872  14.308  1.3285  1.7326  0.2610
18446TIP3    H276830   5.025   0.988  14.305  1.3246  1.7410  0.7563
18447TIP3   OH276831   5.255   3.011   2.715 -0.4123  0.2520  0.5173
18447TIP3    H176832   5.285   3.048   2.632 -2.4625 -0.3275 -0.5076
18447TIP3    H276833   5.334   3.004   2.768  0.7567  1.5934 -1.0091
18448TIP3   OH276834   5.176   5.433   0.850  0.6897 -0.8370  0.5647
18448TIP3    H176835   5.101   5.471   0.804 -0.1764 -1.2412  1.6167
18448TIP3    H276836   5.210   5.367   0.789  0.7232 -0.0436 -0.2758
18449TIP3   OH276837   4.383   2.842  12.558  0.1841  0.2868 -0.2979
18449TIP3    H176838   4.385   2.791  12.639 -1.8015 -0.1360 -0.4877
18449TIP3    H276839   4.391   2.777  12.488  2.3036  0.6856 -0.4638
18450TIP3   OH276840   1.449   3.639   2.587 -0.2169  0.4151 -0.8962
18450TIP3    H176841   1.401   3.668   2.665  0.9604  1.6909 -0.6250
18450TIP3    H276842   1.384   3.594   2.534 -0.9771 -0.7794  0.9680
18451TIP3   OH276843   5.679   5.262  13.215 -0.1222  0.0326  0.1730
18451TIP3    H176844   5.657   5.197  13.149  0.4426 -1.0512  1.0343
18451TIP3    H276845   5.774   5.259  13.221 -0.1327  0.5706  0.5819
18452TIP3   OH276846   0.251   3.956  13.749  0.1852  0.4548  0.0903
18452TIP3    H176847   0.192   4.018  13.707  0.2601  0.8275  0.5431
18452TIP3    H276848   0.193   3.891  13.788  0.1329 -0.4502 -1.4376
18453TIP3   OH276849   3.518   0.716   1.419  0.0840  0.0805  0.4665
18453TIP3    H176850   3.553   0.631   1.445  0.2706 -0.2235 -0.7228
18453TIP3    H276851   3.429   0.697   1.389  0.5974  0.0527 -1.1206
18454TIP3   OH276852   0.854   2.386  13.381 -0.3522  0.3136 -0.0051
18454TIP3    H176853   0.899   2.414  13.301 -2.3931  1.0114 -0.9630
18454TIP3    H276854   0.835   2.467  13.428 -1.7042  0.1624 -0.2549
18455TIP3   OH276855   6.058   1.543   5.657  0.1321 -0.6678  0.0974
18455TIP3    H176856   6.138   1.595   5.660  0.0667 -0.4663 -1.1984
18455TIP3    H276857   5.991   1.599   5.697  0.4999 -0.5833  0.5914
18456TIP3   OH276858   0.411   4.724   4.697 -0.0760 -0.0919 -0.1828
18456TIP3    H176859   0.466   4.655   4.734  0.7414 -0.0570 -1.2988
18456TIP3    H276860   0.408   4.705   4.603  0.6065  1.6999 -0.5834
18457TIP3   OH276861   2.072   5.898  17.029 -0.1025 -0.2666  0.3122
18457TIP3    H176862   2.017   5.841  17.083 -0.0907  0.4764  1.1233
18457TIP3    H276863   2.161   5.874  17.052 -0.0887 -0.7571 -0.2448
18458TIP3   OH276864   0.686   1.839   5.254  0.0343  0.9919 -0.4687
18458TIP3    H176865   0.718   1.749   5.263  1.5238  1.4633 -0.9724
18458TIP3    H276866   0.603   1.839   5.302  0.8990 -0.1801  1.0959
18459TIP3   OH276867   0.674   6.072   1.246 -0.5593  0.0643  0.4001
18459TIP3    H176868   0.594   6.101   1.203  0.3499  1.4763 -0.3968
18459TIP3    H276869   0.729   6.038   1.174 -0.6039 -1.3291  0.9945
18460TIP3   OH276870   2.624   3.864  13.675 -0.1393  0.0569 -0.3828
18460TIP3    H176871   2.614   3.858  13.580 -0.3028  0.4131 -0.3914
18460TIP3    H276872   2.684   3.793  13.698 -1.7737 -1.3835 -0.4738
18461TIP3   OH276873   4.382   5.375  12.195  0.5024 -0.3005 -0.2609
18461TIP3    H176874   4.353   5.353  12.106  1.5052  1.2190 -0.9964
18461TIP3    H276875   4.319   5.332  12.252 -1.7998  0.9442 -1.7688
18462TIP3   OH276876   3.166   5.960   4.813 -0.0309  0.7528  0.1485
18462TIP3    H176877   3.238   6.017   4.842 -0.0310  0.8740 -0.0890
18462TIP3    H276878   3.087   6.002   4.846  0.1343 -0.3900  2.0660
18463TIP3   OH276879   3.445   0.562  13.334 -0.0133 -0.4131 -0.4596
18463TIP3    H176880   3.528   0.542  13.378 -0.2515  0.5465  0.4613
18463TIP3    H276881   3.469   0.623  13.264 -0.0817  0.7800  0.5377
18464TIP3   OH276882   4.935   0.879   0.523  0.3455  0.3653  0.0332
18464TIP3    H176883   4.913   0.815   0.455  1.0922  0.1907 -0.0489
18464TIP3    H276884   4.851   0.920   0.545 -0.1237 -0.5494  0.0034
18465TIP3   OH276885   4.549   6.779   0.545  0.5190  0.3209  0.5635
18465TIP3    H176886   4.631   6.741   0.513  1.1482  0.5661  1.8465
18465TIP3    H276887   4.572   6.870   0.566 -0.2101  0.5336  0.4489
18466TIP3   OH276888   4.746   1.218   5.924  0.4779 -0.2153  0.6472
18466TIP3    H176889   4.685   1.258   5.861  2.9315  2.1924 -0.3240
18466TIP3    H276890   4.727   1.263   6.007  1.4394  1.1327  0.1583
18467TIP3   OH276891   6.813   2.851   0.272 -0.1682  0.3468  0.2168
18467TIP3    H176892   6.799   2.945   0.281  2.0200  0.9367 -1.9312
18467TIP3    H276893   6.891   2.833   0.324 -1.1550 -0.5044  1.4503
18468TIP3   OH276894   0.579   1.188  14.493  0.1915 -0.6103 -0.1706
18468TIP3    H176895   0.547   1.267  14.450 -0.6226 -0.9382 -0.1855
18468TIP3    H276896   0.627   1.141  14.425  2.5126  0.8643  0.3769
18469TIP3   OH276897   5.703   1.938   2.984  0.8101 -0.0909 -0.3108
18469TIP3    H176898   5.682   1.999   3.055  0.7711 -0.3050 -0.1387
18469TIP3    H276899   5.709   1.853   3.027  1.0282 -0.1835 -0.5262
18470TIP3   OH276900   0.477   0.805  12.494  0.3845 -0.0685 -0.7615
18470TIP3    H176901   0.383   0.786  12.485  0.1653  0.5622  0.1155
18470TIP3    H276902   0.484   0.899  12.480  0.6314  0.1927  0.9807
18471TIP3   OH276903   3.437   3.877  14.939 -0.4878 -0.4327 -0.2415
18471TIP3    H176904   3.493   3.889  15.016 -0.9490 -0.7372  0.1479
18471TIP3    H276905   3.493   3.899  14.865 -0.1499  0.2413  0.2032
18472TIP3   OH276906   0.618   3.224  14.050  0.6075  0.0797  0.2562
18472TIP3    H176907   0.598   3.289  13.984  0.4668 -0.4414 -0.2193
18472TIP3    H276908   0.638   3.144  14.001 -1.2177 -0.8005  0.8742
18473TIP3   OH276909   5.245   4.337   3.256 -0.3638  0.4948  0.0511
18473TIP3    H176910   5.199   4.415   3.226 -0.9832  1.3234  2.9899
18473TIP3    H276911   5.216   4.268   3.197 -2.3002  1.8118 -0.5855
18474TIP3   OH276912   6.692   1.826  12.631 -0.0321  0.4522  0.3116
18474TIP3    H176913   6.705   1.768  12.556  0.3520  0.4721  0.3615
18474TIP3    H276914   6.765   1.806  12.690  0.1553  1.0502  0.2873
18475TIP3   OH276915   4.030   2.665  16.010 -0.3723  0.0002  0.1821
18475TIP3    H176916   4.026   2.701  15.921  0.8646  2.7786  1.1981
18475TIP3    H276917   4.038   2.570  15.997  0.8798  0.4375 -2.6818
18476TIP3   OH276918   4.830   5.172   3.167 -0.4845  0.0577  0.9133
18476TIP3    H176919   4.815   5.081   3.195  0.0990  0.5802  3.0139
18476TIP3    H276920   4.924   5.177   3.150 -0.2649  0.6506  2.2686
18477TIP3   OH276921   5.645   0.697   5.160  0.1967 -0.0050 -0.0916
18477TIP3    H176922   5.635   0.725   5.251  0.2424  0.3864 -0.2042
18477TIP3    H276923   5.664   0.604   5.165  1.4613  0.2657  0.3684
18478TIP3   OH276924   5.931   2.887   2.227 -0.0887  0.3629  0.0383
18478TIP3    H176925   5.913   2.975   2.261 -0.2095 -0.5606  2.5189
18478TIP3    H276926   5.973   2.842   2.301 -1.5309 -2.1543 -0.6369
18479TIP3   OH276927   5.827   6.809  13.441  0.5431  0.0698 -0.1475
18479TIP3    H176928   5.777   6.793  13.522  0.7382  1.2861  0.2278
18479TIP3    H276929   5.822   6.904  13.429 -0.1155 -0.1935 -1.9800
18480TIP3   OH276930   3.834   2.365  17.183 -0.2022  0.1854 -0.2805
18480TIP3    H176931   3.813   2.453  17.212 -2.0230 -0.8546  1.6971
18480TIP3    H276932   3.768   2.345  17.116  0.3977  0.4103 -0.9544
18481TIP3   OH276933   1.677   4.930   0.720  0.4399  0.1423  0.2465
18481TIP3    H176934   1.662   4.837   0.730 -0.2377  0.3651  1.3420
18481TIP3    H276935   1.762   4.936   0.675  0.8476 -0.9729  0.8586
18482TIP3   OH276936   1.121   3.094   0.483  0.4208  0.7045 -0.4961
18482TIP3    H176937   1.031   3.088   0.516  0.2424 -0.7784 -1.2366
18482TIP3    H276938   1.111   3.096   0.388  1.2234 -0.4428 -0.6075
18483TIP3   OH276939   0.160   0.131  16.158 -0.3901  0.2555  0.2705
18483TIP3    H176940   0.138   0.050  16.112 -0.7224  0.2200  0.4860
18483TIP3    H276941   0.199   0.103  16.241 -1.5290  0.2938  0.8448
18484TIP3   OH276942   2.834   0.608  13.547 -0.2967 -0.3770  0.0893
18484TIP3    H176943   2.819   0.544  13.616  0.5091 -1.5454 -0.8132
18484TIP3    H276944   2.759   0.668  13.553 -0.2176 -0.4270  2.0011
18485TIP3   OH276945   1.604   6.154  12.682 -0.2820 -0.0259  0.2250
18485TIP3    H176946   1.591   6.188  12.771 -1.4491 -1.0918  0.4905
18485TIP3    H276947   1.532   6.192  12.631 -1.3132 -1.6387  0.4165
18486TIP3   OH276948   4.001   0.939   4.400  0.2114  0.1412 -0.3296
18486TIP3    H176949   4.012   1.005   4.468  0.0992 -0.4976  0.3125
18486TIP3    H276950   3.922   0.966   4.354  1.4542  1.7624 -1.5760
18487TIP3   OH276951   1.115   1.037  11.806  0.3230 -0.3387 -0.3831
18487TIP3    H176952   1.080   1.010  11.891 -0.8525 -0.4657 -0.9031
18487TIP3    H276953   1.041   1.030  11.746  1.4325 -1.3949 -1.6676
18488TIP3   OH276954   5.904   2.175  11.636  0.4993  0.3309  0.3056
18488TIP3    H176955   5.936   2.099  11.684 -1.6910  0.9072  2.8416
18488TIP3    H276956   5.825   2.144  11.592 -0.7071  1.1885  1.7836
18489TIP3   OH276957   6.139   0.633   5.608 -0.0658  0.3716  0.5446
18489TIP3    H176958   6.099   0.553   5.574 -0.1193  1.0311 -0.9939
18489TIP3    H276959   6.066   0.694   5.618  0.1158  0.5635  0.7073
18490TIP3   OH276960   1.178   0.610   3.909  0.2658  0.5281  0.2144
18490TIP3    H176961   1.191   0.519   3.936  1.4619  1.2401  2.1566
18490TIP3    H276962   1.257   0.632   3.861 -1.1997 -0.2569 -2.6726
18491TIP3   OH276963   2.610   6.409   0.638 -0.0281  0.7665 -0.2905
18491TIP3    H176964   2.597   6.378   0.727  1.2803  1.7946  0.2745
18491TIP3    H276965   2.656   6.338   0.593 -0.9137  0.1476 -0.2257
18492TIP3   OH276966   3.679   3.647   1.210  0.1401  0.4592 -0.0971
18492TIP3    H176967   3.640   3.561   1.194 -1.6158  1.3925 -1.0545
18492TIP3    H276968   3.759   3.648   1.158 -0.2390 -0.3178 -0.7093
18493TIP3   OH276969   1.988   1.209  13.717  0.0996 -0.0017  0.1264
18493TIP3    H176970   2.015   1.126  13.757  2.2163  1.0772  1.0380
18493TIP3    H276971   2.009   1.198  13.624  1.5933 -0.0350  0.4516
18494TIP3   OH276972   0.828   6.559  15.246  0.3353 -0.0235 -0.5168
18494TIP3    H176973   0.734   6.542  15.240  0.7196 -2.2173 -0.4327
18494TIP3    H276974   0.860   6.497  15.311  1.9660  0.1968 -1.0885
18495TIP3   OH276975   2.676   3.828   1.594  0.9256 -0.0483  0.0029
18495TIP3    H176976   2.680   3.742   1.553  0.2868 -0.3615  0.6072
18495TIP3    H276977   2.601   3.825   1.652  0.7067  1.0242 -0.1990
18496TIP3   OH276978   0.483   4.820   5.461 -0.5134 -0.0519  0.0873
18496TIP3    H176979   0.467   4.829   5.367 -1.8897  0.6246  0.3796
18496TIP3    H276980   0.503   4.727   5.473 -1.1825 -0.3032 -0.7518
18497TIP3   OH276981   0.967   2.410   5.670 -0.0196 -0.6147  0.3888
18497TIP3    H176982   0.991   2.443   5.757 -0.0815 -0.5217  0.3699
18497TIP3    H276983   0.995   2.318   5.672  0.0288 -0.5985  0.4875
18498TIP3   OH276984   5.413   4.347  13.058  0.1151  0.6857 -0.2925
18498TIP3    H176985   5.373   4.395  12.985  0.7398  2.3622  0.4332
18498TIP3    H276986   5.364   4.377  13.135  0.6023  0.2405  0.1871
18499TIP3   OH276987   2.316   2.897  15.546  0.6729  0.7100  0.0607
18499TIP3    H176988   2.230   2.856  15.540  0.9344 -0.0094  1.0803
18499TIP3    H276989   2.302   2.976  15.598  0.5062  0.9626 -0.3635
18500TIP3   OH276990   2.145   3.925  10.867 -0.2424 -0.2900 -0.2005
18500TIP3    H176991   2.082   3.853  10.858 -1.1066  0.5840 -1.1858
18500TIP3    H276992   2.176   3.942  10.778  2.7065 -1.8433  0.4526
18501TIP3   OH276993   5.227   1.399   6.094  0.1676  0.8299 -0.2801
18501TIP3    H176994   5.256   1.441   6.175 -0.7774 -1.2760  1.1838
18501TIP3    H276995   5.273   1.315   6.093 -2.0684 -0.4223 -0.4236
18502TIP3   OH276996   4.944   5.883   0.605 -0.4619  0.0620 -0.5848
18502TIP3    H176997   5.006   5.930   0.549 -1.4765  0.3224 -1.5091
18502TIP3    H276998   4.985   5.884   0.692  0.9433  0.0087 -1.2250
18503TIP3   OH276999   4.748   2.655  15.085  0.0768 -0.0513  0.7302
18503TIP3    H177000   4.770   2.690  15.171  1.0539  0.9489  0.0927
18503TIP3    H277001   4.697   2.725  15.044  1.6418  0.4765 -0.3814
18504TIP3   OH277002   4.345   3.592  14.449 -0.3175  0.1241  0.9417
18504TIP3    H177003   4.425   3.562  14.492  0.0473 -0.4302 -0.1070
18504TIP3    H277004   4.373   3.618  14.361 -1.4265 -0.9518  0.2401
18505TIP3   OH277005   0.683   3.997  12.845  0.0421 -0.1585 -0.1192
18505TIP3    H177006   0.693   3.907  12.815  1.1823  0.7980 -2.7886
18505TIP3    H277007   0.765   4.017  12.891  0.0304 -0.3004 -0.0384
18506TIP3   OH277008   4.043   0.116  14.367 -0.0750  0.5702 -0.0890
18506TIP3    H177009   4.090   0.142  14.288  0.1478 -1.5151 -0.6736
18506TIP3    H277010   4.108   0.068  14.419 -1.5647 -2.6086 -1.0433
18507TIP3   OH277011   6.246   4.785   1.916 -0.4213  0.0704 -0.5294
18507TIP3    H177012   6.194   4.710   1.889 -1.3663 -0.1857  1.8270
18507TIP3    H277013   6.326   4.780   1.864 -0.7868 -2.1678 -0.9176
18508TIP3   OH277014   6.024   0.872   2.603 -0.2600 -0.1512 -0.6028
18508TIP3    H177015   6.071   0.836   2.528  1.5876  2.3257 -0.7004
18508TIP3    H277016   6.036   0.967   2.596 -3.0427  0.3644  0.8867
18509TIP3   OH277017   6.244   5.026   3.602 -0.3591  0.2771  0.3728
18509TIP3    H177018   6.196   4.993   3.526 -0.3320  2.3076 -0.5753
18509TIP3    H277019   6.179   5.028   3.673 -1.2171  1.2755 -0.4269
18510TIP3   OH277020   5.912   1.658  14.686 -0.7246 -0.0135 -0.2756
18510TIP3    H177021   5.846   1.718  14.650 -2.4164 -0.9390  1.2095
18510TIP3    H277022   5.981   1.715  14.720 -1.1755  0.9930 -1.0221
18511TIP3   OH277023   2.732   2.260   0.553 -0.3993 -0.2404  0.2814
18511TIP3    H177024   2.679   2.285   0.629 -0.5343 -0.9735  0.4285
18511TIP3    H277025   2.691   2.180   0.520 -1.4976  1.0824 -1.7045
18512TIP3   OH277026   6.342   3.550   5.112 -0.0480  0.0045 -0.4522
18512TIP3    H177027   6.344   3.470   5.060  0.1119  0.9124 -1.8694
18512TIP3    H277028   6.250   3.572   5.120 -0.0699 -0.1046 -0.4117
18513TIP3   OH277029   3.203   2.565  11.649 -0.3976  0.3389  0.5576
18513TIP3    H177030   3.220   2.597  11.738  0.5530  1.1351  0.0883
18513TIP3    H277031   3.259   2.618  11.593 -1.2789  0.0882 -0.5662
18514TIP3   OH277032   4.719   0.395  16.442 -0.2423 -0.0657 -0.2510
18514TIP3    H177033   4.709   0.481  16.482 -1.3672 -0.8592  1.2094
18514TIP3    H277034   4.779   0.348  16.500  0.3297 -0.3025 -1.0182
18515TIP3   OH277035   4.740   1.092   3.152  0.0188  0.2097 -0.4267
18515TIP3    H177036   4.696   1.169   3.119 -2.4177 -0.6985  0.6051
18515TIP3    H277037   4.803   1.126   3.216 -0.8542  1.3511 -0.1626
18516TIP3   OH277038   4.254   1.187   2.720 -0.0367 -0.0046  0.3831
18516TIP3    H177039   4.257   1.092   2.715 -0.9292  0.0253 -0.9300
18516TIP3    H277040   4.339   1.215   2.687 -0.8115 -0.2758 -1.9146
18517TIP3   OH277041   1.120   5.190   0.709 -0.2100 -0.4295 -0.5092
18517TIP3    H177042   1.136   5.264   0.651 -0.3148 -0.9275 -1.1857
18517TIP3    H277043   1.038   5.151   0.677 -0.0707 -0.9342 -0.2662
18518TIP3   OH277044   1.495   6.017  16.343  0.5710 -0.0076 -0.5450
18518TIP3    H177045   1.540   5.938  16.313  1.2176 -0.4009  1.4242
18518TIP3    H277046   1.402   5.999  16.327  0.8535 -0.4589 -1.7036
18519TIP3   OH277047   2.110   3.266   4.901  0.4229 -0.1373 -0.4432
18519TIP3    H177048   2.021   3.235   4.919  0.3560  1.0758  1.5495
18519TIP3    H277049   2.102   3.315   4.819 -0.7170 -0.2286 -0.4040
18520TIP3   OH277050   2.407   4.131  11.434 -0.1540  0.2244  0.6151
18520TIP3    H177051   2.368   4.080  11.363  1.3591  0.0410 -0.0990
18520TIP3    H277052   2.366   4.097  11.513 -0.7288 -0.6286 -0.0468
18521TIP3   OH277053   0.240   4.870  14.138  1.1103 -0.2706 -0.3512
18521TIP3    H177054   0.177   4.832  14.200  1.0710  0.2372 -0.0768
18521TIP3    H277055   0.323   4.873  14.186  1.1411 -0.1245 -0.4116
18522TIP3   OH277056   1.522   1.072   3.854  0.2677 -0.0803 -0.5148
18522TIP3    H177057   1.517   0.976   3.863  2.0205  0.0398  2.4857
18522TIP3    H277058   1.536   1.086   3.761  1.1634 -2.8409 -0.8606
18523TIP3   OH277059   0.083   3.025  16.088 -0.3947 -0.2027 -0.4280
18523TIP3    H177060   0.112   2.934  16.094  0.2803 -0.2394 -3.2467
18523TIP3    H277061   0.160   3.077  16.109 -0.7303 -0.2583  0.9958
18524TIP3   OH277062   3.528   3.360   2.962  0.9356 -0.1192 -0.0547
18524TIP3    H177063   3.549   3.451   2.943 -2.6543  0.6826 -0.5631
18524TIP3    H277064   3.595   3.310   2.917  3.2022  2.2587  0.5545
18525TIP3   OH277065   3.773   1.965   2.800 -0.4252  0.4155  0.2947
18525TIP3    H177066   3.704   1.924   2.747 -0.2526  0.6289 -0.0987
18525TIP3    H277067   3.852   1.957   2.746 -0.6379  2.4196 -0.3539
18526TIP3   OH277068   1.113   0.094  12.592  0.3313  0.6855  0.3243
18526TIP3    H177069   1.118   0.189  12.605  0.3636  0.4595  2.0147
18526TIP3    H277070   1.064   0.062  12.667 -1.0589 -0.4748 -1.0468
18527TIP3   OH277071   4.324   0.205  15.043 -0.1473  0.0860  0.6302
18527TIP3    H177072   4.238   0.168  15.023  0.5326 -1.0532 -0.2592
18527TIP3    H277073   4.363   0.224  14.958  0.9761 -0.6180  0.9706
18528TIP3   OH277074   0.617   3.853   5.479 -0.3558 -0.2395 -0.1005
18528TIP3    H177075   0.676   3.822   5.411 -0.1936  0.6556 -0.3797
18528TIP3    H277076   0.544   3.892   5.430  0.8689  2.5155  0.1997
18529TIP3   OH277077   5.160   1.005  13.992 -0.0240 -0.0922  0.0329
18529TIP3    H177078   5.161   1.101  13.997 -2.6498  0.0383 -0.9497
18529TIP3    H277079   5.136   0.977  14.080  0.8762  0.1382  0.3565
18530TIP3   OH277080   5.194   2.082   5.527  0.1253 -0.0987 -0.0712
18530TIP3    H177081   5.148   2.080   5.611 -0.0401  1.7578 -0.1082
18530TIP3    H277082   5.273   2.030   5.542  0.8803  1.5120  1.7127
18531TIP3   OH277083   0.471   4.797   2.090  0.0140 -0.1229 -0.7340
18531TIP3    H177084   0.445   4.741   2.163  0.7744  2.0201  1.2446
18531TIP3    H277085   0.566   4.792   2.089  0.0574  0.6518 -0.9136
18532TIP3   OH277086   3.445   5.085  11.421 -0.0540  0.1694  0.1908
18532TIP3    H177087   3.394   5.034  11.359  0.8658 -1.3368  0.6484
18532TIP3    H277088   3.533   5.090  11.384 -0.0357  1.1281  0.3268
18533TIP3   OH277089   5.815   6.491  10.819  0.2142  0.2392  0.3434
18533TIP3    H177090   5.847   6.401  10.819  1.3380  0.6172 -1.7149
18533TIP3    H277091   5.894   6.544  10.806 -0.7471  1.3837 -0.9242
18534TIP3   OH277092   2.528   1.571   4.466 -0.2073  0.4251  0.4204
18534TIP3    H177093   2.582   1.566   4.387 -0.0355  0.6440  0.5244
18534TIP3    H277094   2.483   1.486   4.470 -0.8992  0.7415 -0.3996
18535TIP3   OH277095   4.168   4.534  15.038  0.2231  0.2720  0.0815
18535TIP3    H177096   4.161   4.491  15.124  1.7392  0.0450  0.0921
18535TIP3    H277097   4.224   4.610  15.053  0.8375 -0.0050 -0.8009
18536TIP3   OH277098   4.322   0.426  17.248  0.5090  0.4659 -0.3636
18536TIP3    H177099   4.284   0.485  17.313 -1.3589 -0.2686 -0.7516
18536TIP3    H277100   4.306   0.338  17.284  1.1337  0.1205 -0.9216
18537TIP3   OH277101   6.020   2.764   3.046 -0.4453 -0.1452  0.4804
18537TIP3    H177102   6.020   2.753   3.141  1.2030 -0.9680  0.4036
18537TIP3    H277103   5.952   2.705   3.015 -0.0903 -0.8555  1.0514
18538TIP3   OH277104   5.556   2.576  15.741 -0.1615  0.2509 -0.7473
18538TIP3    H177105   5.629   2.627  15.705 -0.2121  0.9788  0.1789
18538TIP3    H277106   5.586   2.485  15.737  0.8244  0.5498 -0.2957
18539TIP3   OH277107   2.599   1.611  14.414  0.1203  0.1088  0.6146
18539TIP3    H177108   2.588   1.658  14.497  1.2333  2.6933 -0.6520
18539TIP3    H277109   2.662   1.542  14.434 -2.5498 -1.8142  2.8300
18540TIP3   OH277110   4.768   3.371  12.820  0.4821 -0.0712  0.1789
18540TIP3    H177111   4.693   3.319  12.851  0.3925  0.2358  0.4721
18540TIP3    H277112   4.844   3.329  12.861  0.4025  0.0801  0.4825
18541TIP3   OH277113   3.425   4.322  13.444  0.5151  0.0143  0.2558
18541TIP3    H177114   3.330   4.334  13.441  0.4673 -0.3379  0.4121
18541TIP3    H277115   3.460   4.405  13.412  0.2071  1.2225  2.8626
18542TIP3   OH277116   5.455   3.054  11.548 -0.0443  0.8914  0.1738
18542TIP3    H177117   5.529   3.112  11.533 -0.1691  0.3665 -2.6241
18542TIP3    H277118   5.416   3.042  11.462 -1.3670 -1.5395  1.0746
18543TIP3   OH277119   2.486   2.171   2.842 -0.1600  0.6649  0.2676
18543TIP3    H177120   2.492   2.168   2.937  0.6759 -0.1494  0.1962
18543TIP3    H277121   2.574   2.148   2.812 -0.7964 -0.5234 -0.7267
18544TIP3   OH277122   1.438   5.279  16.737  0.3619 -0.1038  0.3002
18544TIP3    H177123   1.374   5.217  16.771  0.2498  0.4545  1.1306
18544TIP3    H277124   1.386   5.352  16.704  0.5295 -0.0369  0.1855
18545TIP3   OH277125   1.481   0.222  11.498  0.4070 -0.1595 -0.4728
18545TIP3    H177126   1.418   0.263  11.439 -1.4581 -2.2827 -0.0031
18545TIP3    H277127   1.428   0.184  11.568  2.3074 -0.9436  0.5791
18546TIP3   OH277128   4.119   3.888  11.653 -0.1991  0.0945  0.0051
18546TIP3    H177129   4.036   3.842  11.641  0.2201 -0.8501  0.6555
18546TIP3    H277130   4.157   3.848  11.732 -0.1984  2.0914  1.0507
18547TIP3   OH277131   5.259   6.658   3.103  0.2351 -0.3067 -0.1519
18547TIP3    H177132   5.263   6.748   3.070 -1.8107  0.3991  1.4052
18547TIP3    H277133   5.202   6.613   3.041 -0.6766  0.1012  0.3737
18548TIP3   OH277134   1.814   1.868  15.821 -0.2165  0.2545 -1.0492
18548TIP3    H177135   1.793   1.860  15.727 -1.0902 -0.7499 -0.7868
18548TIP3    H277136   1.734   1.839  15.865 -0.8076  3.3741  0.0469
18549TIP3   OH277137   5.916   3.091   0.863 -0.4623 -0.5705  0.3282
18549TIP3    H177138   5.846   3.147   0.828  0.0027 -0.9594 -1.2532
18549TIP3    H277139   5.906   3.008   0.816 -0.2598 -1.3438  1.6388
18550TIP3   OH277140   4.521   3.920   1.845  0.0461 -0.2250 -0.1725
18550TIP3    H177141   4.602   3.962   1.819  0.6558 -1.2960 -0.0206
18550TIP3    H277142   4.452   3.982   1.819  0.8315  0.1605 -1.3626
18551TIP3   OH277143   0.448   3.751   6.266 -0.5119  0.0649  0.0181
18551TIP3    H177144   0.411   3.679   6.316 -0.5766 -0.3463 -0.6157
18551TIP3    H277145   0.377   3.779   6.208  0.4637 -1.3996 -1.9405
18552TIP3   OH277146   5.145   2.479  11.074 -0.3532 -0.2055  0.0064
18552TIP3    H177147   5.115   2.569  11.057 -1.7271 -0.7817 -0.7047
18552TIP3    H277148   5.188   2.484  11.159  1.1357  1.4852 -0.7973
18553TIP3   OH277149   4.126   6.604  13.591 -0.3719 -0.6720 -0.3923
18553TIP3    H177150   4.068   6.674  13.621 -0.4591 -1.2541  0.8093
18553TIP3    H277151   4.196   6.649  13.544 -0.4928  0.2117  0.2719
18554TIP3   OH277152   3.607   6.160  10.526  0.0460 -1.1410 -0.5118
18554TIP3    H177153   3.618   6.067  10.507 -0.1200 -1.2191 -0.2259
18554TIP3    H277154   3.591   6.164  10.620 -2.2631 -1.0427 -0.8627
18555TIP3   OH277155   1.109   0.127   0.080 -0.1470  0.2289  0.1150
18555TIP3    H177156   1.187   0.182   0.094  2.4180 -2.8945 -1.3313
18555TIP3    H277157   1.101   0.076   0.160  0.1294 -0.4362 -0.2800
18556TIP3   OH277158   3.951   1.602  11.682 -0.6581 -0.0515 -0.1980
18556TIP3    H177159   3.956   1.521  11.630 -1.0514 -0.4097  0.3035
18556TIP3    H277160   4.028   1.652  11.657  0.8214 -1.5792  1.1368
18557TIP3   OH277161   4.620   6.482   5.211  1.1332  0.3064 -0.0484
18557TIP3    H177162   4.580   6.558   5.169  2.5097  0.7714 -0.5527
18557TIP3    H277163   4.707   6.475   5.171  1.6514 -0.5389  1.1758
18558TIP3   OH277164   5.298   3.750   0.741  0.0240 -0.4406  0.0314
18558TIP3    H177165   5.307   3.710   0.655  1.1732  1.2431 -0.6501
18558TIP3    H277166   5.205   3.741   0.761 -0.4095 -0.1711 -1.7307
18559TIP3   OH277167   1.709   5.934  15.572  0.9473  0.0165  0.5004
18559TIP3    H177168   1.758   5.961  15.650  0.6511 -0.2696  0.7872
18559TIP3    H277169   1.695   6.016  15.524  0.5057  0.3048  1.1074
18560TIP3   OH277170   4.617   4.456   5.928  0.6199  0.0416  0.4827
18560TIP3    H177171   4.575   4.375   5.901 -2.2897  1.1824  1.3160
18560TIP3    H277172   4.641   4.442   6.019  0.5006 -0.0605  0.4984
18561TIP3   OH277173   1.235   0.539   5.816 -0.0288  0.3874 -0.4589
18561TIP3    H177174   1.250   0.451   5.849 -1.3517 -0.2704 -1.5438
18561TIP3    H277175   1.322   0.570   5.789  0.5781 -0.2124  0.7871
18562TIP3   OH277176   4.206   4.135  16.380 -0.2238  0.0964  0.4541
18562TIP3    H177177   4.220   4.068  16.447 -0.7534 -0.4600  0.0090
18562TIP3    H277178   4.124   4.178  16.406 -1.1312 -0.9941 -0.5573
18563TIP3   OH277179   4.599   2.284   3.577 -0.4851 -0.3810  0.1800
18563TIP3    H177180   4.670   2.265   3.638  0.6776  1.8441 -0.3968
18563TIP3    H277181   4.542   2.344   3.625 -0.1631  0.4762 -0.4704
18564TIP3   OH277182   4.648   4.381   6.185 -0.5877 -0.1651  0.3653
18564TIP3    H177183   4.684   4.459   6.227  1.6385 -0.9671 -0.0222
18564TIP3    H277184   4.616   4.327   6.257 -2.7210  1.3347  0.6067
18565TIP3   OH277185   5.143   4.195  15.713  0.3172 -0.1143 -0.0151
18565TIP3    H177186   5.217   4.135  15.711 -0.2238 -1.1103  5.0830
18565TIP3    H277187   5.066   4.138  15.713 -0.3311  0.7525  0.4902
18566TIP3   OH277188   0.582   0.286   1.161 -0.1662 -0.4822  0.0018
18566TIP3    H177189   0.673   0.293   1.132  0.7221 -0.3654  2.6715
18566TIP3    H277190   0.536   0.355   1.113  1.7210  1.3364  0.7454
18567TIP3   OH277191   3.745   3.307   3.898 -0.0867 -0.1698 -0.6265
18567TIP3    H177192   3.770   3.397   3.921 -1.5689  0.8040 -2.6832
18567TIP3    H277193   3.824   3.255   3.916  1.3857  1.8251 -1.1008
18568TIP3   OH277194   4.902   4.574   3.622  0.2017 -0.1343 -0.4730
18568TIP3    H177195   4.857   4.635   3.682  0.3299 -0.1128 -0.3983
18568TIP3    H277196   4.959   4.630   3.570  0.0707 -0.1499 -0.6337
18569TIP3   OH277197   1.496   2.066  13.305 -0.5120 -0.7914  0.3326
18569TIP3    H177198   1.565   2.083  13.369 -1.7646 -0.4059  1.6131
18569TIP3    H277199   1.451   2.150  13.294 -1.5462 -1.3096  0.4622
18570TIP3   OH277200   5.155   3.151   3.013 -0.1789  0.3757 -0.0153
18570TIP3    H177201   5.104   3.077   2.980  2.9570 -1.0784 -1.8486
18570TIP3    H277202   5.156   3.214   2.941  0.6669  0.3447 -0.0381
18571TIP3   OH277203   4.922   2.277   2.152 -0.3063  0.1124 -0.0675
18571TIP3    H177204   5.012   2.270   2.185 -0.3520 -0.3598 -0.0315
18571TIP3    H277205   4.931   2.317   2.066  0.0504 -1.0120 -0.5590
18572TIP3   OH277206   0.647   0.267  13.177  0.2940 -0.1031  0.1512
18572TIP3    H177207   0.599   0.349  13.164 -0.8734 -0.7943  0.0339
18572TIP3    H277208   0.675   0.270  13.268  1.7035  1.1803 -0.3034
18573TIP3   OH277209   5.019   1.645  12.941 -0.1103  0.2624  0.2809
18573TIP3    H177210   4.981   1.630  12.854 -0.7238  1.2842  0.3695
18573TIP3    H277211   5.003   1.737  12.959 -0.2328 -0.0058  1.6002
18574TIP3   OH277212   6.792   1.998  10.639  0.0968 -0.2332 -0.3514
18574TIP3    H177213   6.724   1.942  10.675  0.3024  0.1947  0.6974
18574TIP3    H277214   6.838   1.943  10.575 -2.0960 -0.1232 -2.0946
18575TIP3   OH277215   5.510   1.002  10.639  0.4196 -1.0284 -0.0535
18575TIP3    H177216   5.437   0.944  10.657  2.3269 -3.6177 -0.3061
18575TIP3    H277217   5.541   0.976  10.552 -0.0549  1.9217 -1.1746
18576TIP3   OH277218   2.379   4.477   3.987  0.3712 -0.4574 -0.4969
18576TIP3    H177219   2.415   4.404   4.037  0.6248  1.4291  2.2315
18576TIP3    H277220   2.449   4.543   3.987 -0.8447  0.8553 -0.4977
18577TIP3   OH277221   4.683   3.579   0.004  0.7175  0.5244 -0.3891
18577TIP3    H177222   4.667   3.670   0.031  1.7100  0.4767  0.3647
18577TIP3    H277223   4.753   3.586  -0.061 -0.2186  0.4257 -1.4492
18578TIP3   OH277224   0.030   3.205  12.386  0.6318  0.8078  0.5957
18578TIP3    H177225   0.105   3.147  12.400 -0.2431  0.1264  2.6764
18578TIP3    H277226  -0.042   3.162  12.433 -1.0590  1.4866 -1.3116
18579TIP3   OH277227   0.268   4.530   1.456  0.5668  0.5457 -0.1223
18579TIP3    H177228   0.334   4.547   1.523  0.8215  2.4321 -0.8261
18579TIP3    H277229   0.314   4.544   1.373 -0.7586  2.1383 -0.6141
18580TIP3   OH277230   5.904   0.323  12.953  0.4169  0.6397  0.8061
18580TIP3    H177231   5.936   0.409  12.980  0.5000  0.8746 -0.0218
18580TIP3    H277232   5.980   0.282  12.910  0.1521  0.4638  0.5074
18581TIP3   OH277233   0.194   2.789  14.905 -0.0997 -0.0105 -0.4037
18581TIP3    H177234   0.271   2.738  14.932 -0.0582 -0.2935 -1.0499
18581TIP3    H277235   0.133   2.725  14.871  0.6467  0.5319 -2.8516
18582TIP3   OH277236   4.039   4.639   2.450 -0.1081 -0.2594 -0.0687
18582TIP3    H177237   4.048   4.553   2.411 -0.5971 -0.0594 -0.6325
18582TIP3    H277238   3.972   4.628   2.518 -1.5186  0.0788 -1.3799
18583TIP3   OH277239   0.315   4.155  15.742  0.2406  0.5920  0.6088
18583TIP3    H177240   0.305   4.219  15.813  0.1599  0.8655  0.3496
18583TIP3    H277241   0.257   4.082  15.767 -0.7609  1.2328  0.2051
18584TIP3   OH277242   2.877   1.716  15.407  0.0910 -0.1946 -0.5121
18584TIP3    H177243   2.786   1.746  15.405  0.0823 -0.2502 -1.2815
18584TIP3    H277244   2.909   1.740  15.494 -1.2314 -1.8727  0.4693
18585TIP3   OH277245   5.333   6.363  15.643  0.3426  0.3000  0.1611
18585TIP3    H177246   5.335   6.340  15.550 -0.2412  0.5110  0.0979
18585TIP3    H277247   5.353   6.280  15.688 -2.0042 -0.4142 -0.0542
18586TIP3   OH277248   5.048   4.121   4.333  0.6761 -0.0559  0.6348
18586TIP3    H177249   4.953   4.136   4.332  0.6637  0.1556  2.4141
18586TIP3    H277250   5.059   4.033   4.297 -0.1461  0.1709 -0.1824
18587TIP3   OH277251   2.741   6.355   2.908 -0.6029  0.4125 -0.3788
18587TIP3    H177252   2.691   6.313   2.839 -0.0239 -1.2303  0.1802
18587TIP3    H277253   2.763   6.442   2.873  1.3180 -1.0825 -3.0252
18588TIP3   OH277254   4.759   5.853   4.761  0.0212  0.5217  0.2558
18588TIP3    H177255   4.709   5.771   4.764  1.5096 -0.3603  1.9912
18588TIP3    H277256   4.708   5.914   4.814 -0.7966  0.5524 -0.5603
18589TIP3   OH277257   2.496   6.418   4.167  0.4136  0.3795  0.7778
18589TIP3    H177258   2.530   6.464   4.090  0.0655  0.7954  0.8715
18589TIP3    H277259   2.572   6.409   4.225  0.4085  1.1978  0.9305
18590TIP3   OH277260   1.018   0.112   1.578  0.4835  0.4203  0.4183
18590TIP3    H177261   0.973   0.029   1.593  0.6549  0.1997 -0.2876
18590TIP3    H277262   0.949   0.178   1.588  0.6218  0.3163  2.3947
18591TIP3   OH277263   2.703   0.614  15.714  0.1915  0.4902  0.5802
18591TIP3    H177264   2.630   0.597  15.655 -0.5834  0.1169  1.6186
18591TIP3    H277265   2.728   0.704  15.696  0.5205  0.1105 -0.9025
18592TIP3   OH277266   3.245   5.275  11.488  0.5003  0.2116  0.2145
18592TIP3    H177267   3.299   5.202  11.458 -1.7794 -1.7186  0.6689
18592TIP3    H277268   3.155   5.247  11.471 -0.4769  2.3406  1.6928
18593TIP3   OH277269   0.226   4.336   3.314  0.0791 -0.0073  0.1833
18593TIP3    H177270   0.242   4.250   3.354  0.9924 -0.0991 -0.3796
18593TIP3    H277271   0.222   4.396   3.389  0.9760 -0.3068  0.4786
18594TIP3   OH277272   4.244   1.039   5.216 -0.4003 -0.0023 -0.6516
18594TIP3    H177273   4.175   1.063   5.153  0.1591  0.6389 -1.0209
18594TIP3    H277274   4.325   1.044   5.165 -0.2129 -2.0883 -0.5738
18595TIP3   OH277275   6.717   1.497   0.498  0.1451  0.3383 -0.1149
18595TIP3    H177276   6.803   1.503   0.457 -0.2807  0.8648 -0.9457
18595TIP3    H277277   6.655   1.506   0.425 -0.6233  1.0962  0.6274
18596TIP3   OH277278   4.402   0.257  14.720 -0.2747  0.0839  0.0838
18596TIP3    H177279   4.428   0.327  14.661  1.5890  1.1722  2.1485
18596TIP3    H277280   4.484   0.217  14.748 -1.0846 -0.1859  2.1812
18597TIP3   OH277281   4.328   6.666  12.914 -0.0191 -0.1060 -0.0610
18597TIP3    H177282   4.280   6.722  12.852  1.1358  1.3557  0.3376
18597TIP3    H277283   4.376   6.606  12.858 -1.8969 -1.2670 -0.4812
18598TIP3   OH277284   0.339   6.801   2.919  0.0044  0.1937  0.5324
18598TIP3    H177285   0.371   6.838   3.002  0.2049 -1.5552  1.2656
18598TIP3    H277286   0.249   6.774   2.937 -0.4390  1.1084 -0.2542
18599TIP3   OH277287   5.498   0.072   5.107  0.0524  0.1641  0.2624
18599TIP3    H177288   5.550   0.043   5.182 -0.6655 -1.9490 -0.0114
18599TIP3    H277289   5.498  -0.004   5.048  1.0960  1.9859 -2.1643
18600TIP3   OH277290   0.981   0.106   0.377 -0.1592 -0.1396 -0.1401
18600TIP3    H177291   0.965   0.199   0.393  0.4449  0.2210 -1.5805
18600TIP3    H277292   0.900   0.075   0.337  0.5745  0.4046 -2.1521
18601TIP3   OH277293   0.379   4.970  16.945  0.3240 -0.1122 -0.1962
18601TIP3    H177294   0.458   4.951  16.895  0.3858 -1.3448  0.3597
18601TIP3    H277295   0.408   4.978  17.036 -0.1810 -0.5569  0.0084
18602TIP3   OH277296   6.462   0.295  10.707 -0.8802  0.5133  0.0768
18602TIP3    H177297   6.498   0.209  10.728 -1.8755 -0.2295 -1.2216
18602TIP3    H277298   6.528   0.335  10.650 -1.2698 -0.1339 -0.8347
18603TIP3   OH277299   6.141   5.245   5.031 -0.4542 -0.1827  0.4978
18603TIP3    H177300   6.080   5.233   5.103 -1.2884 -1.0138 -0.3494
18603TIP3    H277301   6.094   5.217   4.953  1.1469 -1.2614 -0.1151
18604TIP3   OH277302   5.198   1.947  15.711  0.1074  0.1666 -0.3793
18604TIP3    H177303   5.223   1.861  15.679 -0.1346 -0.1484  0.2540
18604TIP3    H277304   5.273   2.004  15.690 -0.4396  0.1811 -2.3057
18605TIP3   OH277305   5.760   5.784  15.639  0.2782  0.4609  0.2120
18605TIP3    H177306   5.820   5.803  15.711 -0.3327 -0.1127  0.8810
18605TIP3    H277307   5.817   5.766  15.565  0.9893 -1.4202  1.1715
18606TIP3   OH277308   2.496   1.535  12.662  0.0456  0.9080  0.6346
18606TIP3    H177309   2.461   1.575  12.742  0.7009  2.0362  0.3752
18606TIP3    H277310   2.472   1.597  12.592 -2.1422 -0.9581 -0.3315
18607TIP3   OH277311   4.969   5.763   6.347  0.1087  0.3535  0.4139
18607TIP3    H177312   5.060   5.739   6.330 -0.8268 -1.0382 -2.9919
18607TIP3    H277313   4.953   5.838   6.289 -2.1871 -2.2997 -2.4989
18608TIP3   OH277314   5.478   4.235  14.494  0.1271  0.2659 -0.4810
18608TIP3    H177315   5.387   4.231  14.464  0.6739 -0.8140 -2.0272
18608TIP3    H277316   5.475   4.294  14.570 -1.8376  0.3287 -0.5757
18609TIP3   OH277317   5.487   0.236  11.030 -0.0656 -0.4908 -0.8889
18609TIP3    H177318   5.444   0.270  10.952 -1.3163 -1.3223 -0.5769
18609TIP3    H277319   5.562   0.187  10.997  2.0722  2.9448 -1.3197
18610TIP3   OH277320   1.061   2.934   3.480  0.2252 -0.3213  0.2101
18610TIP3    H177321   1.141   2.984   3.465  0.4917 -0.1645  2.0584
18610TIP3    H277322   1.002   2.996   3.524 -0.2370 -0.9834  0.5291
18611TIP3   OH277323   5.058   6.548   2.155  0.4275 -0.1200  0.2011
18611TIP3    H177324   5.086   6.458   2.167  1.4921  0.3389  1.2474
18611TIP3    H277325   4.987   6.561   2.217  0.7296 -0.0454  0.5342
18612TIP3   OH277326   2.076   2.631   0.393 -0.6608  0.3296 -0.3681
18612TIP3    H177327   2.086   2.600   0.303  0.7649 -1.1002  0.2524
18612TIP3    H277328   2.000   2.688   0.391 -1.7812 -1.1931 -2.1131
18613TIP3   OH277329   4.809   1.752  15.305  0.7492 -0.2625  0.2763
18613TIP3    H177330   4.857   1.822  15.261 -0.3390  0.2137 -0.1799
18613TIP3    H277331   4.788   1.787  15.391  2.8010 -1.1613  1.1736
18614TIP3   OH277332   6.558   1.138  16.139  0.0129 -0.6484  0.1245
18614TIP3    H177333   6.616   1.115  16.066 -1.1805  1.6690 -1.6326
18614TIP3    H277334   6.482   1.082  16.127 -0.3065 -0.0663 -0.6022
18615TIP3   OH277335   1.662   4.199   6.503  0.3113  0.1192  0.1392
18615TIP3    H177336   1.672   4.271   6.441  0.4056 -1.5302 -1.8204
18615TIP3    H277337   1.604   4.234   6.571  0.3480  2.0377 -0.7780
18616TIP3   OH277338   1.989   2.616  15.663  0.1784 -0.7639 -0.0133
18616TIP3    H177339   1.937   2.536  15.659 -0.4546 -0.3725  0.1290
18616TIP3    H277340   1.943   2.671  15.727 -0.2741  0.3154 -1.2309
18617TIP3   OH277341   0.557   1.263  14.845 -0.3217 -0.0096  0.7690
18617TIP3    H177342   0.543   1.172  14.870 -0.4414 -0.8744 -2.3195
18617TIP3    H277343   0.479   1.287  14.795  0.3430  1.3347  0.3501
18618TIP3   OH277344   6.630   5.200   2.798  0.2148  0.1073  0.1022
18618TIP3    H177345   6.584   5.235   2.874  0.6336 -0.0841  0.4486
18618TIP3    H277346   6.600   5.109   2.792 -1.5122  0.7393 -1.2996
18619TIP3   OH277347   3.266   2.036  16.285 -0.1616  0.2584  0.1926
18619TIP3    H177348   3.222   1.998  16.362  0.1624 -1.1493 -0.3004
18619TIP3    H277349   3.316   1.963  16.248  0.2443  1.1101 -0.9530
18620TIP3   OH277350   6.328   0.021   1.394  0.2324  0.2650  0.0189
18620TIP3    H177351   6.252   0.070   1.422 -0.0329  0.2565 -0.6634
18620TIP3    H277352   6.324  -0.061   1.443 -0.4661  0.0598 -0.3786
18621TIP3   OH277353   4.767   3.259  16.631  0.0989 -0.4932  0.2422
18621TIP3    H177354   4.830   3.306  16.577 -0.6976 -0.8459 -1.0098
18621TIP3    H277355   4.800   3.269  16.721  0.2970  1.8972 -0.0662
18622TIP3   OH277356   1.285   1.452   0.819  0.2831  0.8448  0.2348
18622TIP3    H177357   1.194   1.481   0.830 -0.2459 -0.6411 -0.2202
18622TIP3    H277358   1.326   1.523   0.770 -1.3519  0.2512 -2.0838
18623TIP3   OH277359   6.266   2.620   3.240 -0.5686 -0.1962 -0.4946
18623TIP3    H177360   6.204   2.693   3.244  1.0165  1.1761 -0.4131
18623TIP3    H277361   6.299   2.612   3.329 -0.5560 -0.8463 -0.5604
18624TIP3   OH277362   5.691   2.737   3.281  0.1431 -0.2254  0.0929
18624TIP3    H177363   5.726   2.825   3.272 -0.6974  0.1108  0.0837
18624TIP3    H277364   5.600   2.749   3.308 -0.0600 -1.0811 -0.1713
18625TIP3   OH277365   6.027   2.491  14.123  0.1452  0.1419 -0.2401
18625TIP3    H177366   6.058   2.407  14.155  0.7492  0.7148  0.6858
18625TIP3    H277367   6.085   2.556  14.163 -1.5467  1.1490  0.6568
18626TIP3   OH277368   0.870   0.171   3.542 -0.1827 -0.0357  0.2328
18626TIP3    H177369   0.913   0.251   3.509 -0.8736 -0.7574 -2.5812
18626TIP3    H277370   0.777   0.186   3.525 -0.3036 -1.4587 -0.4029
18627TIP3   OH277371   5.629   4.571  13.029 -0.3113 -0.1583 -0.2130
18627TIP3    H177372   5.585   4.487  13.041 -1.5647  0.4060 -0.8172
18627TIP3    H277373   5.720   4.554  13.053 -0.7888 -1.4147  0.7537
18628TIP3   OH277374   6.544   2.180  13.919 -0.5283 -0.4773 -0.2788
18628TIP3    H177375   6.583   2.213  13.838 -2.1160 -0.9392 -1.2580
18628TIP3    H277376   6.534   2.258  13.974  1.8049 -0.3608  0.0327
18629TIP3   OH277377   2.131   1.629  11.930  0.1350 -0.2053  0.2903
18629TIP3    H177378   2.205   1.678  11.966 -0.1819 -0.2998  1.0789
18629TIP3    H277379   2.078   1.695  11.886  1.0241 -0.2380 -0.8387
18630TIP3   OH277380   6.689   5.132   5.787 -0.6247  0.1856  0.4508
18630TIP3    H177381   6.631   5.208   5.791 -0.4229  0.3245  0.8095
18630TIP3    H277382   6.774   5.165   5.817 -0.9721 -0.6084  2.3573
18631TIP3   OH277383   5.410   5.743  13.175 -0.1391  0.4574 -0.0204
18631TIP3    H177384   5.368   5.784  13.250  1.8350  0.6241  1.0248
18631TIP3    H277385   5.484   5.695  13.212 -0.1767 -0.9338 -1.6597
18632TIP3   OH277386   2.994   2.915  15.923  0.5459 -0.2593  0.3791
18632TIP3    H177387   2.915   2.967  15.914  0.5501 -0.2530  0.3781
18632TIP3    H277388   3.038   2.924  15.839  0.0012 -1.1653 -0.0035
18633TIP3   OH277389   0.357   6.005   1.395  0.2329 -0.2004 -0.4377
18633TIP3    H177390   0.339   6.097   1.415  1.5844 -0.1971  0.8939
18633TIP3    H277391   0.441   5.988   1.437 -0.2728 -2.2027 -0.1946
18634TIP3   OH277392   2.419   6.095  16.255 -0.0771  0.2748 -0.0009
18634TIP3    H177393   2.380   6.011  16.280 -3.0209  1.3113 -0.8641
18634TIP3    H277394   2.443   6.084  16.163  1.0946 -0.1361  0.3432
18635TIP3   OH277395   1.509   5.482  11.140  0.0680 -0.2735 -0.2805
18635TIP3    H177396   1.490   5.501  11.232 -0.5391  1.0008 -0.6599
18635TIP3    H277397   1.424   5.487  11.096  0.4429 -0.2747 -1.0196
18636TIP3   OH277398   3.917   1.047  14.281  0.7362 -0.2370  0.5275
18636TIP3    H177399   3.948   1.049  14.190  1.9652 -0.3027  0.9383
18636TIP3    H277400   3.900   0.954  14.298  2.9016 -0.5476  1.1465
18637TIP3   OH277401   6.668   3.094  11.623  0.2996 -0.1831 -0.0254
18637TIP3    H177402   6.709   3.132  11.700 -1.2063 -2.6420  2.1085
18637TIP3    H277403   6.577   3.078  11.650  0.5920 -4.2963 -1.0487
18638TIP3   OH277404   3.237   4.800  17.248  0.4756 -0.1602 -0.2358
18638TIP3    H177405   3.233   4.894  17.268  0.8730 -0.3506  0.7814
18638TIP3    H277406   3.165   4.785  17.187 -0.4879  0.5375  0.7156
18639TIP3   OH277407   5.597   1.533   1.346 -0.5234 -0.2169  0.2553
18639TIP3    H177408   5.519   1.522   1.400 -0.6726  0.7532  0.2392
18639TIP3    H277409   5.670   1.527   1.408 -0.6198 -0.7709  0.3197
18640TIP3   OH277410   0.420   2.067  12.427  0.2796 -0.2739  0.1124
18640TIP3    H177411   0.448   2.119  12.502  0.1830 -1.4888  1.0052
18640TIP3    H277412   0.327   2.050  12.443  0.5548 -1.5906  0.3602
18641TIP3   OH277413   3.791   1.420   6.170 -0.3843  0.3090 -0.3196
18641TIP3    H177414   3.835   1.505   6.164 -0.1448  0.2774  0.8759
18641TIP3    H277415   3.799   1.395   6.262  1.6274 -2.1258 -1.0887
18642TIP3   OH277416   6.189   0.288   0.843  0.4641 -0.1532  0.3023
18642TIP3    H177417   6.137   0.208   0.840  1.2436 -0.6250 -1.0045
18642TIP3    H277418   6.271   0.265   0.801  0.1598  1.7406 -1.4114
18643TIP3   OH277419   5.816   0.880  16.380 -0.5075  0.0506 -0.2510
18643TIP3    H177420   5.839   0.966  16.413  0.5573 -0.4934  0.4457
18643TIP3    H277421   5.895   0.827  16.392 -1.4675 -1.2892  0.2616
18644TIP3   OH277422   6.378   1.645   5.966  0.3284  0.2147 -0.9967
18644TIP3    H177423   6.463   1.684   5.985 -0.4824  1.3596  0.3381
18644TIP3    H277424   6.396   1.551   5.961  1.4318  0.3209  0.6065
18645TIP3   OH277425   2.329   4.393   4.244 -0.1071  0.1472  0.5327
18645TIP3    H177426   2.280   4.431   4.171 -1.2308 -1.0720  0.6249
18645TIP3    H277427   2.332   4.462   4.310 -1.7884  0.2194  0.5536
18646TIP3   OH277428   2.318   4.842   3.980 -0.4310  0.2224 -0.2404
18646TIP3    H177429   2.281   4.817   3.895 -3.1008  2.2280  0.2624
18646TIP3    H277430   2.291   4.772   4.040 -0.6194  0.0290 -0.5515
18647TIP3   OH277431   2.298   0.310   4.776  0.5763  0.0732  0.7195
18647TIP3    H177432   2.241   0.235   4.764 -0.2853  1.0435 -1.5026
18647TIP3    H277433   2.334   0.300   4.865 -1.5531 -1.5498  1.4151
18648TIP3   OH277434   3.184   0.182   5.060 -0.2847 -0.0922  0.5037
18648TIP3    H177435   3.224   0.262   5.096  1.1984  0.0472 -1.3375
18648TIP3    H277436   3.190   0.119   5.131  0.7118  0.7572  1.2093
18649TIP3   OH277437   4.773   2.846   4.882  0.2860  0.4185  0.0889
18649TIP3    H177438   4.802   2.936   4.870  0.5298  0.1697 -1.2500
18649TIP3    H277439   4.697   2.837   4.824 -0.0563 -0.0903  0.6067
18650TIP3   OH277440   6.637   2.935  12.976  0.1707  0.6727  0.0106
18650TIP3    H177441   6.602   2.909  13.061  0.8570  0.5237  0.2445
18650TIP3    H277442   6.650   2.853  12.929  0.0311  0.7407 -0.1463
18651TIP3   OH277443   4.725   0.225  11.381 -0.0821  0.2844  0.5216
18651TIP3    H177444   4.752   0.179  11.460 -0.4842 -1.1670 -0.1718
18651TIP3    H277445   4.644   0.270  11.406  0.7614  1.3469  1.4384
18652TIP3   OH277446   1.674   4.092  16.541 -0.2665  0.2982 -0.4856
18652TIP3    H177447   1.655   4.023  16.604  2.1158  1.7993  2.0052
18652TIP3    H277448   1.619   4.165  16.568  0.4372  0.8050 -0.4099
18653TIP3   OH277449   1.390   5.882   1.381  0.0387 -0.1207  0.5643
18653TIP3    H177450   1.368   5.824   1.454  1.5880 -0.1194  1.0636
18653TIP3    H277451   1.309   5.890   1.331 -0.3138 -2.3508  0.7282
18654TIP3   OH277452   4.110   1.239  10.623  0.0427 -0.1985 -0.3346
18654TIP3    H177453   4.048   1.187  10.572 -1.4601  0.2877  0.9663
18654TIP3    H277454   4.191   1.238  10.571 -1.5682  0.6566 -2.9171
18655TIP3   OH277455   5.847   3.590   1.980  0.4010  0.1651 -0.6774
18655TIP3    H177456   5.808   3.676   1.996  2.7800  1.3265 -0.7667
18655TIP3    H277457   5.827   3.539   2.059 -2.2029  0.3162 -1.2026
18656TIP3   OH277458   4.154   6.259  11.472 -0.2571  0.2189 -0.0160
18656TIP3    H177459   4.125   6.217  11.391 -2.1643  2.8816 -0.7639
18656TIP3    H277460   4.248   6.275  11.459 -0.1256 -1.1775 -0.8745
18657TIP3   OH277461   4.749   3.756   2.034 -0.3327 -0.1946  0.2871
18657TIP3    H177462   4.769   3.832   1.979 -0.4274 -0.4175 -0.0613
18657TIP3    H277463   4.826   3.745   2.090 -0.0720 -0.1967 -0.0708
18658TIP3   OH277464   4.124   2.890  14.338 -0.4580 -0.0128 -1.3492
18658TIP3    H177465   4.093   2.965  14.387 -0.2877 -1.1267  0.4994
18658TIP3    H277466   4.208   2.918  14.302  0.4851  0.1022  0.8505
18659TIP3   OH277467   1.219   5.269  16.003  0.4734  0.1996 -0.1054
18659TIP3    H177468   1.198   5.188  15.958  2.5468 -0.4534  0.0286
18659TIP3    H277469   1.146   5.328  15.984 -0.3130 -1.1938 -1.4468
18660TIP3   OH277470   4.886   3.900  13.127  0.0391 -0.1515 -0.1251
18660TIP3    H177471   4.911   3.827  13.183 -1.4801  0.6181  1.6116
18660TIP3    H277472   4.969   3.944  13.107  0.7260 -1.0674  0.6529
18661TIP3   OH277473   0.488   6.074   2.439  0.0966  0.2127 -0.3493
18661TIP3    H177474   0.539   6.001   2.403  3.6314  2.9198 -1.0267
18661TIP3    H277475   0.477   6.134   2.365 -0.4127  1.6478  0.8658
18662TIP3   OH277476   1.632   1.833  14.436  0.1079 -0.5354 -0.3095
18662TIP3    H177477   1.636   1.760  14.374 -1.8847 -0.3360 -0.7095
18662TIP3    H277478   1.593   1.905  14.387  0.7035  0.3638  0.5038
18663TIP3   OH277479   2.838   0.861  15.590 -0.5846  0.5221  0.0106
18663TIP3    H177480   2.930   0.840  15.607 -1.0381 -1.1207  0.4683
18663TIP3    H277481   2.839   0.905  15.504  0.4534 -0.8534 -0.6953
18664TIP3   OH277482   4.352   3.182   4.305  0.2377  0.0054  0.4083
18664TIP3    H177483   4.426   3.243   4.300  1.3136 -1.3050 -0.0732
18664TIP3    H277484   4.301   3.212   4.380  1.4170  0.7597  0.9173
18665TIP3   OH277485   0.534   4.195  14.161  0.0138  0.0068  0.3467
18665TIP3    H177486   0.487   4.112  14.168 -2.8190  1.5126 -0.3253
18665TIP3    H277487   0.483   4.256  14.213  1.9298  1.4254  0.6157
18666TIP3   OH277488   3.530   2.571   1.050  0.1709 -0.4484  0.5576
18666TIP3    H177489   3.567   2.623   1.122  0.4934  0.1719 -0.0579
18666TIP3    H277490   3.599   2.571   0.984 -0.9505  0.7508 -0.6274
18667TIP3   OH277491   1.755   1.817   5.669  0.5794 -0.5763  0.1122
18667TIP3    H177492   1.768   1.865   5.587  1.0789 -1.4479 -0.3249
18667TIP3    H277493   1.663   1.790   5.667 -0.4314  2.5465  1.5529
18668TIP3   OH277494   3.350   0.011  13.611  0.2813  0.2671 -0.0183
18668TIP3    H177495   3.411  -0.018  13.542  0.1651 -1.5826  0.6408
18668TIP3    H277496   3.332   0.102  13.590  1.5123  0.1760 -1.5332
18669TIP3   OH277497   2.669   0.112  16.981 -0.2568 -0.3124  0.4679
18669TIP3    H177498   2.699   0.172  16.913  0.3847 -0.1158  0.9208
18669TIP3    H277499   2.747   0.065  17.008 -0.6089 -0.7657  0.7028
18670TIP3   OH277500   5.996   3.068  12.678  0.4094  0.5590  0.7658
18670TIP3    H177501   6.056   3.039  12.609 -1.1438  0.1468 -0.4472
18670TIP3    H277502   6.025   3.156  12.701  1.8456  0.1250  0.6307
18671TIP3   OH277503   2.452   4.880  11.393 -0.0104  0.3322 -0.1272
18671TIP3    H177504   2.376   4.888  11.337  1.1977  0.8800 -1.7257
18671TIP3    H277505   2.448   4.790  11.427  0.2898 -0.6932 -2.6802
18672TIP3   OH277506   0.290   4.882   1.568  0.4728  0.5125 -0.4595
18672TIP3    H177507   0.362   4.841   1.616  2.5117  2.9856 -1.3466
18672TIP3    H277508   0.332   4.936   1.502 -2.2516  0.4836 -2.2921
18673TIP3   OH277509   6.437   3.366   3.049  0.4467 -0.5388 -0.0375
18673TIP3    H177510   6.349   3.329   3.055  0.6130 -0.8487  0.5620
18673TIP3    H277511   6.491   3.309   3.103  0.6135  0.7997  1.2746
18674TIP3   OH277512   1.960   5.007  15.829 -0.2714 -0.7263  0.1102
18674TIP3    H177513   1.990   4.917  15.841 -1.3320 -0.8972  1.6204
18674TIP3    H277514   1.874   4.998  15.788 -0.6557 -0.4211  0.8489
18675TIP3   OH277515   3.271   6.710   3.470 -0.1125  0.4004  0.3693
18675TIP3    H177516   3.211   6.770   3.426  0.1292  0.2337 -0.1956
18675TIP3    H277517   3.314   6.764   3.537  0.2797  0.9251 -0.2968
18676TIP3   OH277518   4.268   3.960   2.659 -0.4494 -0.0106  0.4473
18676TIP3    H177519   4.333   4.025   2.685 -1.7684  0.9563  1.4046
18676TIP3    H277520   4.212   4.006   2.596  2.2388 -2.0774 -3.6832
18677TIP3   OH277521   6.306   6.041  15.002 -0.5750 -0.5180  0.2731
18677TIP3    H177522   6.328   5.998  14.919 -1.3143  0.9046 -0.6819
18677TIP3    H277523   6.214   6.020  15.016 -0.2330 -1.4421  1.1709
18678TIP3   OH277524   0.055   6.580   2.458 -0.0342 -0.2312 -0.6032
18678TIP3    H177525   0.034   6.501   2.407  0.4240  0.5136 -1.9525
18678TIP3    H277526   0.115   6.629   2.403  0.7409  0.4352  0.8033
18679TIP3   OH277527   5.876   6.547  11.783  0.0364 -0.3750 -0.5649
18679TIP3    H177528   5.895   6.555  11.877 -0.8043 -0.9028 -0.3423
18679TIP3    H277529   5.819   6.621  11.763  2.7459  1.5625 -1.3664
18680TIP3   OH277530   4.201   4.057  10.920 -0.0558 -0.8971  0.1191
18680TIP3    H177531   4.146   4.046  10.843 -0.2883  1.1096 -0.0271
18680TIP3    H277532   4.282   4.011  10.898  0.4173  0.8363 -1.9277
18681TIP3   OH277533   6.696   3.871  11.110  0.1147 -0.3739 -0.0560
18681TIP3    H177534   6.776   3.839  11.154 -0.7062  0.7295  2.3544
18681TIP3    H277535   6.721   3.956  11.075 -0.1883  0.2810  1.3041
18682TIP3   OH277536   3.600   1.965  16.002  0.2026  0.1961 -0.4438
18682TIP3    H177537   3.589   2.050  15.961  1.9172  0.2125 -0.9343
18682TIP3    H277538   3.611   1.904  15.929  1.2181 -0.0886 -0.0709
18683TIP3   OH277539   2.670   1.728   1.154  0.3591  0.0663 -0.0693
18683TIP3    H177540   2.604   1.756   1.216 -0.2739 -1.1779 -0.1535
18683TIP3    H277541   2.726   1.804   1.141  2.3183 -0.4954  4.3353
18684TIP3   OH277542   4.268   3.448  11.094 -0.2024  0.0872  0.3036
18684TIP3    H177543   4.216   3.417  11.020  0.5863 -3.2260  1.0382
18684TIP3    H277544   4.295   3.536  11.069 -2.0641 -0.0106 -2.2344
18685TIP3   OH277545   5.031   1.616  16.450  0.4459 -0.0359 -0.4013
18685TIP3    H177546   4.996   1.547  16.508 -1.2742  0.2790 -1.0437
18685TIP3    H277547   4.995   1.595  16.364  0.5797  1.2064 -0.7652
18686TIP3   OH277548   2.784   3.684   6.212 -0.5631 -0.1885 -0.2005
18686TIP3    H177549   2.738   3.628   6.274 -0.4086 -0.8589 -0.6887
18686TIP3    H277550   2.730   3.763   6.206  0.2962  0.5980  2.0622
18687TIP3   OH277551   2.948   2.561   0.976  0.1677  0.0413 -0.1422
18687TIP3    H177552   3.011   2.632   0.966 -1.3201  1.5003  0.5974
18687TIP3    H277553   2.966   2.525   1.062  1.8232 -1.4044 -1.0647
18688TIP3   OH277554   6.662   2.698  12.835  0.4432  0.1576  0.2310
18688TIP3    H177555   6.606   2.730  12.765  0.4154  0.3362  0.3329
18688TIP3    H277556   6.747   2.685  12.794 -0.0454 -1.5470 -0.2614
18689TIP3   OH277557   6.421   3.955  14.832 -0.6342  0.0536  0.4967
18689TIP3    H177558   6.343   3.962  14.778  0.3980  1.1775 -0.8861
18689TIP3    H277559   6.456   3.868  14.814 -0.2728  0.4399 -0.6913
18690TIP3   OH277560   2.958   5.632  11.570  0.4094  0.9143  0.1694
18690TIP3    H177561   2.957   5.583  11.653  1.0544  1.0892  0.2833
18690TIP3    H277562   2.919   5.573  11.507 -1.6900  1.4186  0.9628
18691TIP3   OH277563   1.887   4.642   0.088 -0.7115  0.1358  0.3614
18691TIP3    H177564   1.806   4.639   0.036 -0.4132 -1.7839 -0.0189
18691TIP3    H277565   1.908   4.735   0.094 -3.0395  0.6914  0.6001
18692TIP3   OH277566   2.687   3.665   5.879 -0.1472 -0.1543 -0.5431
18692TIP3    H177567   2.683   3.677   5.974  0.3031 -0.2039 -0.5184
18692TIP3    H277568   2.663   3.573   5.866 -2.1245  0.3476 -0.6237
18693TIP3   OH277569   3.236   3.286  15.515  0.2634 -0.5794 -0.1095
18693TIP3    H177570   3.255   3.375  15.486 -0.5365 -0.6242 -0.7825
18693TIP3    H277571   3.201   3.297  15.604  0.4224 -0.2413 -0.0888
18694TIP3   OH277572   3.003   0.771  13.022  0.5555  0.0208 -0.2550
18694TIP3    H177573   2.989   0.736  12.933  2.3284  0.1393 -0.5998
18694TIP3    H277574   2.955   0.854  13.022  0.8500  0.2044 -1.2366
18695TIP3   OH277575   2.217   5.279  16.468 -0.3023  0.6421 -0.5662
18695TIP3    H177576   2.170   5.204  16.432 -1.5446  0.9910  0.2926
18695TIP3    H277577   2.165   5.355  16.441 -1.3346  0.9149  1.9645
18696TIP3   OH277578   3.049   0.132   0.303 -0.8427 -0.2036  0.4217
18696TIP3    H177579   3.091   0.219   0.307  0.1079 -0.6031 -0.4883
18696TIP3    H277580   2.977   0.137   0.366 -0.2970  0.9833  0.9735
18697TIP3   OH277581   3.686   0.709   2.636 -0.5043  0.0656 -0.3838
18697TIP3    H177582   3.728   0.749   2.560  0.7717  1.3148  0.9482
18697TIP3    H277583   3.620   0.773   2.663 -1.1112 -0.4776 -0.5593
18698TIP3   OH277584   3.027   5.851  15.363 -0.0819  0.2824  0.3702
18698TIP3    H177585   3.063   5.918  15.303  1.1984 -0.5017  0.2341
18698TIP3    H277586   3.071   5.868  15.446 -0.3129  0.0799  0.5331
18699TIP3   OH277587   3.357   4.781   3.318 -0.2848  0.8235  0.0425
18699TIP3    H177588   3.300   4.827   3.379  0.3869  0.9970  0.5388
18699TIP3    H277589   3.297   4.728   3.265 -0.9480  1.3633  0.2491
18700TIP3   OH277590   2.660   2.845   2.438 -0.2786  0.5434  0.3388
18700TIP3    H177591   2.720   2.842   2.363 -0.5469  2.3010  0.0269
18700TIP3    H277592   2.575   2.820   2.401  0.1377 -1.4168  0.6693
18701TIP3   OH277593   6.015   1.063  12.909 -0.0533  0.1252  0.2679
18701TIP3    H177594   5.920   1.064  12.897  0.0109 -0.8918 -0.4177
18701TIP3    H277595   6.029   1.024  12.995 -0.2236 -0.5019  0.0088
18702TIP3   OH277596   6.669   5.097   4.967 -0.8735 -0.6825  1.1922
18702TIP3    H177597   6.710   5.064   4.888 -1.7581 -0.9236  0.8210
18702TIP3    H277598   6.698   5.039   5.037 -0.7301 -0.9490  0.9078
18703TIP3   OH277599   5.673   6.040   1.435  0.4369  0.6360 -0.0362
18703TIP3    H177600   5.682   5.968   1.372 -3.1543  1.6417 -1.8746
18703TIP3    H277601   5.634   5.999   1.512 -0.1162  0.2912 -0.4886
18704TIP3   OH277602   1.553   0.548  11.938 -0.0642  0.6991  0.2265
18704TIP3    H177603   1.616   0.549  11.865  0.1194  0.8933  0.3864
18704TIP3    H277604   1.480   0.496  11.905  0.6082 -0.3808  0.4021
18705TIP3   OH277605   5.767   5.571   0.240 -0.0972 -0.7374 -0.1381
18705TIP3    H177606   5.826   5.521   0.183  2.6207  1.3346  0.7412
18705TIP3    H277607   5.718   5.627   0.179  1.1036 -0.2343 -0.6710
18706TIP3   OH277608   3.772   0.572  15.123 -0.0280  0.3739  0.6080
18706TIP3    H177609   3.741   0.579  15.213 -0.5541 -0.5853  0.5052
18706TIP3    H277610   3.782   0.663  15.094  0.7808  0.6894  1.8484
18707TIP3   OH277611   5.820   2.005  11.867  0.3999  0.5452 -0.0871
18707TIP3    H177612   5.754   1.941  11.842 -2.2313  3.3485 -0.5811
18707TIP3    H277613   5.808   2.019  11.961 -0.3107  1.6878 -0.3372
18708TIP3   OH277614   4.639   5.582   0.339 -0.2815 -0.0039  0.1256
18708TIP3    H177615   4.693   5.504   0.325 -2.4498 -1.1779 -2.1212
18708TIP3    H277616   4.608   5.574   0.429  1.2154 -0.6322  0.6026
18709TIP3   OH277617   0.999   6.487  11.415  0.8521 -0.4612  0.2381
18709TIP3    H177618   1.036   6.431  11.347 -0.4622 -1.2259  0.1164
18709TIP3    H277619   1.009   6.437  11.495 -2.5359 -2.0273 -0.2230
18710TIP3   OH277620   4.075   5.761   3.254  0.2689  0.1438 -0.1929
18710TIP3    H177621   4.103   5.830   3.194  2.4162 -0.2998  0.2618
18710TIP3    H277622   4.097   5.795   3.341  0.5868 -0.7797  0.0890
18711TIP3   OH277623   2.083   5.907  15.212  0.6468 -0.3307 -0.0219
18711TIP3    H177624   2.106   5.937  15.300 -1.9333  2.5952 -0.2569
18711TIP3    H277625   2.154   5.940  15.156  1.5465 -0.9596  0.7291
18712TIP3   OH277626   2.472   0.525  14.524 -0.4587 -0.4744 -0.2887
18712TIP3    H177627   2.412   0.583  14.571 -2.0939 -2.6534  0.3618
18712TIP3    H277628   2.432   0.514  14.437 -0.4996 -1.1586 -0.1850
18713TIP3   OH277629   3.308   0.745   3.084  0.6013  0.1969  0.3012
18713TIP3    H177630   3.388   0.724   3.037  0.7587  0.1042  0.6046
18713TIP3    H277631   3.269   0.818   3.035  0.5065 -0.2214 -0.2478
18714TIP3   OH277632   5.773   5.277  15.194 -0.6423 -0.1335 -0.0753
18714TIP3    H177633   5.782   5.280  15.289 -1.0848 -1.8679  0.0515
18714TIP3    H277634   5.684   5.307  15.177 -0.9459 -0.8684  0.1661
18715TIP3   OH277635   6.663   6.590  15.316  0.0856 -0.0437 -0.0416
18715TIP3    H177636   6.698   6.519  15.370 -2.5251 -0.1910  1.5490
18715TIP3    H277637   6.594   6.548  15.264 -0.5910  1.0658 -0.0496
18716TIP3   OH277638   4.872   1.192  14.828  0.2223  0.2673 -0.4723
18716TIP3    H177639   4.891   1.098  14.832 -2.9043 -0.4692 -1.3584
18716TIP3    H277640   4.869   1.212  14.735 -0.2822  1.0013 -0.3023
18717TIP3   OH277641   4.596   0.141   1.220  0.0864  0.0405  0.1218
18717TIP3    H177642   4.501   0.135   1.232 -0.0502  1.3633 -0.1548
18717TIP3    H277643   4.625   0.201   1.289  0.6375  0.1409 -0.1942
18718TIP3   OH277644   6.063   4.453   3.361 -0.4021  0.4673 -0.8225
18718TIP3    H177645   6.034   4.443   3.452  1.7159  0.6608 -0.0777
18718TIP3    H277646   6.076   4.547   3.351 -0.5999  0.4417 -1.3170
18719TIP3   OH277647   0.756   4.080  12.542  0.2493  0.4854  0.5684
18719TIP3    H177648   0.709   4.047  12.619  0.0641 -0.3713  0.0993
18719TIP3    H277649   0.833   4.124  12.579  0.3817 -0.2768  1.2421
18720TIP3   OH277650   5.590   2.720   0.391  0.6423  0.1650 -0.5397
18720TIP3    H177651   5.632   2.655   0.447  0.0430 -1.0122 -1.4489
18720TIP3    H277652   5.504   2.683   0.372 -0.3190  1.9386  0.2188
18721TIP3   OH277653   0.618   3.425   1.061 -0.1558 -0.3115  0.5060
18721TIP3    H177654   0.657   3.340   1.081 -0.9650 -0.6537  0.6423
18721TIP3    H277655   0.530   3.421   1.099 -1.1413 -0.3599 -1.6713
18722TIP3   OH277656   4.688   0.325   2.585 -0.5823  0.4379  0.8354
18722TIP3    H177657   4.783   0.320   2.589 -0.5736  0.0450  0.0551
18722TIP3    H277658   4.670   0.394   2.521 -0.8310 -0.8373 -0.4883
18723TIP3   OH277659   0.622   1.123  14.214  0.0692 -0.2322 -0.1016
18723TIP3    H177660   0.692   1.077  14.258 -0.3747  0.2762  1.1769
18723TIP3    H277661   0.547   1.063  14.217  0.2374 -0.4769 -0.7929
18724TIP3   OH277662   4.811   3.630   2.390  0.2098  0.1679 -0.0669
18724TIP3    H177663   4.854   3.631   2.305  1.0577  0.0471  0.3602
18724TIP3    H277664   4.862   3.568   2.442  0.3921  1.1158  0.8945
18725TIP3   OH277665   5.441   5.975   2.532  0.1162  0.1828 -0.2415
18725TIP3    H177666   5.398   6.047   2.579  0.4338 -0.0679  0.4454
18725TIP3    H277667   5.513   6.017   2.486  0.6111  0.2280  0.5689
18726TIP3   OH277668   4.252   5.362   2.357  0.0975 -0.5994 -0.6981
18726TIP3    H177669   4.217   5.331   2.274  1.5682 -2.6861 -0.5617
18726TIP3    H277670   4.321   5.424   2.332  0.0342 -0.6539 -1.0107
18727TIP3   OH277671   0.110   1.681   2.831  0.3249  0.0688 -0.2461
18727TIP3    H177672   0.053   1.632   2.772  1.6539  1.1124 -2.5122
18727TIP3    H277673   0.098   1.641   2.917 -1.1980 -1.9266 -1.3570
18728TIP3   OH277674   5.872   1.179  12.346 -0.0698  0.0620  0.0705
18728TIP3    H177675   5.939   1.247  12.349 -0.0572  0.0354  0.3949
18728TIP3    H277676   5.821   1.191  12.426 -1.5329  1.1809 -1.0111
18729TIP3   OH277677   0.729   0.227  11.600  0.3347  0.0272  0.1100
18729TIP3    H177678   0.677   0.278  11.537 -2.2781  0.7055  2.7162
18729TIP3    H277679   0.726   0.138  11.566 -0.6626  0.4562 -0.9827
18730TIP3   OH277680   0.695   6.345  13.930 -0.2399  0.2964  0.1762
18730TIP3    H177681   0.712   6.313  14.018 -1.5112 -2.1776 -0.4370
18730TIP3    H277682   0.781   6.348  13.888  0.3073  1.0030  1.3096
18731TIP3   OH277683   3.051   2.620   6.007  0.0691  0.1088  0.1035
18731TIP3    H177684   3.137   2.590   6.037  0.2898  0.8413  0.1986
18731TIP3    H277685   3.041   2.581   5.920  0.4233 -0.1153  0.1613
18732TIP3   OH277686   6.347   3.618   2.945 -0.1792  0.3159 -0.0535
18732TIP3    H177687   6.255   3.590   2.946  0.1167 -0.6686 -0.0829
18732TIP3    H277688   6.396   3.540   2.970  0.7211  0.5775 -0.9708
18733TIP3   OH277689   5.479   0.079   2.433  0.1317 -0.1856 -0.0748
18733TIP3    H177690   5.536   0.068   2.509 -0.7971  1.5248  0.8959
18733TIP3    H277691   5.529   0.136   2.374 -0.3802  0.9715  0.5933
18734TIP3   OH277692   3.360   6.343  14.478 -0.6929 -0.2175  0.2070
18734TIP3    H177693   3.399   6.411  14.533 -1.5796 -0.6804  1.4238
18734TIP3    H277694   3.417   6.339  14.401 -0.2947  1.4804  0.3988
18735TIP3   OH277695   5.657   6.169  10.927 -0.6419 -0.6783 -1.1401
18735TIP3    H177696   5.600   6.244  10.912 -0.1788  0.0654  0.6411
18735TIP3    H277697   5.737   6.190  10.880 -0.7573 -0.3542 -1.1938
18736TIP3   OH277698   0.336   1.288   2.556 -0.4936  0.2058  0.4192
18736TIP3    H177699   0.242   1.269   2.552 -0.5416  0.3305  0.9194
18736TIP3    H277700   0.341   1.384   2.555 -0.2327  0.2372 -2.6533
18737TIP3   OH277701   3.630   3.906  16.859 -0.4411  0.4572  0.2891
18737TIP3    H177702   3.591   3.927  16.944  0.3560 -0.1919  0.8162
18737TIP3    H277703   3.630   3.811  16.855  0.8363  0.4580  0.1655
18738TIP3   OH277704   0.041   2.482  12.784 -0.1287 -0.0309  0.0809
18738TIP3    H177705  -0.039   2.466  12.735 -0.7567 -1.5742  1.6042
18738TIP3    H277706   0.111   2.469  12.720 -1.0408  0.6277 -1.0708
18739TIP3   OH277707   5.558   3.073  14.910 -0.4135 -0.1603 -0.1336
18739TIP3    H177708   5.488   3.009  14.898 -0.4912  0.1237 -1.2251
18739TIP3    H277709   5.529   3.127  14.983  0.2258 -2.1338  1.6364
18740TIP3   OH277710   3.990   3.810   2.472 -0.5537  0.6137  0.4034
18740TIP3    H177711   3.913   3.815   2.529 -1.6186 -0.1011 -0.9221
18740TIP3    H277712   3.991   3.719   2.442 -0.3611  1.1141 -1.1611
18741TIP3   OH277713   6.149   5.043   4.360 -0.0986 -0.0644  0.3592
18741TIP3    H177714   6.230   5.085   4.333 -1.3920  1.0163 -1.9386
18741TIP3    H277715   6.080   5.104   4.334 -1.7349 -1.4680  1.2783
18742TIP3   OH277716   6.040   3.552  10.738  0.8965 -0.6249  0.3045
18742TIP3    H177717   6.037   3.459  10.717 -0.5978 -0.4576 -0.2551
18742TIP3    H277718   5.989   3.595  10.669 -0.7996  0.3165  2.0915
18743TIP3   OH277719   1.639   3.135  10.846  0.7646 -0.0667  0.3849
18743TIP3    H177720   1.713   3.189  10.874  0.8923 -0.6222  1.1545
18743TIP3    H277721   1.679   3.063  10.797  0.5422  0.8880 -1.2205
18744TIP3   OH277722   6.190   0.300   4.546 -0.1854  0.4854  0.3814
18744TIP3    H177723   6.217   0.234   4.610  1.4450  1.3253  0.5814
18744TIP3    H277724   6.225   0.382   4.580 -0.7350  1.1953 -0.7357
18745TIP3   OH277725   5.774   6.270  13.424 -0.5109 -0.0352 -0.5247
18745TIP3    H177726   5.853   6.237  13.465 -2.2224 -2.6071  0.8503
18745TIP3    H277727   5.737   6.331  13.488  0.4521  1.3528 -1.2706
18746TIP3   OH277728   3.993   5.100   5.959  0.4153 -0.2199 -0.3953
18746TIP3    H177729   3.959   5.064   6.041  0.6928 -1.9125 -0.9977
18746TIP3    H277730   3.970   5.034   5.893  1.7737  0.2629 -1.3707
18747TIP3   OH277731   0.916   1.349   5.384  0.2986 -0.0946 -0.1887
18747TIP3    H177732   0.960   1.275   5.343 -0.0170  0.5659 -1.7981
18747TIP3    H277733   0.980   1.385   5.446  0.6460 -1.3674  0.1987
18748TIP3   OH277734   3.578   4.704   5.076  0.4052  0.0654 -0.1358
18748TIP3    H177735   3.616   4.678   5.160 -1.1216 -0.4917  0.4105
18748TIP3    H277736   3.484   4.706   5.093  0.2245  2.0876 -1.2576
18749TIP3   OH277737   2.757   4.107   3.879  0.2424 -0.3525 -0.0358
18749TIP3    H177738   2.750   4.058   3.961 -1.3354 -0.6707 -0.3443
18749TIP3    H277739   2.836   4.072   3.837  0.8402 -0.4719  1.1471
18750TIP3   OH277740   2.719   0.969  13.271 -0.2266  0.2100 -0.2296
18750TIP3    H177741   2.769   1.049  13.283  1.0707 -0.8689  1.9148
18750TIP3    H277742   2.655   0.969  13.343 -0.0083 -0.8169 -0.0300
18751TIP3   OH277743   0.423   0.392  16.230 -0.3265 -0.4884  0.1231
18751TIP3    H177744   0.331   0.399  16.204 -0.8713  1.1688  2.3719
18751TIP3    H277745   0.465   0.467  16.188 -0.2199 -0.6084  0.0151
18752TIP3   OH277746   2.147   0.182  11.794 -0.1660 -0.4636 -0.0734
18752TIP3    H177747   2.205   0.257  11.785  2.0838 -2.1488 -0.1974
18752TIP3    H277748   2.087   0.189  11.719 -0.0771  1.2485 -0.0037
18753TIP3   OH277749   5.071   3.117  11.368 -0.2356  0.1268 -0.3704
18753TIP3    H177750   5.018   3.038  11.368 -0.6354  0.3815  1.4978
18753TIP3    H277751   5.019   3.182  11.320 -1.1462  0.0603  0.5107
18754TIP3   OH277752   0.138   0.183   1.127  0.0363  0.5453  0.5457
18754TIP3    H177753   0.191   0.141   1.060 -1.5041 -0.8106  0.1527
18754TIP3    H277754   0.047   0.168   1.100 -0.5868  1.3867  2.0625
18755TIP3   OH277755   5.478   2.233   6.320  0.2451  0.0253 -0.3703
18755TIP3    H177756   5.411   2.281   6.271 -1.8097 -1.6637  0.6569
18755TIP3    H277757   5.461   2.256   6.412  1.4278 -0.0152 -0.1320
18756TIP3   OH277758   0.659   3.058  12.917 -0.1002  0.1595 -0.0586
18756TIP3    H177759   0.643   2.968  12.889 -2.0649  0.1280  1.0213
18756TIP3    H277760   0.733   3.052  12.977 -0.0958 -0.7009 -0.1452
18757TIP3   OH277761   0.167   2.228  13.644  1.1616 -0.1510  0.6291
18757TIP3    H177762   0.261   2.238  13.654  0.8805  0.1438  3.2689
18757TIP3    H277763   0.142   2.163  13.709 -1.0087  2.8967  3.0280
18758TIP3   OH277764   2.043   0.959  11.784  0.5085  0.1950  0.3085
18758TIP3    H177765   2.035   1.055  11.784 -1.2262  0.0936  1.9843
18758TIP3    H277766   1.982   0.930  11.716  0.2365  0.2579  0.5202
18759TIP3   OH277767   1.610   4.448   2.352 -0.2101 -0.5425  0.1282
18759TIP3    H177768   1.530   4.448   2.299 -0.4106 -0.8711  0.4357
18759TIP3    H277769   1.579   4.450   2.442  0.1103 -2.1616  0.2863
18760TIP3   OH277770   5.829   4.105   6.383  0.3893 -0.0985  0.0950
18760TIP3    H177771   5.800   4.169   6.318  0.8277  0.0461  0.0455
18760TIP3    H277772   5.763   4.035   6.379 -0.6338  0.8078  0.8361
18761TIP3   OH277773   5.198   2.328   5.401 -0.1317 -0.0041 -0.4016
18761TIP3    H177774   5.185   2.233   5.396 -3.3637  0.3734 -0.1262
18761TIP3    H277775   5.214   2.355   5.311  0.6430 -0.7797 -0.5066
18762TIP3   OH277776   6.472   6.783   4.035  0.1682  0.0097 -0.4660
18762TIP3    H177777   6.457   6.747   3.948 -0.8194  0.4392 -0.4794
18762TIP3    H277778   6.393   6.832   4.055  1.3208  1.8332 -0.2671
18763TIP3   OH277779   5.161   3.284   3.290 -0.5001 -0.3192  0.7525
18763TIP3    H177780   5.099   3.250   3.226 -0.0774  1.5651 -0.7028
18763TIP3    H277781   5.108   3.302   3.368 -1.8890  1.6330 -0.5921
18764TIP3   OH277782   6.630   3.570  13.930  0.4466 -0.2766  0.1290
18764TIP3    H177783   6.703   3.599  13.985  1.1248 -1.0365 -0.3589
18764TIP3    H277784   6.551   3.600  13.977  1.0506  0.1595  0.8803
18765TIP3   OH277785   2.770   3.653  11.972  0.1235 -0.1734  0.4659
18765TIP3    H177786   2.721   3.639  12.052 -0.1319 -0.8208  0.2003
18765TIP3    H277787   2.858   3.677  12.001 -0.4515  1.4463  0.9456
18766TIP3   OH277788   4.927   2.130   0.004 -0.1332 -0.0260 -0.1379
18766TIP3    H177789   4.884   2.121   0.089 -1.3846 -0.8833 -0.8405
18766TIP3    H277790   4.868   2.184  -0.048  0.5023  0.2865 -0.5394
18767TIP3   OH277791   0.235   6.266   2.111 -0.4179  0.0079  0.1127
18767TIP3    H177792   0.316   6.259   2.060  0.4337 -0.7685  1.5559
18767TIP3    H277793   0.170   6.223   2.055 -0.2796  2.2930 -1.8980
18768TIP3   OH277794   6.474   1.750  15.145  0.1293  0.0178  0.0104
18768TIP3    H177795   6.518   1.670  15.118 -0.2552 -0.6533  1.3037
18768TIP3    H277796   6.457   1.798  15.064  1.5082 -0.6073 -0.6599
18769TIP3   OH277797   2.414   6.804  16.960 -0.5112  0.7385 -0.1393
18769TIP3    H177798   2.447   6.714  16.964 -1.1604  0.5438  1.1602
18769TIP3    H277799   2.492   6.858  16.971 -0.2937  0.3068  0.5357
18770TIP3   OH277800   0.392   2.040  14.168 -0.1479 -0.2299  0.4255
18770TIP3    H177801   0.372   1.948  14.185 -1.9369  0.2921  1.2879
18770TIP3    H277802   0.465   2.037  14.106 -0.2324 -2.2257  0.3645
18771TIP3   OH277803   4.539   0.824   4.953 -0.0358 -0.7086 -0.2604
18771TIP3    H177804   4.624   0.782   4.941 -0.2053 -1.4354  0.9523
18771TIP3    H277805   4.485   0.756   4.995 -0.4545  0.5613  1.2994
18772TIP3   OH277806   5.375   1.022   5.408 -0.2255 -0.4231 -0.6540
18772TIP3    H177807   5.369   1.106   5.453  0.1970 -0.7026 -0.0677
18772TIP3    H277808   5.286   1.006   5.375 -0.8575 -0.8247  1.1861
18773TIP3   OH277809   3.198   2.205  15.663  0.1665 -0.5754 -0.3754
18773TIP3    H177810   3.169   2.121  15.697 -1.6675  0.1671 -0.0472
18773TIP3    H277811   3.278   2.225  15.712  0.6016 -2.1061 -0.4508
18774TIP3   OH277812   6.810   2.777  16.310  0.4152  0.5889  0.2012
18774TIP3    H177813   6.863   2.776  16.230 -0.6136  1.6859 -0.5000
18774TIP3    H277814   6.829   2.861  16.351  0.8746  0.0650  1.0879
18775TIP3   OH277815   1.177   5.924   0.728 -0.3200  0.5690 -0.0258
18775TIP3    H177816   1.097   5.975   0.725 -0.7155  0.0283  1.3180
18775TIP3    H277817   1.236   5.974   0.784  0.6362  1.4340 -1.7415
18776TIP3   OH277818   6.034   5.757  13.661  0.3349 -0.2220 -0.5562
18776TIP3    H177819   5.954   5.787  13.704  0.2952  0.1260 -0.8746
18776TIP3    H277820   6.013   5.759  13.567  0.2314 -1.5112 -0.5696
18777TIP3   OH277821   5.746   3.637  11.035  0.0828  0.3749  0.6414
18777TIP3    H177822   5.715   3.694  11.106 -0.2211  1.0331 -0.0089
18777TIP3    H277823   5.681   3.567  11.031 -0.9575  1.3690 -0.2446
18778TIP3   OH277824   0.540   5.416  14.350  0.2896 -0.1046  0.9395
18778TIP3    H177825   0.536   5.485  14.416 -2.7393  1.7817 -1.0758
18778TIP3    H277826   0.591   5.455  14.278 -0.8273 -0.2147  0.0812
18779TIP3   OH277827   3.950   0.042  11.703  0.0275 -0.0097 -0.0182
18779TIP3    H177828   3.930  -0.000  11.620  2.7840 -0.4756 -0.4715
18779TIP3    H277829   3.989   0.126  11.679  0.7811 -0.1154  0.8162
18780TIP3   OH277830   6.398   4.617  16.986 -0.3167 -0.1564 -0.0592
18780TIP3    H177831   6.354   4.642  16.905  0.2935  1.4267  0.0865
18780TIP3    H277832   6.444   4.695  17.014  1.0172 -1.2328  0.8302
18781TIP3   OH277833   4.302   1.104  13.370 -0.2551  0.1327  0.2006
18781TIP3    H177834   4.226   1.118  13.426 -1.3273  0.3916 -1.2965
18781TIP3    H277835   4.317   1.010  13.373 -1.0669 -0.0067 -0.0572
18782TIP3   OH277836   5.668   2.809   5.307  0.5625  0.0037  0.1722
18782TIP3    H177837   5.759   2.838   5.295  0.3878 -0.0493 -1.4334
18782TIP3    H277838   5.667   2.769   5.394  2.3338 -1.0132 -0.2500
18783TIP3   OH277839   1.172   6.126   5.733 -0.3871  0.3734  0.3363
18783TIP3    H177840   1.132   6.159   5.653 -0.5815  0.2826  0.3958
18783TIP3    H277841   1.179   6.031   5.718 -1.0418  0.2658  0.6976
18784TIP3   OH277842   3.028   1.812   0.297  0.7084 -0.0870 -0.3846
18784TIP3    H177843   3.116   1.779   0.284  1.0319  1.2524 -1.6375
18784TIP3    H277844   3.039   1.894   0.345  0.4595  1.9802 -3.6641
18785TIP3   OH277845   4.522   2.533  12.061 -0.2872 -0.5322  0.0414
18785TIP3    H177846   4.431   2.561  12.062 -0.5699 -1.1935 -2.6428
18785TIP3    H277847   4.572   2.614  12.054 -0.8428 -0.3230 -1.7597
18786TIP3   OH277848   3.104   6.054   2.279 -0.7965  0.5023  0.5905
18786TIP3    H177849   3.023   6.021   2.317  0.5603 -0.1230  3.0047
18786TIP3    H277850   3.110   6.011   2.194 -2.0860 -0.8165  1.1567
18787TIP3   OH277851   0.575   1.976   2.497 -0.3530  0.9069 -0.4061
18787TIP3    H177852   0.509   1.957   2.430  0.0280 -1.0609 -0.2596
18787TIP3    H277853   0.596   1.890   2.535 -1.1784  2.0527  2.8184
18788TIP3   OH277854   2.411   0.026   1.720 -0.1319 -0.4522  0.2531
18788TIP3    H177855   2.494   0.057   1.757  0.2052 -1.0874  0.0230
18788TIP3    H277856   2.384   0.097   1.661  0.9441 -0.8363 -0.7371
18789TIP3   OH277857   4.558   0.480  14.661  0.0147 -0.3345  0.0255
18789TIP3    H177858   4.509   0.486  14.743  0.6257  0.1971  0.3557
18789TIP3    H277859   4.491   0.480  14.593 -0.4120  1.2268  0.4359
18790TIP3   OH277860   2.841   5.862  15.973 -0.0256  0.2917 -0.5328
18790TIP3    H177861   2.815   5.798  16.040  1.4843 -0.1379 -0.3376
18790TIP3    H277862   2.850   5.944  16.020  0.3775  0.1295 -0.3193
18791TIP3   OH277863   6.680   4.456   0.999  0.1557  0.4197  0.1123
18791TIP3    H177864   6.589   4.430   1.012 -0.3677  1.4515 -1.3231
18791TIP3    H277865   6.701   4.426   0.910  1.2824  0.0261  0.4969
18792TIP3   OH277866   6.037   2.055   2.196  0.0832  0.8859  0.8765
18792TIP3    H177867   5.972   1.985   2.188  1.4481 -0.3374  0.3494
18792TIP3    H277868   6.100   2.023   2.261  1.4296  1.0537 -0.3184
18793TIP3   OH277869   1.364   5.085   1.500 -0.2093 -0.5568  0.0366
18793TIP3    H177870   1.432   5.065   1.436  1.5997 -0.4572  1.8682
18793TIP3    H277871   1.318   5.002   1.515 -0.7467 -0.5452 -1.4671
18794TIP3   OH277872   0.691   4.986  11.614 -0.4351 -0.1302 -0.2035
18794TIP3    H177873   0.710   4.894  11.630 -0.4644  0.2140  1.9785
18794TIP3    H277874   0.679   5.024  11.702 -1.0658  1.8042 -1.0911
18795TIP3   OH277875   5.784   0.824  12.718  0.6865 -0.1690 -0.4820
18795TIP3    H177876   5.739   0.814  12.634 -0.6829  0.8475  0.1163
18795TIP3    H277877   5.713   0.831  12.782  1.7220 -1.0704  0.7836
18796TIP3   OH277878   1.695   6.149  16.705 -0.0639 -0.1797  0.4806
18796TIP3    H177879   1.679   6.238  16.736  1.3584  0.4572 -0.5901
18796TIP3    H277880   1.779   6.125  16.744 -0.2237 -0.8910  0.3946
18797TIP3   OH277881   1.540   5.061   2.556 -0.2345 -0.0481  0.2405
18797TIP3    H177882   1.456   5.105   2.544 -0.3926 -0.1068  1.0985
18797TIP3    H277883   1.601   5.110   2.502 -0.2830  1.5949  1.6320
18798TIP3   OH277884   2.246   2.670   5.137 -0.3508 -0.2355 -0.0353
18798TIP3    H177885   2.181   2.714   5.082 -1.1358  0.7344  1.6175
18798TIP3    H277886   2.235   2.577   5.119  0.6372  0.1406 -2.8431
18799TIP3   OH277887   2.079   2.183   5.560 -0.3208 -0.0615 -0.0615
18799TIP3    H177888   2.090   2.260   5.503 -1.7485 -0.9116 -1.5420
18799TIP3    H277889   2.167   2.161   5.588  0.2889  1.0821 -1.0417
18800TIP3   OH277890   2.829   3.005   1.973  0.4425  0.3487  0.1264
18800TIP3    H177891   2.820   2.974   1.883  0.2319 -1.6838  0.8141
18800TIP3    H277892   2.755   3.064   1.986  0.8339  1.1352 -1.2313
18801TIP3   OH277893   5.235   3.661   0.091 -0.3880  0.1052  0.2024
18801TIP3    H177894   5.198   3.680   0.004 -2.1149 -0.4638  0.7896
18801TIP3    H277895   5.325   3.692   0.085 -0.7242  0.8684 -1.5235
18802TIP3   OH277896   2.069   2.927   1.251 -0.0967 -0.6510  0.2804
18802TIP3    H177897   2.053   2.951   1.160  0.4744 -2.4028 -0.3212
18802TIP3    H277898   2.012   2.852   1.267  0.1152 -0.6270  1.2302
18803TIP3   OH277899   4.625   1.582  16.133  0.5035  0.2120  0.6711
18803TIP3    H177900   4.538   1.622  16.143 -0.0425 -0.7874 -0.1022
18803TIP3    H277901   4.613   1.491  16.159  0.9140 -0.3771 -1.1159
18804TIP3   OH277902   5.498   6.360  14.924  0.0587  0.3064 -0.4467
18804TIP3    H177903   5.530   6.420  14.992 -1.4674 -1.8386  2.2867
18804TIP3    H277904   5.415   6.398  14.897 -1.4901 -1.0947  2.1405
18805TIP3   OH277905   6.301   5.345  15.768 -0.1122 -0.2966  0.3573
18805TIP3    H177906   6.304   5.423  15.823  0.7417  0.0885 -0.2295
18805TIP3    H277907   6.209   5.317  15.771 -0.5192  1.0074  0.1640
18806TIP3   OH277908   3.768   4.950   0.545  0.3044  0.0997 -0.3987
18806TIP3    H177909   3.746   4.944   0.452 -3.0785 -0.1310  0.3281
18806TIP3    H277910   3.770   4.859   0.576 -0.0275  0.2369  0.0375
18807TIP3   OH277911   1.202   3.834  15.191 -0.1325 -0.2356 -0.0533
18807TIP3    H177912   1.150   3.774  15.245  0.0838  0.0518  0.4860
18807TIP3    H277913   1.138   3.875  15.133 -0.3871 -0.4684  0.0577
18808TIP3   OH277914   0.644   6.743   6.070 -0.3843  0.2005 -0.4975
18808TIP3    H177915   0.570   6.683   6.076  0.3296 -0.5017  1.6246
18808TIP3    H277916   0.661   6.770   6.160  0.5157  2.1164 -1.2248
18809TIP3   OH277917   2.687   4.666   2.479  0.1228 -0.5657 -0.0200
18809TIP3    H177918   2.743   4.667   2.401  1.1566 -0.6989  0.7134
18809TIP3    H277919   2.720   4.738   2.533 -0.5715 -0.4956  0.3120
18810TIP3   OH277920   0.385   0.087   3.445 -0.2101  0.2956  0.1473
18810TIP3    H177921   0.375  -0.000   3.482  1.0086 -0.8200 -2.0640
18810TIP3    H277922   0.465   0.121   3.484  0.0223 -0.1091  0.0270
18811TIP3   OH277923   3.154   4.448   5.662 -0.1001  0.0312  0.2749
18811TIP3    H177924   3.223   4.404   5.711  0.3882  0.8989  0.3644
18811TIP3    H277925   3.094   4.377   5.636  2.4657 -1.2165 -2.6124
18812TIP3   OH277926   5.025   0.932   4.778  0.3136  0.7504 -0.0632
18812TIP3    H177927   5.047   0.878   4.703  0.4319  0.2193  0.3510
18812TIP3    H277928   5.024   0.871   4.852  0.8176  1.3817  0.4659
18813TIP3   OH277929   5.853   3.214  11.555  0.1121  0.3913  0.2311
18813TIP3    H177930   5.841   3.217  11.460  0.3301  0.8453  0.2162
18813TIP3    H277931   5.930   3.269  11.571 -0.1436  0.6078  0.7059
18814TIP3   OH277932   5.039   0.437  11.036 -0.0709 -0.0315  0.0554
18814TIP3    H177933   5.052   0.381  10.960  0.2173 -0.7317  0.6201
18814TIP3    H277934   4.976   0.390  11.090  0.7199 -0.1585  0.8741
18815TIP3   OH277935   4.278   5.384  15.310 -0.1804 -0.1698 -0.3023
18815TIP3    H177936   4.204   5.366  15.369 -0.5519 -0.3335 -0.8210
18815TIP3    H277937   4.337   5.311  15.323 -0.1483 -0.0850  0.0459
18816TIP3   OH277938   3.662   1.616   1.120 -0.0874 -0.2012  0.1644
18816TIP3    H177939   3.662   1.649   1.210  0.0108  0.0096  0.0864
18816TIP3    H277940   3.652   1.694   1.066  0.3716 -0.2806 -0.0308
18817TIP3   OH277941   1.495   3.541   4.961  0.0995  0.6261 -0.6155
18817TIP3    H177942   1.521   3.517   4.872  1.8998  1.2097 -0.2743
18817TIP3    H277943   1.468   3.633   4.953  0.7592  0.8384 -0.4837
18818TIP3   OH277944   2.173   6.538  16.238  0.6490 -0.0612 -0.2715
18818TIP3    H177945   2.189   6.453  16.277  1.3085 -0.1088 -0.6327
18818TIP3    H277946   2.176   6.522  16.143  2.8746  0.7306 -0.3586
18819TIP3   OH277947   5.825   5.755  14.076 -0.3135  0.2161  0.3895
18819TIP3    H177948   5.859   5.702  14.148 -1.8811 -0.4705  0.6377
18819TIP3    H277949   5.820   5.844  14.111 -0.6035 -0.0310  0.9789
18820TIP3   OH277950   3.450   0.095  11.204 -0.1473  0.0123  0.1375
18820TIP3    H177951   3.435   0.003  11.180  1.6374 -0.6897  1.6174
18820TIP3    H277952   3.462   0.140  11.120 -2.9410 -0.7099 -0.7089
18821TIP3   OH277953   3.120   2.205   0.227  0.0752 -0.4557  0.2560
18821TIP3    H177954   3.133   2.283   0.281 -1.0199 -0.1007  0.0355
18821TIP3    H277955   3.126   2.132   0.288 -3.6490  0.0618  1.3631
18822TIP3   OH277956   6.645   2.062  16.955 -0.1525 -0.2559  0.2707
18822TIP3    H177957   6.589   2.138  16.935  2.0835  1.5598  0.7372
18822TIP3    H277958   6.633   2.047  17.048  1.9573  1.7296  0.9229
18823TIP3   OH277959   3.765   0.431  16.512 -0.0196 -0.3431  0.1503
18823TIP3    H177960   3.735   0.344  16.538 -2.1343 -0.3885 -2.3125
18823TIP3    H277961   3.824   0.415  16.438  1.2083  0.2022  0.9872
18824TIP3   OH277962   2.454   0.706  13.022  0.4689 -0.3212 -0.8518
18824TIP3    H177963   2.446   0.769  13.094  2.2136 -0.5465 -0.4534
18824TIP3    H277964   2.511   0.749  12.959  1.3438 -1.3236 -0.7548
18825TIP3   OH277965   4.637   1.209  13.281 -0.0850  0.1217 -0.3161
18825TIP3    H177966   4.720   1.163  13.272  0.2447  0.5613  0.3400
18825TIP3    H277967   4.606   1.185  13.368 -0.3726  0.3850 -0.3446
18826TIP3   OH277968   5.784   3.305   3.150 -0.0276 -0.3932  0.1563
18826TIP3    H177969   5.821   3.327   3.064 -0.2409  0.0208  0.1686
18826TIP3    H277970   5.742   3.385   3.179 -2.1679 -1.2235 -0.4963
18827TIP3   OH277971   0.276   1.532  15.739 -0.3063  0.5137 -0.3646
18827TIP3    H177972   0.235   1.603  15.689  0.3870  1.0236 -0.2086
18827TIP3    H277973   0.336   1.490  15.678  0.5325  1.1296  0.0223
18828TIP3   OH277974   0.985   0.080   3.790 -0.1033  0.6261 -0.0700
18828TIP3    H177975   0.958   0.142   3.858 -0.3073  1.2752 -0.7289
18828TIP3    H277976   0.941   0.112   3.711  1.8108  1.1140 -0.9512
18829TIP3   OH277977   1.455   0.226  16.860 -0.4845  0.0493  0.0995
18829TIP3    H177978   1.543   0.262  16.861 -0.2780 -0.2554 -2.4941
18829TIP3    H277979   1.414   0.258  16.940  2.4159 -1.0001  2.0760
18830TIP3   OH277980   3.807   0.795  12.000 -0.5401 -0.0885 -0.0983
18830TIP3    H177981   3.795   0.872  12.055  0.6372  1.9076 -2.5033
18830TIP3    H277982   3.731   0.795  11.942 -0.1663 -0.3090 -0.5925
18831TIP3   OH277983   6.559   2.581  14.894 -0.4171 -0.6188 -0.1184
18831TIP3    H177984   6.604   2.586  14.979 -1.3474 -0.5738  0.3857
18831TIP3    H277985   6.496   2.654  14.896  0.1793 -0.0671 -1.2227
18832TIP3   OH277986   3.099   1.792  12.413  0.1286  0.6202 -0.1526
18832TIP3    H177987   3.087   1.875  12.460 -0.9194  1.0334 -1.1407
18832TIP3    H277988   3.010   1.757  12.403  0.6212 -1.0342  0.9798
18833TIP3   OH277989   3.413   6.595   0.896 -0.5912 -0.5343  0.3032
18833TIP3    H177990   3.319   6.596   0.879 -0.5152  1.6277 -0.1539
18833TIP3    H277991   3.421   6.580   0.990 -1.4624  0.8632  0.6191
18834TIP3   OH277992   1.254   3.060   3.213  0.5144  0.2324  0.6567
18834TIP3    H177993   1.344   3.026   3.205 -0.0776 -1.2760  0.2524
18834TIP3    H277994   1.198   2.985   3.194 -0.8462  1.4856 -0.4390
18835TIP3   OH277995   4.913   3.131   4.733 -0.2037  0.4755 -0.2349
18835TIP3    H177996   4.823   3.154   4.756 -0.3134  0.0254 -0.2034
18835TIP3    H277997   4.967   3.183   4.792 -0.4644  0.0732  0.3678
18836TIP3   OH277998   3.370   4.732   6.461  0.0233 -0.0499  0.0930
18836TIP3    H177999   3.439   4.693   6.515 -0.2500 -0.3334  0.2407
18836TIP3    H278000   3.292   4.679   6.480 -0.4195  0.7443  0.5055
18837TIP3   OH278001   0.323   2.368   2.461 -0.2899 -0.3836 -0.4118
18837TIP3    H178002   0.292   2.278   2.457  0.1848 -0.5599 -0.1684
18837TIP3    H278003   0.302   2.405   2.375  0.1061 -0.9218 -0.7409
18838TIP3   OH278004   1.403   1.983   2.764 -0.1951 -0.2274  0.5732
18838TIP3    H178005   1.414   1.994   2.669 -1.3866  0.0818  0.4715
18838TIP3    H278006   1.474   2.036   2.802 -0.4495  0.6203 -0.1176
18839TIP3   OH278007   3.693   6.294   2.789  0.4815  0.2073 -0.2051
18839TIP3    H178008   3.730   6.210   2.815  1.6850  1.2181  1.4334
18839TIP3    H278009   3.728   6.310   2.701  0.0068 -1.1174 -0.6482
18840TIP3   OH278010   0.317   2.707   4.080 -0.1062 -0.0566 -0.3349
18840TIP3    H178011   0.278   2.793   4.092  0.0258  0.0925 -0.9506
18840TIP3    H278012   0.282   2.654   4.151 -1.5805  0.0248 -0.9885
18841TIP3   OH278013   1.723   2.270   4.597 -0.2172  0.1380 -0.0328
18841TIP3    H178014   1.735   2.176   4.583 -1.2129  0.1816 -1.3010
18841TIP3    H278015   1.630   2.285   4.583 -0.0000  1.3723 -0.2311
18842TIP3   OH278016   0.155   5.727  15.660 -0.6789  0.1855 -0.0481
18842TIP3    H178017   0.248   5.717  15.641 -0.5277  0.5361  0.5036
18842TIP3    H278018   0.111   5.699  15.579 -0.1101 -0.2508 -0.2114
18843TIP3   OH278019   6.358   0.073  11.278  0.1226  0.1191  0.2137
18843TIP3    H178020   6.341   0.139  11.344 -0.0525 -0.1939  0.4849
18843TIP3    H278021   6.369  -0.008  11.328 -2.0087 -0.5054 -0.2682
18844TIP3   OH278022   6.653   4.706  14.631  0.2350 -0.1146 -0.3332
18844TIP3    H178023   6.685   4.661  14.710  0.0454  2.7541  1.4701
18844TIP3    H278024   6.564   4.673  14.619  0.7454 -1.5912 -0.1784
18845TIP3   OH278025   5.575   2.094   0.358 -0.1600 -0.3545 -0.2990
18845TIP3    H178026   5.575   2.016   0.414 -0.9799  0.1140  0.3521
18845TIP3    H278027   5.487   2.131   0.368  0.3447  0.8677 -0.3243
18846TIP3   OH278028   2.587   0.004   1.275  0.0779  0.0683  0.2834
18846TIP3    H178029   2.619  -0.082   1.299 -0.3161 -0.3065 -0.5054
18846TIP3    H278030   2.555  -0.006   1.185 -0.4354  0.9043  0.3593
18847TIP3   OH278031   4.137   6.763  16.598  0.0213  0.6811  0.0017
18847TIP3    H178032   4.126   6.708  16.520  0.3407 -0.9132  1.0631
18847TIP3    H278033   4.125   6.853  16.566  0.0271  0.0403 -1.8562
18848TIP3   OH278034   1.250   5.353   2.797 -0.6299  0.1256  0.3376
18848TIP3    H178035   1.278   5.444   2.787 -1.1780  0.2688  0.0954
18848TIP3    H278036   1.330   5.301   2.783  0.1670  0.6478  2.7055
18849TIP3   OH278037   1.529   0.572  16.519  0.2585 -0.1058 -0.3573
18849TIP3    H178038   1.531   0.543  16.610 -0.9640  2.8677  0.6808
18849TIP3    H278039   1.493   0.498  16.471 -2.2411 -0.6016  2.0955
18850TIP3   OH278040   6.320   4.637   6.147  0.4475  0.0962  0.1632
18850TIP3    H178041   6.305   4.549   6.113  0.3138  0.6525 -1.2542
18850TIP3    H278042   6.409   4.634   6.183  0.6833 -0.4399 -0.4593
18851TIP3   OH278043   3.445   1.173   0.419  0.4178 -0.2244 -0.4822
18851TIP3    H178044   3.474   1.133   0.501  0.0181 -0.0549 -0.2544
18851TIP3    H278045   3.494   1.256   0.415  0.0546  0.0104 -0.1525
18852TIP3   OH278046   6.088   4.905  13.352  0.4756  0.1287 -0.0265
18852TIP3    H178047   6.161   4.897  13.291  0.4217  1.0897 -0.2277
18852TIP3    H278048   6.040   4.822  13.344  1.9860 -0.8208  0.6961
18853TIP3   OH278049   5.489   5.970   1.072  0.6431  0.0355  0.3247
18853TIP3    H178050   5.444   5.886   1.082  0.1410  0.0171 -1.9369
18853TIP3    H278051   5.425   6.035   1.103  0.7545 -0.3291  1.3572
18854TIP3   OH278052   1.049   5.675   2.334  0.0320 -0.4419  0.0331
18854TIP3    H178053   1.114   5.686   2.264  0.1634  0.4432  0.2852
18854TIP3    H278054   0.974   5.634   2.291 -0.9768  2.6477 -1.2740
18855TIP3   OH278055   3.043   0.869  12.703  0.0363  0.0757  0.2832
18855TIP3    H178056   3.008   0.916  12.628 -0.7617  0.9187  1.1772
18855TIP3    H278057   3.138   0.877  12.694 -0.0640  0.5663 -0.3825
18856TIP3   OH278058   4.482   3.631  16.062 -0.7310  0.2081 -0.1511
18856TIP3    H178059   4.554   3.591  16.110 -1.1571 -1.3137 -0.7684
18856TIP3    H278060   4.522   3.706  16.018  0.3837 -0.3637 -0.1264
18857TIP3   OH278061   2.470   1.517  17.215  0.3168 -0.4638  0.2182
18857TIP3    H178062   2.472   1.444  17.277  0.8104 -1.1499 -0.6008
18857TIP3    H278063   2.548   1.505  17.161 -1.1823 -1.0855 -1.9029
18858TIP3   OH278064   4.851   0.372  10.743  0.0370  0.3287  0.1231
18858TIP3    H178065   4.926   0.317  10.763 -1.1458 -0.8056  1.6140
18858TIP3    H278066   4.876   0.419  10.664  1.5635 -1.4404 -0.4959
18859TIP3   OH278067   4.031   5.320   4.366 -0.1687  0.1426 -0.2772
18859TIP3    H178068   4.005   5.410   4.387 -1.0404  0.4136 -2.3714
18859TIP3    H278069   3.953   5.268   4.383 -0.0098 -0.0564 -0.1487
18860TIP3   OH278070   4.706   4.269  15.819 -0.0403  0.2312  0.1767
18860TIP3    H178071   4.686   4.360  15.838 -0.3154 -0.1941  2.0728
18860TIP3    H278072   4.782   4.249  15.874  0.3177 -0.5402 -0.5925
18861TIP3   OH278073   3.668   5.782   3.791 -0.3865 -0.4591  0.4901
18861TIP3    H178074   3.603   5.722   3.756 -0.0819  0.1224 -1.1193
18861TIP3    H278075   3.752   5.751   3.757  0.1359 -0.8907  2.1095
18862TIP3   OH278076   2.579   5.571   4.265  0.5564 -0.2248 -0.1432
18862TIP3    H178077   2.619   5.633   4.203 -1.3705  1.2981  0.0720
18862TIP3    H278078   2.549   5.626   4.338 -0.9691 -1.4350  0.1719
18863TIP3   OH278079   1.202   3.815  14.550  0.1269  0.5900 -0.0813
18863TIP3    H178080   1.130   3.752  14.550 -0.0004  0.6854 -3.2290
18863TIP3    H278081   1.281   3.762  14.552  0.0360  0.4701  2.3020
18864TIP3   OH278082   6.518   5.084   3.398  0.3219 -0.1378  0.2785
18864TIP3    H178083   6.430   5.120   3.408  0.8056  1.0973  0.1409
18864TIP3    H278084   6.533   5.083   3.304  0.4158 -0.4587  0.2958
18865TIP3   OH278085   3.194   0.647   1.109  0.0652 -0.1893 -0.1790
18865TIP3    H178086   3.202   0.611   1.198 -0.2113  1.8019  0.6690
18865TIP3    H278087   3.235   0.581   1.053  1.1962 -0.9720  1.5328
18866TIP3   OH278088   6.169   0.567   2.405  0.6525 -0.1465  0.6688
18866TIP3    H178089   6.126   0.570   2.320 -2.4076  1.2419  2.1997
18866TIP3    H278090   6.204   0.655   2.418  2.0479 -0.6538  0.3939
18867TIP3   OH278091   1.874   5.732  15.331  0.6562 -0.0406  0.3818
18867TIP3    H178092   1.936   5.779  15.276 -0.1478 -1.2366 -1.6021
18867TIP3    H278093   1.838   5.799  15.390  2.1315  1.0983  0.0152
18868TIP3   OH278094   4.047   0.531   4.122  0.4071 -0.1983  0.0624
18868TIP3    H178095   4.140   0.509   4.118  0.5121  0.1264  0.6463
18868TIP3    H278096   4.031   0.555   4.214  0.1508  1.4237 -0.3780
18869TIP3   OH278097   5.373   2.108   2.670  0.0799  0.3146  0.1542
18869TIP3    H178098   5.309   2.122   2.740  0.9933  1.7855  0.7177
18869TIP3    H278099   5.384   2.194   2.629  2.1963  0.2513  0.5249
18870TIP3   OH278100   0.517   6.645   1.123 -0.5859  0.7215  0.0261
18870TIP3    H178101   0.529   6.717   1.184  0.7754  0.6400 -0.1362
18870TIP3    H278102   0.583   6.660   1.055  0.8020 -1.5359  0.8181
18871TIP3   OH278103   0.011   6.540   1.745  0.7079 -0.3241  0.9537
18871TIP3    H178104  -0.063   6.599   1.738  1.6970  0.7544 -0.8953
18871TIP3    H278105   0.056   6.567   1.825  0.3357  0.4654  0.8999
18872TIP3   OH278106   3.641   1.463   0.426 -0.3341 -0.5946 -0.5998
18872TIP3    H178107   3.602   1.543   0.390 -0.0321  0.0613  0.5239
18872TIP3    H278108   3.683   1.421   0.351  0.4769  0.8717 -0.9702
18873TIP3   OH278109   4.170   6.807  14.125  0.3646 -0.2068  0.1284
18873TIP3    H178110   4.144   6.752  14.199 -1.9360 -1.5623 -1.5971
18873TIP3    H278111   4.261   6.784  14.108  0.0075 -2.0968  0.6598
18874TIP3   OH278112   1.354   6.103   0.554 -0.2573  0.7706 -0.3134
18874TIP3    H178113   1.365   6.077   0.462  0.2657  0.0841 -0.0563
18874TIP3    H278114   1.288   6.043   0.589 -1.9857  2.3365 -0.7746
18875TIP3   OH278115   5.648   1.082   2.048 -0.3918  0.6505  0.5535
18875TIP3    H178116   5.561   1.055   2.020 -0.5066  1.7269 -0.1750
18875TIP3    H278117   5.632   1.139   2.124 -0.1444 -1.4144  2.1869
18876TIP3   OH278118   1.761   4.992  10.442 -0.1666  0.4905  0.4034
18876TIP3    H178119   1.699   5.056  10.408 -0.9602  0.3402  1.5251
18876TIP3    H278120   1.708   4.936  10.500  0.1680 -2.1240 -1.7310
18877TIP3   OH278121   6.137   3.779  14.002 -0.7039  0.1092 -0.5584
18877TIP3    H178122   6.132   3.851  13.939 -0.8948 -0.0076 -0.6761
18877TIP3    H278123   6.046   3.753  14.016 -0.7204  0.6347  0.3440
18878TIP3   OH278124   4.525   5.360   3.507  0.7886  0.0995 -0.0704
18878TIP3    H178125   4.456   5.295   3.514  0.2170  0.4818 -1.8848
18878TIP3    H278126   4.604   5.313   3.535  0.2333 -1.1075 -0.4575
18879TIP3   OH278127   5.538   1.760  14.344  0.4749  0.4194 -0.0109
18879TIP3    H178128   5.474   1.822  14.379 -0.6840 -0.7361 -0.0612
18879TIP3    H278129   5.537   1.776  14.250 -1.4233 -1.1232 -0.2908
18880TIP3   OH278130   6.352   2.418   3.645  0.0225 -0.4898  0.4294
18880TIP3    H178131   6.355   2.333   3.602  0.2870  0.1172 -0.7910
18880TIP3    H278132   6.385   2.479   3.579  0.4297  0.4700  1.4996
18881TIP3   OH278133   4.191   5.627  15.517  0.7171 -0.3831 -0.1212
18881TIP3    H178134   4.197   5.599  15.426  1.1797  0.1398 -0.2559
18881TIP3    H278135   4.172   5.721  15.512 -0.8213 -0.6575  0.3197
18882TIP3   OH278136   0.107   2.326   2.674  0.3184  0.2412 -0.5532
18882TIP3    H178137   0.143   2.414   2.673  0.7933  0.0436 -2.0300
18882TIP3    H278138   0.183   2.269   2.660  0.3407 -0.5492  2.3305
18883TIP3   OH278139   0.009   1.201  12.730  0.0654 -0.1123  0.7624
18883TIP3    H178140   0.019   1.271  12.665 -0.2587  2.2604  3.2104
18883TIP3    H278141  -0.073   1.157  12.705 -0.5518  1.3625  0.1167
18884TIP3   OH278142   0.329   5.761  12.485 -0.3815  0.0528  0.1143
18884TIP3    H178143   0.370   5.777  12.400 -0.6193  0.4446  0.0719
18884TIP3    H278144   0.398   5.778  12.549  0.1802 -1.5313 -0.0507
18885TIP3   OH278145   4.264   2.391  13.341 -0.1206 -0.2008  0.1657
18885TIP3    H178146   4.323   2.379  13.416 -0.1957 -0.5139  0.1767
18885TIP3    H278147   4.315   2.443  13.278 -0.4960  1.1455  0.9434
18886TIP3   OH278148   5.712   1.149  16.161 -1.1551  0.2320  0.1128
18886TIP3    H178149   5.686   1.093  16.088  0.3290 -0.3810  0.0301
18886TIP3    H278150   5.639   1.146  16.222 -2.0296  0.0302 -0.9364
18887TIP3   OH278151   2.262   5.481   1.145  0.3019  0.7499  0.4124
18887TIP3    H178152   2.286   5.573   1.157 -0.0631  0.5855  2.5314
18887TIP3    H278153   2.346   5.436   1.132  0.4762  1.3694 -0.7361
18888TIP3   OH278154   5.730   2.801  16.046 -0.7927  0.1530 -0.4842
18888TIP3    H178155   5.811   2.804  16.096 -1.2881 -0.3573  0.3670
18888TIP3    H278156   5.755   2.763  15.961 -0.1387  0.0645 -0.2514
18889TIP3   OH278157   5.853   0.964   6.382 -0.5736 -0.9859 -0.3063
18889TIP3    H178158   5.791   1.036   6.383 -0.9239 -1.2538 -1.9054
18889TIP3    H278159   5.938   1.006   6.368 -0.9136 -0.9678 -2.3795
18890TIP3   OH278160   2.430   1.136  15.655 -0.1927  0.6062 -0.0630
18890TIP3    H178161   2.499   1.070  15.665  0.6046  1.2164 -1.3935
18890TIP3    H278162   2.444   1.197  15.727 -0.8430 -0.5810  1.0930
18891TIP3   OH278163   1.402   4.895  16.334 -0.3005  0.1833  0.3316
18891TIP3    H178164   1.476   4.843  16.302  0.9448  2.0315  0.1035
18891TIP3    H278165   1.402   4.972  16.278 -2.3076  0.2989  0.4717
18892TIP3   OH278166   3.548   0.898  11.531 -0.1074  0.2986 -0.1248
18892TIP3    H178167   3.584   0.810  11.518  1.0624  0.4789  1.7649
18892TIP3    H278168   3.478   0.904  11.466 -0.4898 -2.1850 -0.0141
18893TIP3   OH278169   0.145   0.427  16.158 -0.1186 -0.2521 -0.6723
18893TIP3    H178170   0.070   0.454  16.211 -0.4024 -0.2757 -1.0530
18893TIP3    H278171   0.123   0.338  16.129 -0.8376  0.4415 -2.3664
18894TIP3   OH278172   3.180   2.171  14.794  0.0384  0.5728  0.4532
18894TIP3    H178173   3.096   2.217  14.787 -0.2644  0.2080  1.6319
18894TIP3    H278174   3.157   2.080  14.813  0.6400 -0.1071 -1.8087
18895TIP3   OH278175   0.744   3.209   2.396 -0.7939 -0.7085  0.5521
18895TIP3    H178176   0.693   3.142   2.349 -1.6107  0.4416 -0.2356
18895TIP3    H278177   0.678   3.269   2.431  0.0303  2.7186 -3.3590
18896TIP3   OH278178   2.160   1.227  15.152 -0.7248 -0.3135 -0.1126
18896TIP3    H178179   2.114   1.310  15.164 -0.3414 -0.4291  2.3722
18896TIP3    H278180   2.249   1.251  15.127 -0.6903  0.0352  0.3375
18897TIP3   OH278181   1.170   4.039   5.622 -0.1224  0.9151  0.1244
18897TIP3    H178182   1.234   3.988   5.572 -2.2324 -1.3862 -0.3283
18897TIP3    H278183   1.141   3.979   5.691 -1.2634  2.1782  0.7448
18898TIP3   OH278184   1.795   3.762  11.748 -0.5493  0.1217 -0.3218
18898TIP3    H178185   1.799   3.784  11.841 -0.3570 -0.2968 -0.2306
18898TIP3    H278186   1.805   3.846  11.703 -1.0458  0.3810  0.0398
18899TIP3   OH278187   4.207   5.508   2.111  0.1190  0.2078 -0.8119
18899TIP3    H178188   4.260   5.449   2.058  0.1193 -1.7624  1.3102
18899TIP3    H278189   4.261   5.587   2.121  2.3891 -1.4787  0.7088
18900TIP3   OH278190   3.119   1.634   1.906  0.0068  0.4492  0.0650
18900TIP3    H178191   3.204   1.610   1.942  0.6889  0.9517 -1.2013
18900TIP3    H278192   3.104   1.723   1.937 -0.3595  0.1410  0.8043
18901TIP3   OH278193   2.713   6.766   2.678  0.0766 -0.5248  0.6529
18901TIP3    H178194   2.768   6.716   2.738  1.2971 -1.1185 -0.9380
18901TIP3    H278195   2.775   6.811   2.620 -1.1056 -0.7193 -0.7780
18902TIP3   OH278196   3.962   4.604   1.734 -0.0096 -0.1125 -0.0349
18902TIP3    H178197   3.984   4.562   1.817  1.9757 -0.9779 -0.9566
18902TIP3    H278198   4.015   4.684   1.732 -1.2319  0.7162  0.2122
18903TIP3   OH278199   5.929   2.981   2.583  0.2490 -0.6439  0.4668
18903TIP3    H178200   5.905   3.029   2.663  0.2500  0.2145 -0.0338
18903TIP3    H278201   5.993   2.916   2.612  0.1389 -0.4365  1.1909
18904TIP3   OH278202   6.379   1.865   6.627  0.8465  1.7541  0.1594
18904TIP3    H178203   6.398   1.907   6.543 -0.1851 -0.1898 -1.0794
18904TIP3    H278204   6.462   1.825   6.653  0.8812  1.4080 -0.4923
18905TIP3   OH278205   0.406   0.638   6.338  0.0410  0.2887  0.5464
18905TIP3    H178206   0.320   0.655   6.375 -0.3321 -0.4517  0.0109
18905TIP3    H278207   0.418   0.708   6.274 -0.3081  0.1791  0.3625
18906TIP3   OH278208   1.984   4.668  12.510 -0.1154 -0.4838 -0.2004
18906TIP3    H178209   1.972   4.614  12.431 -3.6866 -0.8713  0.5451
18906TIP3    H278210   1.978   4.758  12.478  0.5649 -0.5975 -0.6689
18907TIP3   OH278211   5.105   3.719  14.791 -0.4669 -0.0889  0.3938
18907TIP3    H178212   5.169   3.683  14.853 -1.9429  0.0849  2.0739
18907TIP3    H278213   5.089   3.647  14.730 -1.3032 -1.3830  2.0772
18908TIP3   OH278214   3.739   1.054  11.165  0.5181  0.5819 -0.2891
18908TIP3    H178215   3.739   1.061  11.261 -2.3233 -2.4167  0.0121
18908TIP3    H278216   3.831   1.045  11.141  1.1128 -1.0800  2.4044
18909TIP3   OH278217   3.738   4.609  13.728 -0.0465  0.2435  0.2141
18909TIP3    H178218   3.730   4.553  13.650 -0.5425  1.2001 -0.4426
18909TIP3    H278219   3.679   4.569  13.792 -0.9218  0.3981 -0.4874
18910TIP3   OH278220   6.304   5.841  14.139 -0.3456  0.0204  0.1286
18910TIP3    H178221   6.296   5.763  14.084  0.4464 -0.1924  0.3026
18910TIP3    H278222   6.291   5.914  14.078 -0.8593 -0.2412 -0.0775
18911TIP3   OH278223   4.611   2.261  15.871  0.2408 -0.1207 -0.5362
18911TIP3    H178224   4.566   2.215  15.942 -1.1002 -1.1539 -2.0537
18911TIP3    H278225   4.703   2.234  15.881 -0.0869 -1.0080  0.2277
18912TIP3   OH278226   3.005   5.721   5.792 -0.1157  0.3791  0.1993
18912TIP3    H178227   3.042   5.636   5.817 -0.5729  0.3488  0.7960
18912TIP3    H278228   3.013   5.775   5.871 -0.5380  0.6440  0.0638
18913TIP3   OH278229   3.357   0.466  14.280 -0.2571 -1.1888 -0.1456
18913TIP3    H178230   3.349   0.561  14.276 -0.7901 -1.2568 -0.8406
18913TIP3    H278231   3.436   0.450  14.332  0.1124 -0.3603 -0.4547
18914TIP3   OH278232   3.402   4.720  10.336 -0.0344 -0.4318  0.2695
18914TIP3    H178233   3.424   4.649  10.396 -0.1010  0.3769  1.2586
18914TIP3    H278234   3.472   4.784  10.348  0.4267 -0.6490 -1.1575
18915TIP3   OH278235   2.231   3.863  13.473  0.1477  0.5555  0.0604
18915TIP3    H178236   2.285   3.836  13.399  0.3238  0.6898  0.1408
18915TIP3    H278237   2.229   3.786  13.531  1.3348  0.9948  0.6852
18916TIP3   OH278238   4.116   4.442   3.307  0.4160  0.1540 -0.1930
18916TIP3    H178239   4.194   4.482   3.345 -0.2971  0.0842  1.3665
18916TIP3    H278240   4.126   4.349   3.324 -0.4110  0.2346  0.7856
18917TIP3   OH278241   1.543   0.451  15.657 -0.0916 -0.7404  0.2231
18917TIP3    H178242   1.536   0.546  15.656 -1.3327 -0.8291 -1.8126
18917TIP3    H278243   1.630   0.434  15.693  0.5039  1.1948 -0.2577
18918TIP3   OH278244   2.427   1.234  12.985 -0.0852  0.1780 -0.1011
18918TIP3    H178245   2.367   1.161  12.974 -0.5594  0.3738  1.0931
18918TIP3    H278246   2.461   1.224  13.074  2.1824 -0.3253 -1.0045
18919TIP3   OH278247   2.495   1.177  16.375  0.0804 -0.0153  0.4455
18919TIP3    H178248   2.476   1.270  16.362  3.0052  0.3745 -1.3583
18919TIP3    H278249   2.431   1.132  16.320 -0.9395  0.9092  0.8354
18920TIP3   OH278250   0.567   4.289   3.730 -0.3936 -0.1435 -0.0090
18920TIP3    H178251   0.540   4.206   3.768  0.3115 -0.6013 -0.4750
18920TIP3    H278252   0.621   4.264   3.654 -0.3875  0.7340 -0.3044
18921TIP3   OH278253   5.829   5.971   5.327 -0.2259 -0.0403  0.3533
18921TIP3    H178254   5.858   6.062   5.331 -0.4965 -0.0321  2.2187
18921TIP3    H278255   5.910   5.920   5.319 -0.0106  0.2834  0.4829
18922TIP3   OH278256   6.175   1.843   2.351  0.1254 -0.0026  0.0401
18922TIP3    H178257   6.098   1.808   2.305 -1.3605  2.3207  0.6912
18922TIP3    H278258   6.152   1.838   2.444  0.6774  0.8674  0.2288
18923TIP3   OH278259   1.223   0.874   4.255  0.3579 -0.0607 -0.0229
18923TIP3    H178260   1.276   0.822   4.193  0.6681  0.1963  0.0265
18923TIP3    H278261   1.287   0.911   4.315  0.1438  0.4714 -0.1222
18924TIP3   OH278262   6.099   6.178   0.818 -0.4396 -0.0073  0.0936
18924TIP3    H178263   6.135   6.186   0.730  0.2458  0.3455  0.3964
18924TIP3    H278264   6.011   6.142   0.806 -0.1305 -0.5005 -0.6862
18925TIP3   OH278265   4.767   1.910  11.892  0.2425  0.7667 -0.4406
18925TIP3    H178266   4.705   1.913  11.819 -0.6859  0.0966  0.3128
18925TIP3    H278267   4.776   2.002  11.919 -2.0208  0.6774  0.7536
18926TIP3   OH278268   0.980   4.614   5.606  0.3553  0.1941  0.3499
18926TIP3    H178269   0.886   4.602   5.617  0.6732 -0.5374  2.5193
18926TIP3    H278270   0.988   4.693   5.552 -1.5109 -1.1466 -1.9275
18927TIP3   OH278271   4.937   0.354   2.698 -0.3314  0.7535  0.3746
18927TIP3    H178272   4.980   0.366   2.613 -2.1127 -0.3516 -0.7082
18927TIP3    H278273   4.968   0.427   2.751  0.9579  1.3443 -1.1592
18928TIP3   OH278274   2.030   5.947   5.625 -0.2469  0.1063  0.0852
18928TIP3    H178275   1.943   5.922   5.595 -0.3518 -1.0678  1.3208
18928TIP3    H278276   2.020   5.961   5.719  0.4643  1.9619 -0.0916
18929TIP3   OH278277   2.288   4.677  16.627  0.1276  0.4838  0.3002
18929TIP3    H178278   2.357   4.728  16.585  0.3259  0.6421  0.8099
18929TIP3    H278279   2.259   4.615  16.560  0.4303  0.7372 -0.0685
18930TIP3   OH278280   2.902   5.303  13.242  0.2630 -0.6513  0.5044
18930TIP3    H178281   2.892   5.242  13.314  0.0702 -0.4084  0.6822
18930TIP3    H278282   2.925   5.248  13.167 -0.5412 -1.0092  0.5191
18931TIP3   OH278283   3.709   5.388   1.017 -0.1532  0.0774  0.1280
18931TIP3    H178284   3.715   5.293   1.015  1.9499  0.1991 -0.8586
18931TIP3    H278285   3.700   5.413   0.925 -2.3889  0.7584  0.5074
18932TIP3   OH278286   2.444   4.472  10.868  0.1362 -0.1809 -0.3132
18932TIP3    H178287   2.520   4.414  10.863 -1.1669 -1.8730 -0.9851
18932TIP3    H278288   2.396   4.455  10.787 -1.1703  0.5789  0.3015
18933TIP3   OH278289   1.782   1.839  12.941  0.3190  0.3080  0.7493
18933TIP3    H178290   1.873   1.835  12.969  0.9343 -0.8773 -1.3546
18933TIP3    H278291   1.733   1.849  13.023  2.2773  0.3849  1.9511
18934TIP3   OH278292   1.676   5.165  14.472 -0.1166 -0.3307  0.3793
18934TIP3    H178293   1.688   5.078  14.435  0.6569 -0.0712  0.0151
18934TIP3    H278294   1.678   5.224  14.397  1.3402  0.1872  0.8037
18935TIP3   OH278295   1.734   5.676  11.068  0.0762 -0.2412  0.0889
18935TIP3    H178296   1.654   5.627  11.082 -0.4667  0.9622  1.2601
18935TIP3    H278297   1.705   5.766  11.051  1.2082  0.4934  1.8583
18936TIP3   OH278298   0.226   0.235  14.542 -0.2627 -0.2989  0.5182
18936TIP3    H178299   0.240   0.258  14.634 -0.7494 -0.7639  0.7145
18936TIP3    H278300   0.256   0.311  14.493  1.7273 -0.7617  0.9712
18937TIP3   OH278301   0.829   1.972  14.490 -0.3796 -0.1939  0.0276
18937TIP3    H178302   0.752   1.934  14.532 -0.4899 -0.1218 -0.1103
18937TIP3    H278303   0.861   1.903  14.432  0.6903 -0.8725  1.3798
18938TIP3   OH278304   0.958   1.263  15.053  0.0799 -0.3940  0.2646
18938TIP3    H178305   1.047   1.259  15.086  0.8529  1.2619 -1.5375
18938TIP3    H278306   0.959   1.209  14.974  0.0672  1.4266 -0.9944
18939TIP3   OH278307   4.277   3.957  12.608  0.0561 -0.3474  0.0235
18939TIP3    H178308   4.294   4.043  12.570  3.5618 -0.1374  1.9190
18939TIP3    H278309   4.320   3.895  12.549 -0.3368 -0.6185  0.0143
18940TIP3   OH278310   4.099   2.788   0.788  0.4901  0.2494 -0.0671
18940TIP3    H178311   4.084   2.700   0.825  3.3414  0.2006  1.0438
18940TIP3    H278312   4.080   2.778   0.695  1.4563 -1.7300 -0.0765
18941TIP3   OH278313   0.997   2.582  12.133 -0.0317 -0.5571  0.0051
18941TIP3    H178314   0.977   2.588  12.040 -0.9570  1.4320  0.3092
18941TIP3    H278315   0.988   2.671  12.166 -0.4138 -1.3455  2.1476
18942TIP3   OH278316   1.979   3.273  16.147 -0.0722  0.3909  0.5205
18942TIP3    H178317   1.993   3.262  16.242 -0.5376 -0.9134  0.4476
18942TIP3    H278318   1.954   3.364  16.137  0.7491  0.7496  1.5668
18943TIP3   OH278319   2.917   5.272   4.153 -0.7133 -0.1829  0.4589
18943TIP3    H178320   2.842   5.270   4.094  0.2261  1.2335 -0.8443
18943TIP3    H278321   2.883   5.308   4.235 -0.8452  3.5503 -1.1327
18944TIP3   OH278322   2.584   2.846   3.184 -0.2746  0.2799 -0.0694
18944TIP3    H178323   2.585   2.790   3.261  0.3854  0.2793 -0.0756
18944TIP3    H278324   2.619   2.930   3.215 -0.9009  0.5767 -0.1465
18945TIP3   OH278325   6.715   4.060  17.163 -0.3604 -0.3405 -0.1242
18945TIP3    H178326   6.744   4.061  17.254 -0.3107 -0.2899 -0.1404
18945TIP3    H278327   6.646   4.127  17.160 -1.0338 -1.0219  0.0964
18946TIP3   OH278328   0.105   2.876   5.437 -0.3509 -0.2454 -0.0158
18946TIP3    H178329   0.014   2.883   5.410 -0.1218 -0.2167 -0.8023
18946TIP3    H278330   0.126   2.783   5.426  0.9979  0.4619 -4.1404
18947TIP3   OH278331   4.288   0.350   2.711 -0.3018  0.1920  0.4581
18947TIP3    H178332   4.280   0.338   2.806  0.7328  1.6493  0.7402
18947TIP3    H278333   4.310   0.263   2.678 -0.1579 -0.2210  1.6187
18948TIP3   OH278334   1.986   3.701  12.968  0.6021 -0.6883  0.7145
18948TIP3    H178335   2.065   3.727  13.016  1.4961 -0.9328 -0.5967
18948TIP3    H278336   2.018   3.648  12.895 -0.8234 -1.2736  0.4930
18949TIP3   OH278337   0.802   5.080  11.881  0.7813 -0.0599  0.5499
18949TIP3    H178338   0.821   5.097  11.973  0.2471  0.5098  0.5599
18949TIP3    H278339   0.816   5.165  11.837 -1.1173  0.2495  0.4734
18950TIP3   OH278340   5.655   3.396  13.461  0.2424 -0.0837 -0.1335
18950TIP3    H178341   5.687   3.369  13.375 -0.4297  2.7887 -1.3569
18950TIP3    H278342   5.694   3.333  13.522  1.5475 -1.5723 -2.4080
18951TIP3   OH278343   3.050   3.887  12.213 -0.0359 -0.9307  0.1551
18951TIP3    H178344   3.116   3.946  12.177  1.0121 -1.7111  0.7904
18951TIP3    H278345   3.028   3.829  12.140  0.1844 -0.8566  0.0289
18952TIP3   OH278346   3.703   1.667  15.629 -0.1376  0.0219 -0.0915
18952TIP3    H178347   3.696   1.608  15.554  1.7091 -1.4659  0.8541
18952TIP3    H278348   3.613   1.676  15.660 -0.4705 -2.4135 -0.2073
18953TIP3   OH278349   6.283   4.940   2.997  0.3109 -0.1462 -0.0145
18953TIP3    H178350   6.288   4.943   3.093  0.6311  0.7151 -0.0490
18953TIP3    H278351   6.189   4.942   2.979  0.2611  0.6784  0.2733
18954TIP3   OH278352   1.298   4.349  12.430 -0.2625  0.2123 -0.2715
18954TIP3    H178353   1.234   4.364  12.360 -0.4554 -1.4816 -0.4805
18954TIP3    H278354   1.383   4.348  12.384 -0.1913  1.1820 -0.1733
18955TIP3   OH278355   1.185   3.373   1.017 -0.1330  0.1830  0.1335
18955TIP3    H178356   1.185   3.404   1.108  0.7960  1.6914 -0.3618
18955TIP3    H278357   1.157   3.449   0.966  2.3400  0.3160 -1.1214
18956TIP3   OH278358   2.984   2.481   0.669 -0.5894 -0.5215  0.0724
18956TIP3    H178359   2.894   2.507   0.648 -1.2910 -1.8208  1.4069
18956TIP3    H278360   2.981   2.460   0.762  1.4411  0.8383  0.4740
18957TIP3   OH278361   1.085   3.670  12.291 -0.5094 -0.5221 -0.2907
18957TIP3    H178362   1.087   3.738  12.223  0.0074  1.4293  1.6100
18957TIP3    H278363   1.009   3.617  12.270 -1.8283  1.5613 -0.9972
18958TIP3   OH278364   0.219   2.392   5.726 -0.0533 -0.2491  0.4740
18958TIP3    H178365   0.305   2.433   5.729  0.4795 -1.1090 -1.7622
18958TIP3    H278366   0.159   2.459   5.758  1.2383  0.9701  0.3925
18959TIP3   OH278367   1.499   4.076   0.675  0.0116 -0.5038 -0.2919
18959TIP3    H178368   1.581   4.118   0.701 -0.6802  0.5799  0.1643
18959TIP3    H278369   1.438   4.096   0.745 -0.9890 -0.2369 -1.2239
18960TIP3   OH278370   2.899   3.373   3.148  0.2350  0.1424  0.6407
18960TIP3    H178371   2.853   3.291   3.169  0.1091  0.5811  2.0854
18960TIP3    H278372   2.829   3.438   3.140  0.4046  0.2856  0.3343
18961TIP3   OH278373   3.292   3.613  17.292 -0.2612 -0.2154  0.1606
18961TIP3    H178374   3.277   3.543  17.356 -0.2464 -1.3742 -1.0824
18961TIP3    H278375   3.312   3.567  17.211 -4.1019  1.1540 -1.6760
18962TIP3   OH278376   4.318   2.220   6.344  0.1508  0.1923  0.0382
18962TIP3    H178377   4.300   2.300   6.393 -1.0968  0.8266 -1.4331
18962TIP3    H278378   4.413   2.219   6.335  0.0952  2.1603 -0.9886
18963TIP3   OH278379   4.556   3.021   4.764 -0.2175  0.7068 -0.4474
18963TIP3    H178380   4.473   3.014   4.810  1.4095 -2.3203  2.2475
18963TIP3    H278381   4.597   3.101   4.798 -0.3781  0.1329  1.1338
18964TIP3   OH278382   1.319   2.525   4.979  0.0324 -0.7686 -0.3302
18964TIP3    H178383   1.304   2.618   4.965  0.6553 -0.3567  1.5375
18964TIP3    H278384   1.250   2.499   5.040 -0.9342 -1.8428 -1.8610
18965TIP3   OH278385   5.087   4.114  10.488 -0.1363  0.3648 -0.6308
18965TIP3    H178386   5.049   4.188  10.536 -1.5817  0.5369 -1.9926
18965TIP3    H278387   5.168   4.095  10.535 -1.4793  0.5196  1.8793
18966TIP3   OH278388   6.347   4.145  11.915 -0.1745  0.2718  0.5577
18966TIP3    H178389   6.402   4.092  11.972 -1.5434 -0.9822  0.7315
18966TIP3    H278390   6.265   4.154  11.963  0.0419  2.6157  0.5675
18967TIP3   OH278391   6.003   4.346  11.429 -0.1207  0.6837  0.3462
18967TIP3    H178392   5.965   4.260  11.445 -0.5769  0.4360 -1.9321
18967TIP3    H278393   5.935   4.394  11.381  0.8053  1.6952  0.0224
18968TIP3   OH278394   2.925   1.402  16.820 -0.5076 -0.5015 -0.2680
18968TIP3    H178395   2.981   1.334  16.859  1.7443  1.8269  0.7127
18968TIP3    H278396   2.881   1.442  16.895 -1.6874 -0.7156 -0.8313
18969TIP3   OH278397   6.009   3.449  11.150  0.7767 -0.4924 -0.0193
18969TIP3    H178398   5.966   3.378  11.101  0.4259 -1.1805  1.2709
18969TIP3    H278399   5.953   3.525  11.136  1.5143 -0.2725 -1.9812
18970TIP3   OH278400   0.410   1.830  16.883 -0.2207  0.3445  0.3505
18970TIP3    H178401   0.452   1.768  16.823  0.3463  0.8222  0.2553
18970TIP3    H278402   0.459   1.822  16.965  1.4781  2.4656 -0.3989
18971TIP3   OH278403   1.973   0.293   0.097  0.2735  0.5255  0.1557
18971TIP3    H178404   1.918   0.234   0.149  0.2058  1.1913  0.8494
18971TIP3    H278405   1.999   0.240   0.022 -0.7301 -0.0336  0.1798
18972TIP3   OH278406   3.836   4.693   0.703  0.5897  0.1169  0.6365
18972TIP3    H178407   3.806   4.605   0.682 -0.8162  0.3588  1.5615
18972TIP3    H278408   3.907   4.710   0.640 -2.1163  0.0617 -2.5740
18973TIP3   OH278409   3.917   1.191  13.781 -0.9019 -0.5382  0.5760
18973TIP3    H178410   3.871   1.248  13.719 -2.0416 -1.7745  0.2553
18973TIP3    H278411   3.874   1.207  13.864  0.4660  0.9397  1.0137
18974TIP3   OH278412   4.628   0.604   6.393  0.3632  0.1107 -0.5266
18974TIP3    H178413   4.723   0.613   6.383  0.1820  0.9145 -1.6339
18974TIP3    H278414   4.594   0.616   6.304 -0.7686 -0.2528 -0.1429
18975TIP3   OH278415   4.168   3.923  13.966  0.6938  0.4097 -0.8765
18975TIP3    H178416   4.174   4.018  13.962 -1.7815  0.5510 -2.3340
18975TIP3    H278417   4.200   3.893  13.881 -0.0144  0.0511 -1.0249
18976TIP3   OH278418   3.099   2.390   5.775  0.2484 -0.2875  0.2257
18976TIP3    H178419   3.117   2.439   5.695 -0.5905 -0.1699  0.1062
18976TIP3    H278420   3.184   2.382   5.818  0.4817  0.8138 -0.0219
18977TIP3   OH278421   2.459   0.694   3.608  0.6192 -0.4306 -0.2338
18977TIP3    H178422   2.538   0.734   3.570 -0.1064  0.7797 -0.4762
18977TIP3    H278423   2.463   0.603   3.580  0.9888  0.0467 -1.7849
18978TIP3   OH278424   2.147   6.189   0.766  0.0333  0.0765  0.1784
18978TIP3    H178425   2.170   6.280   0.783 -0.0627  0.0313  0.5446
18978TIP3    H278426   2.186   6.141   0.839 -1.6627  0.0501  1.0829
18979TIP3   OH278427   6.126   6.542   5.385 -0.1048 -0.0472  0.6566
18979TIP3    H178428   6.093   6.611   5.327 -1.6545  0.2573  1.8442
18979TIP3    H278429   6.072   6.551   5.464 -0.0024 -2.3283  1.0043
18980TIP3   OH278430   6.812   5.144  17.276  0.0469  0.3011  0.1006
18980TIP3    H178431   6.818   5.057  17.315  0.6590 -0.1424 -0.9652
18980TIP3    H278432   6.723   5.148  17.240 -0.8853  1.0934  2.3791
18981TIP3   OH278433   2.816   2.424  15.981 -0.0905  0.1118 -0.1093
18981TIP3    H178434   2.886   2.406  16.043 -2.1881 -0.3013  2.2109
18981TIP3    H278435   2.847   2.499  15.931  1.9600 -0.0047  0.9487
18982TIP3   OH278436   4.874   4.820  15.114 -0.3526 -0.0510 -0.1595
18982TIP3    H178437   4.893   4.735  15.075 -0.4283 -0.1620  0.0453
18982TIP3    H278438   4.897   4.884  15.047 -3.0030 -0.3394 -1.3967
18983TIP3   OH278439   3.292   6.591   4.089 -0.1575 -0.3680  0.4930
18983TIP3    H178440   3.270   6.662   4.149  0.5325 -0.8749  1.3668
18983TIP3    H278441   3.233   6.602   4.015 -1.5674 -0.2007  1.6281
18984TIP3   OH278442   6.319   3.886   4.566  0.5512 -0.0501 -0.4715
18984TIP3    H178443   6.324   3.907   4.473  1.7781  0.6274 -0.2583
18984TIP3    H278444   6.236   3.925   4.595  0.3932  0.1410 -1.1609
18985TIP3   OH278445   2.820   1.786   0.107  0.2001  0.2004  0.1832
18985TIP3    H178446   2.886   1.803   0.174 -1.4153 -0.5440  2.0044
18985TIP3    H278447   2.822   1.691   0.093 -0.2129  0.2205 -0.0405
18986TIP3   OH278448   0.856   1.377   4.063  0.0822 -0.2756 -0.2781
18986TIP3    H178449   0.801   1.423   4.126  1.1032 -0.8614  1.0497
18986TIP3    H278450   0.866   1.289   4.099  0.9817 -0.5069 -1.0811
18987TIP3   OH278451   0.327   1.357  14.731  0.2353  0.3206  0.0627
18987TIP3    H178452   0.329   1.425  14.665 -0.1030 -0.7633 -1.0845
18987TIP3    H278453   0.285   1.398  14.807 -0.8027  1.1108 -0.9208
18988TIP3   OH278454   4.463   3.678  13.147  0.0658 -0.3233 -0.6564
18988TIP3    H178455   4.383   3.625  13.144 -0.6699  0.7704 -0.5574
18988TIP3    H278456   4.461   3.730  13.066  0.2484  0.3263 -0.2465
18989TIP3   OH278457   3.727   1.166   2.121  0.4464  0.7350 -0.1201
18989TIP3    H178458   3.810   1.119   2.127 -0.1134 -0.2016  0.3275
18989TIP3    H278459   3.689   1.138   2.038 -0.4331 -0.5200  0.6890
18990TIP3   OH278460   6.772   2.035  17.285 -0.2544  0.2948 -0.5096
18990TIP3    H178461   6.738   1.947  17.299 -1.2416  0.6867 -0.4223
18990TIP3    H278462   6.706   2.093  17.323  1.2480  1.0157  1.0769
18991TIP3   OH278463   4.069   5.821   5.234  0.2705  0.0500 -0.3608
18991TIP3    H178464   4.112   5.756   5.289  2.0112 -0.0900 -1.8627
18991TIP3    H278465   4.056   5.778   5.150 -3.0362  0.0145  0.0807
18992TIP3   OH278466   1.047   4.443  16.090  0.1531 -0.4839  0.0655
18992TIP3    H178467   0.956   4.422  16.068  0.0011 -0.0798  0.3178
18992TIP3    H278468   1.092   4.441  16.006 -0.7986  3.0175 -0.6247
18993TIP3   OH278469   4.885   5.016   5.681  0.2612  0.0379 -0.1409
18993TIP3    H178470   4.947   5.027   5.609  1.0971 -0.4502  0.4769
18993TIP3    H278471   4.898   4.925   5.710 -0.2878  0.1278  0.4085
18994TIP3   OH278472   1.248   3.469   3.506 -0.2393 -0.0488  0.4856
18994TIP3    H178473   1.260   3.518   3.587 -2.4438 -0.3097  1.0214
18994TIP3    H278474   1.157   3.438   3.511  0.1487 -1.5287 -1.2839
18995TIP3   OH278475   6.792   6.136  17.093  0.4244 -0.1003  0.2549
18995TIP3    H178476   6.866   6.101  17.142  0.2171  0.9293  1.3227
18995TIP3    H278477   6.738   6.059  17.073  0.6670 -0.5721  1.3830
18996TIP3   OH278478   5.892   0.519   0.647  0.3769 -0.1612 -0.4774
18996TIP3    H178479   5.800   0.539   0.626  0.4097 -0.8680 -1.3416
18996TIP3    H278480   5.899   0.424   0.634  1.1118 -0.1843  0.0633
18997TIP3   OH278481   0.673   2.824  11.081  0.0883  0.2726 -0.0007
18997TIP3    H178482   0.757   2.843  11.122  0.9831 -0.7565 -1.3054
18997TIP3    H278483   0.640   2.910  11.054  0.6458  0.7046  0.6587
18998TIP3   OH278484   5.868   4.340   4.882 -1.0556 -0.0912 -0.0894
18998TIP3    H178485   5.876   4.401   4.956  0.4750 -0.5732  0.1590
18998TIP3    H278486   5.833   4.260   4.921 -1.1632 -0.0290 -0.0567
18999TIP3   OH278487   4.680   0.053  15.794  0.3847 -0.2333 -0.0430
18999TIP3    H178488   4.610   0.101  15.750  2.4775  0.3403 -2.8604
18999TIP3    H278489   4.663  -0.039  15.774  0.3283 -0.1129 -0.5475
19000TIP3   OH278490   0.644   0.859  13.075  0.6293  0.9020 -0.3477
19000TIP3    H178491   0.664   0.822  13.161  0.7260 -1.6026 -1.4074
19000TIP3    H278492   0.729   0.883  13.038  0.7011  0.7029 -0.3100
19001TIP3   OH278493   1.249   2.700  12.165 -0.2831 -0.0848 -0.3930
19001TIP3    H178494   1.327   2.673  12.118 -1.7527 -2.6073 -1.4565
19001TIP3    H278495   1.253   2.796  12.165  2.6706 -0.1679 -0.5823
19002TIP3   OH278496   5.832   1.847  12.556  0.4229  0.5698 -0.3250
19002TIP3    H178497   5.808   1.835  12.464 -1.6394  0.5635  0.1754
19002TIP3    H278498   5.824   1.760  12.594  0.7574  0.6686 -0.0277
19003TIP3   OH278499   4.881   2.831   2.436 -0.2059 -0.4781 -0.5555
19003TIP3    H178500   4.886   2.925   2.417 -0.2289  0.0229  1.8181
19003TIP3    H278501   4.871   2.790   2.350  1.9825  1.5161 -1.8165
19004TIP3   OH278502   3.452   0.812   2.431  0.5026  0.1131  0.5477
19004TIP3    H178503   3.531   0.860   2.406 -0.0919  0.0743 -1.4963
19004TIP3    H278504   3.380   0.863   2.394 -0.2395 -1.3591 -0.0990
19005TIP3   OH278505   0.117   0.498  13.167 -0.1547 -0.2417 -0.1292
19005TIP3    H178506   0.181   0.488  13.096  0.1536 -3.1080  0.4775
19005TIP3    H278507   0.128   0.588  13.196  1.5889  0.1853 -1.9550
19006TIP3   OH278508   2.016   6.032   4.306  0.2318  0.1400  0.0957
19006TIP3    H178509   2.074   6.033   4.382 -0.7229 -0.4821  0.8438
19006TIP3    H278510   2.075   6.027   4.230  1.1699  0.3872  0.8053
19007TIP3   OH278511   4.457   0.535  12.579  1.1692  0.2886 -0.3102
19007TIP3    H178512   4.412   0.608  12.536  0.0131 -1.0049 -1.3564
19007TIP3    H278513   4.509   0.495  12.509  0.8711 -0.6023 -0.0266
19008TIP3   OH278514   4.526   1.934  12.117 -0.1465 -0.4021  0.6318
19008TIP3    H178515   4.557   1.845  12.100  0.1130  0.0365 -1.2229
19008TIP3    H278516   4.577   1.964  12.192  0.4671 -1.4507  0.6341
19009TIP3   OH278517   5.162   6.441  10.875  0.3552 -0.4325  0.6609
19009TIP3    H178518   5.210   6.498  10.815  0.6617  0.0054  1.3190
19009TIP3    H278519   5.155   6.358  10.828  1.9671 -0.5730  0.6526
19010TIP3   OH278520   1.311   6.260  13.096  0.0509 -0.6124  0.0563
19010TIP3    H178521   1.342   6.192  13.155  0.4138  0.4692  1.1380
19010TIP3    H278522   1.218   6.269  13.116  0.5686  1.1495  1.9561
19011TIP3   OH278523   0.631   2.701  14.667  0.3186 -0.5049  0.0889
19011TIP3    H178524   0.561   2.751  14.626  1.5200  1.2456  0.1103
19011TIP3    H278525   0.614   2.708  14.761 -0.0092 -0.8930  0.0598
19012TIP3   OH278526   6.192   5.991  13.661  0.0965  0.4906  0.2940
19012TIP3    H178527   6.122   5.927  13.654 -0.6176  1.3675 -0.7738
19012TIP3    H278528   6.259   5.960  13.600 -0.2973  0.8119 -0.3075
19013TIP3   OH278529   4.003   4.822   0.265  0.4722 -0.4679  0.1520
19013TIP3    H178530   4.056   4.898   0.290 -0.3085  0.5835 -1.3378
19013TIP3    H278531   4.059   4.773   0.204 -0.2907  0.7184 -1.5352
19014TIP3   OH278532   2.231   0.794  13.907 -0.1000  0.0354 -0.0153
19014TIP3    H178533   2.255   0.725  13.845 -0.7925 -0.5204  0.3286
19014TIP3    H278534   2.310   0.807  13.960  1.3356  2.2253 -2.5446
19015TIP3   OH278535   0.902   6.266  12.500 -0.9803 -0.5467 -0.2861
19015TIP3    H178536   0.945   6.195  12.452  0.1635  0.8346 -1.3478
19015TIP3    H278537   0.855   6.315  12.433 -0.2496  0.7640  0.1385
19016TIP3   OH278538   2.949   6.240   5.499 -0.0206  0.0491 -0.2565
19016TIP3    H178539   3.026   6.200   5.459  0.6723  1.4442 -0.3553
19016TIP3    H278540   2.901   6.278   5.426  0.0089  0.5381 -0.0218
19017TIP3   OH278541   3.539   6.757   5.223 -0.1105 -0.3671 -0.0408
19017TIP3    H178542   3.609   6.699   5.253 -0.1230 -0.9722 -1.1523
19017TIP3    H278543   3.460   6.724   5.267 -0.1117 -1.1856 -0.6331
19018TIP3   OH278544   4.420   6.464  12.719 -0.1656  0.6002 -0.0273
19018TIP3    H178545   4.358   6.453  12.648 -0.7741  1.2103  0.3909
19018TIP3    H278546   4.496   6.411  12.695  0.5431  2.5310 -2.1923
19019TIP3   OH278547   0.567   1.897  11.377 -0.0144  0.1078 -0.1754
19019TIP3    H178548   0.564   1.959  11.305  2.7408 -0.2117 -0.6442
19019TIP3    H278549   0.601   1.948  11.451  0.2439 -0.3295  0.0109
19020TIP3   OH278550   0.771   0.259  14.313 -0.1775  0.4418  0.3511
19020TIP3    H178551   0.697   0.274  14.254  0.5659 -0.8990 -0.9511
19020TIP3    H278552   0.731   0.254  14.400 -1.5936 -0.1269 -0.3171
19021TIP3   OH278553   4.071   1.913  15.588 -0.6762  0.0567 -0.4772
19021TIP3    H178554   4.089   1.819  15.592  0.2625  0.2394 -0.2484
19021TIP3    H278555   4.006   1.922  15.519 -1.8868 -0.9346  0.5051
19022TIP3   OH278556   0.484   5.789  11.982  0.1217  0.3445  0.3809
19022TIP3    H178557   0.442   5.837  11.910  0.0492 -0.4459 -0.1070
19022TIP3    H278558   0.507   5.857  12.046  0.1473  1.0485 -0.3698
19023TIP3   OH278559   5.198   2.676  15.154 -0.0066  0.3338  0.0967
19023TIP3    H178560   5.139   2.636  15.090  1.2109 -0.7920 -0.3473
19023TIP3    H278561   5.191   2.619  15.231  0.1370  0.4707  0.2103
19024TIP3   OH278562   4.348   0.146   1.939 -0.5247  0.4459 -0.7108
19024TIP3    H178563   4.306   0.227   1.971  0.6356  0.6256  0.3704
19024TIP3    H278564   4.441   0.167   1.936 -0.4326 -0.1199 -2.6502
19025TIP3   OH278565   5.853   1.083   2.785  0.2701 -0.0382 -0.0828
19025TIP3    H178566   5.809   1.014   2.736  1.5871 -1.0171  0.0705
19025TIP3    H278567   5.946   1.069   2.767  0.6036  1.1996  0.6058
19026TIP3   OH278568   6.531   0.600   2.361 -0.0279  0.6107 -0.0912
19026TIP3    H178569   6.457   0.630   2.307 -0.0811 -0.1466 -0.4402
19026TIP3    H278570   6.540   0.507   2.340 -0.3066  0.2142  1.5055
19027TIP3   OH278571   6.017   1.859  11.724  1.2718 -0.0584  0.3083
19027TIP3    H178572   6.037   1.779  11.771 -0.6596 -2.9311 -3.4835
19027TIP3    H278573   5.928   1.882  11.751  1.2899 -0.0160  0.3324
19028TIP3   OH278574   2.839   0.084  13.175 -0.0945  0.2002  0.3575
19028TIP3    H178575   2.863   0.132  13.096  1.5171 -1.7504 -0.3676
19028TIP3    H278576   2.894   0.121  13.243  0.4067  0.0919  0.0143
19029TIP3   OH278577   5.621   1.357  15.990 -0.3037 -0.1486  0.0481
19029TIP3    H178578   5.678   1.304  16.046 -0.7274 -1.0148 -0.3395
19029TIP3    H278579   5.605   1.302  15.913  0.1638  0.9781 -0.8628
19030TIP3   OH278580   0.765   3.403  15.193  0.1623  0.6493  0.6470
19030TIP3    H178581   0.765   3.307  15.188 -2.3177  0.6426  0.4054
19030TIP3    H278582   0.787   3.431  15.104 -3.4216  0.2696 -0.4472
19031TIP3   OH278583   5.641   5.463  14.458  0.0244 -0.2429  0.4009
19031TIP3    H178584   5.617   5.535  14.399 -3.2690 -1.0642  0.6658
19031TIP3    H278585   5.559   5.419  14.476  1.5043 -2.0061  3.0329
19032TIP3   OH278586   2.287   4.704  15.115  0.0934 -0.3518 -0.2001
19032TIP3    H178587   2.327   4.632  15.163  1.1547  0.0810 -0.4258
19032TIP3    H278588   2.245   4.662  15.039  1.6425 -0.6192 -0.9206
19033TIP3   OH278589   0.388   5.662   5.753  0.0400 -0.6664  0.0643
19033TIP3    H178590   0.347   5.577   5.737  0.0049 -0.4741 -0.9042
19033TIP3    H278591   0.374   5.711   5.672 -1.7662  1.0050  1.3394
19034TIP3   OH278592   6.169   3.132   1.809 -0.6823  0.4069 -0.4598
19034TIP3    H178593   6.170   3.051   1.757  1.9577  0.7348 -0.9982
19034TIP3    H278594   6.183   3.102   1.899  1.9715  0.3282 -0.8555
19035TIP3   OH278595   4.245   2.470  11.994  0.6465 -0.8651  0.3777
19035TIP3    H178596   4.306   2.431  11.930 -1.1155 -0.8962 -1.3087
19035TIP3    H278597   4.179   2.402  12.009 -0.1258 -0.0657  0.6336
19036TIP3   OH278598   6.360   1.536   1.280  0.1517 -0.1459 -0.2535
19036TIP3    H178599   6.349   1.484   1.200  0.3859  0.5539 -0.7451
19036TIP3    H278600   6.454   1.542   1.293  0.0886 -2.3107  1.4427
19037TIP3   OH278601   0.159   4.724   2.727 -0.3573 -0.0428 -0.2488
19037TIP3    H178602   0.104   4.678   2.791  1.1176  0.5407  1.4786
19037TIP3    H278603   0.150   4.816   2.750  0.3357  0.1538 -0.7528
19038TIP3   OH278604   5.276   2.121   1.264 -0.3272 -0.0237 -0.2001
19038TIP3    H178605   5.294   2.204   1.219  0.4419  0.0345  0.2081
19038TIP3    H278606   5.357   2.071   1.256  0.4243  0.6550  2.5646
19039TIP3   OH278607   2.700   0.800   1.526 -0.1894  0.2412 -0.0122
19039TIP3    H178608   2.723   0.805   1.619  0.5003  2.1213 -0.2705
19039TIP3    H278609   2.710   0.707   1.504 -1.5563 -0.4217  2.0879
19040TIP3   OH278610   1.056   0.927   1.210 -0.0479 -0.1280  0.9256
19040TIP3    H178611   1.103   0.846   1.230  0.8168  0.1671  0.1056
19040TIP3    H278612   0.965   0.907   1.232 -0.1937 -2.0096 -1.2387
19041TIP3   OH278613   2.048   2.905  11.473  0.2529  0.4246 -0.6283
19041TIP3    H178614   2.122   2.910  11.412 -0.8378  1.7214 -1.8841
19041TIP3    H278615   2.043   2.993  11.511 -0.5110  0.2776 -0.3845
19042TIP3   OH278616   6.107   5.500   1.878  0.7161 -0.0668  0.0864
19042TIP3    H178617   6.114   5.418   1.927  0.1571  0.2485  0.6980
19042TIP3    H278618   6.073   5.474   1.792 -0.7580 -0.3271  0.7298
19043TIP3   OH278619   0.295   0.856  11.875  0.0809 -0.4396  0.0731
19043TIP3    H178620   0.340   0.821  11.799  1.5996  0.4792  0.5415
19043TIP3    H278621   0.211   0.810  11.876  0.0022 -0.4003 -2.1887
19044TIP3   OH278622   3.544   1.346  13.278 -0.6118 -0.0327  0.0228
19044TIP3    H178623   3.631   1.374  13.307 -0.7611 -1.0119  1.4618
19044TIP3    H278624   3.560   1.268  13.226 -0.5465  0.3650 -0.5552
19045TIP3   OH278625   3.392   0.897  16.269  0.0430 -1.0624  0.0816
19045TIP3    H178626   3.450   0.871  16.197 -0.4150  1.2941 -1.1897
19045TIP3    H278627   3.446   0.889  16.347  1.1639 -1.7744 -0.7396
19046TIP3   OH278628   1.975   0.964  10.550  0.4332 -0.1336 -0.0901
19046TIP3    H178629   1.958   1.046  10.595  0.6767 -0.6101  0.8874
19046TIP3    H278630   1.967   0.897  10.618  2.2134 -0.7312 -0.4298
19047TIP3   OH278631   2.210   3.337  17.282  0.5529 -0.4702  0.7169
19047TIP3    H178632   2.245   3.425  17.267  0.8790 -0.8016 -0.5202
19047TIP3    H278633   2.259   3.304  17.357  1.5375 -0.1986  0.1970
19048TIP3   OH278634   2.375   4.434  10.563  0.0369 -0.2315 -0.4151
19048TIP3    H178635   2.465   4.442  10.532  0.1509 -1.1106 -0.3046
19048TIP3    H278636   2.335   4.519  10.541  0.9524  0.2492 -0.2379
19049TIP3   OH278637   0.070   1.809  12.800  0.3485 -0.7211 -0.2009
19049TIP3    H178638   0.162   1.833  12.814  0.3830 -0.8343 -0.2319
19049TIP3    H278639   0.032   1.806  12.887 -0.2375  1.7684 -0.3350
19050TIP3   OH278640   2.210   2.127  15.363  0.4241  0.1142 -0.3927
19050TIP3    H178641   2.292   2.087  15.334 -0.6875 -1.0900 -1.9350
19050TIP3    H278642   2.160   2.141  15.283 -0.1978  2.4711  0.3460
19051TIP3   OH278643   0.928   4.384   1.012  0.3569 -0.0595 -0.3881
19051TIP3    H178644   0.866   4.452   0.983  0.1383  0.5148  1.3743
19051TIP3    H278645   1.011   4.431   1.025  1.1575 -0.8106 -2.6462
19052TIP3   OH278646   4.441   2.786  14.449  0.0658  0.0061 -0.0080
19052TIP3    H178647   4.433   2.691  14.439 -0.7931 -0.0043  0.7721
19052TIP3    H278648   4.388   2.808  14.525  2.1900  0.8196  1.3005
19053TIP3   OH278649   5.110   5.635  12.046 -0.4454 -0.2047 -0.0434
19053TIP3    H178650   5.075   5.550  12.074  0.4247 -0.0934  1.4481
19053TIP3    H278651   5.073   5.697  12.109  0.3337  0.2783 -0.0628
19054TIP3   OH278652   6.382   0.028   3.667 -0.5136  0.2398  0.3031
19054TIP3    H178653   6.396  -0.059   3.705  0.0376  0.7238  1.2180
19054TIP3    H278654   6.461   0.077   3.691 -0.6694  0.8937 -0.5025
19055TIP3   OH278655   4.999   5.891   0.897 -0.4518 -0.8427 -0.2538
19055TIP3    H178656   5.070   5.934   0.943 -1.1085  1.2006 -1.0850
19055TIP3    H278657   4.981   5.812   0.948  1.1873 -0.4386  0.9659
19056TIP3   OH278658   3.058   3.089   3.775 -0.1035 -0.0622  0.2565
19056TIP3    H178659   3.062   3.006   3.822  0.2520 -0.7613 -0.9885
19056TIP3    H278660   3.132   3.140   3.809  0.4653 -0.7613  0.0606
19057TIP3   OH278661   5.102   6.105   6.021 -0.1049  0.2479  0.2006
19057TIP3    H178662   5.115   6.069   5.934 -1.2959 -0.6345  0.3838
19057TIP3    H278663   5.186   6.148   6.042  0.4228 -0.1513 -1.0698
19058TIP3   OH278664   2.899   2.958  14.425 -0.1042 -0.1105 -0.8089
19058TIP3    H178665   2.992   2.979  14.429  0.4718 -2.6188 -0.3500
19058TIP3    H278666   2.895   2.870  14.387 -2.1489 -0.7844  0.8344
19059TIP3   OH278667   2.620   0.536  15.429  0.5562  0.2864  0.1820
19059TIP3    H178668   2.556   0.466  15.430  0.7217  0.1441  1.2857
19059TIP3    H278669   2.700   0.495  15.395  0.6113 -0.0238  0.6833
19060TIP3   OH278670   4.212   4.800  12.391  0.0562  0.0852 -0.2253
19060TIP3    H178671   4.272   4.853  12.444 -1.1673  1.6708 -0.3667
19060TIP3    H278672   4.166   4.745  12.455  0.2202  0.3354  0.1115
19061TIP3   OH278673   0.372   3.379  15.714 -0.2558  0.4117  0.2928
19061TIP3    H178674   0.462   3.351  15.699 -0.4550  0.7612 -1.6500
19061TIP3    H278675   0.379   3.455  15.771  0.9206  2.5725 -2.6509
19062TIP3   OH278676   3.724   2.198  15.627  0.1895 -0.4380  0.0484
19062TIP3    H178677   3.705   2.165  15.539  0.9599 -0.8015  0.0136
19062TIP3    H278678   3.818   2.218  15.625 -0.0806  0.9299  0.3390
19063TIP3   OH278679   0.971   2.034   2.500 -0.3464  0.0379  0.0412
19063TIP3    H178680   1.019   1.997   2.574  0.1512 -0.1787 -0.3899
19063TIP3    H278681   0.991   1.976   2.427 -1.8144 -0.4560  0.0154
19064TIP3   OH278682   4.682   3.467   3.428  0.8433 -0.7958  0.3235
19064TIP3    H178683   4.691   3.478   3.334  0.4675 -0.8028  0.2861
19064TIP3    H278684   4.657   3.376   3.440 -1.0699 -0.2887  0.2925
19065TIP3   OH278685   5.878   5.380   0.398 -0.1242 -0.3967  0.6401
19065TIP3    H178686   5.911   5.424   0.319 -0.5790 -2.3908 -0.7108
19065TIP3    H278687   5.895   5.442   0.469  0.9751  1.1406 -0.9143
19066TIP3   OH278688   4.264   3.996  13.246  0.2646 -0.5472  0.3530
19066TIP3    H178689   4.172   4.024  13.241  0.7146  1.1323  1.2352
19066TIP3    H278690   4.275   3.966  13.336  0.2044 -2.2025 -0.1673
19067TIP3   OH278691   3.466   5.236   2.623 -0.2938 -0.1420  0.0000
19067TIP3    H178692   3.543   5.277   2.584 -1.2939  1.6346 -0.1557
19067TIP3    H278693   3.407   5.221   2.550 -0.2486 -1.2050  0.1670
19068TIP3   OH278694   1.110   0.240   1.117  0.1513  0.2480 -0.2033
19068TIP3    H178695   1.121   0.179   1.044 -2.1155 -0.9794  0.4403
19068TIP3    H278696   1.084   0.185   1.190 -0.9099  1.8617  0.6615
19069TIP3   OH278697   0.653   4.683   3.659 -0.3224 -0.1130  0.7002
19069TIP3    H178698   0.577   4.640   3.698  0.4688 -1.0637  1.2340
19069TIP3    H278699   0.727   4.629   3.687  0.4933  0.5238 -0.2082
19070TIP3   OH278700   0.029   4.276   2.199  0.3234 -0.2968 -0.4128
19070TIP3    H178701   0.077   4.231   2.130  1.7330 -0.3359  0.5665
19070TIP3    H278702   0.072   4.361   2.207 -0.7988  0.2908 -0.6187
19071TIP3   OH278703   2.159   0.237   2.845  0.1206  0.9681 -0.3729
19071TIP3    H178704   2.178   0.159   2.793 -2.1144  0.8512 -1.0611
19071TIP3    H278705   2.243   0.260   2.884  1.1451 -0.8766 -1.3891
19072TIP3   OH278706   3.347   0.006   6.222  0.2676  0.4780 -0.1333
19072TIP3    H178707   3.290  -0.071   6.216  0.1552  0.5708 -0.2477
19072TIP3    H278708   3.288   0.080   6.212  0.2236  0.6084  0.9611
19073TIP3   OH278709   0.818   6.212  16.581 -0.0230 -0.0477  0.0687
19073TIP3    H178710   0.898   6.250  16.619  0.6154 -1.1547 -0.1532
19073TIP3    H278711   0.849   6.140  16.527 -0.8962  1.4706 -2.5744
19074TIP3   OH278712   2.131   4.862   5.498 -0.4310  0.4081 -0.5119
19074TIP3    H178713   2.216   4.898   5.472 -0.0589 -0.4564 -0.5099
19074TIP3    H278714   2.067   4.920   5.458  0.1574  0.3729 -1.5040
19075TIP3   OH278715   0.576   0.825  10.906  0.1276 -0.2605  0.4835
19075TIP3    H178716   0.589   0.910  10.862  2.7669 -2.0394 -2.4326
19075TIP3    H278717   0.660   0.809  10.949 -0.0545 -1.7681  0.2791
19076TIP3   OH278718   5.128   3.429  15.161 -0.5585  0.0089 -0.1084
19076TIP3    H178719   5.114   3.476  15.244  1.7992  1.0916 -0.2653
19076TIP3    H278720   5.068   3.471  15.099 -0.5842  0.8329  0.4692
19077TIP3   OH278721   2.935   2.399  15.278 -0.0506  0.1120 -0.1825
19077TIP3    H178722   2.971   2.411  15.366 -0.5123  1.1280 -0.1228
19077TIP3    H278723   2.984   2.460  15.223  0.4410 -0.7359 -0.6871
19078TIP3   OH278724   1.696   5.589   5.162 -0.4494 -0.4204 -0.9737
19078TIP3    H178725   1.787   5.585   5.133  0.4963 -0.1267  1.7651
19078TIP3    H278726   1.666   5.677   5.139  0.4863  0.0420 -0.4261
19079TIP3   OH278727   3.397   6.289   4.692 -0.0500 -0.2406  0.2503
19079TIP3    H178728   3.419   6.365   4.744 -0.8501 -1.1631  1.9690
19079TIP3    H278729   3.343   6.324   4.620  1.0586  1.0227  0.0080
19080TIP3   OH278730   0.965   3.690  16.749  0.2844  0.5454 -0.3919
19080TIP3    H178731   1.049   3.711  16.707  0.6236  0.2329  0.1242
19080TIP3    H278732   0.910   3.660  16.676 -0.1012  2.8389 -1.0693
19081TIP3   OH278733   5.527   5.121  15.693  0.6791  0.2298  0.2012
19081TIP3    H178734   5.452   5.130  15.635 -0.0840 -1.4177  0.9093
19081TIP3    H278735   5.577   5.048  15.657  1.9794  1.3246 -0.2768
19082TIP3   OH278736   2.847   2.047   5.851  0.4916 -0.3007 -0.8090
19082TIP3    H178737   2.799   1.968   5.823 -0.1721 -0.0649 -0.3423
19082TIP3    H278738   2.936   2.016   5.865  0.1068 -1.0960 -0.0772
19083TIP3   OH278739   6.188   5.665   0.975 -0.4847  0.1008  0.2771
19083TIP3    H178740   6.223   5.665   1.064 -1.5840 -3.0992  0.7520
19083TIP3    H278741   6.222   5.585   0.936 -3.2980 -0.6217 -0.8229
19084TIP3   OH278742   4.906   3.644   0.576 -0.0549 -0.1496  0.2949
19084TIP3    H178743   4.884   3.688   0.494 -1.1899 -0.5425  0.3746
19084TIP3    H278744   4.886   3.709   0.644  1.3168  0.3406  0.2547
19085TIP3   OH278745   0.585   0.292  12.024 -0.1672 -0.3139  0.3001
19085TIP3    H178746   0.646   0.259  11.958  0.0070  0.2733  0.1672
19085TIP3    H278747   0.555   0.376  11.989  0.3240  0.2419  1.2174
19086TIP3   OH278748   3.162   6.803   0.816 -0.9860  0.3406  0.4208
19086TIP3    H178749   3.240   6.854   0.840 -0.4334  0.0133 -0.6468
19086TIP3    H278750   3.185   6.763   0.733 -1.1748 -2.1987  1.5559
19087TIP3   OH278751   2.717   4.270   2.106 -0.3482 -0.1680  0.2565
19087TIP3    H178752   2.811   4.273   2.124 -0.3638  3.2038  0.0922
19087TIP3    H278753   2.705   4.193   2.051  2.7013  0.6778 -1.6797
19088TIP3   OH278754   4.794   0.088  14.602 -0.0661 -0.1817 -0.3896
19088TIP3    H178755   4.866   0.105  14.541  1.6741 -0.0695  1.6698
19088TIP3    H278756   4.810  -0.000  14.634  0.5858  0.7624  1.9662
19089TIP3   OH278757   1.637   6.444   5.673  0.2534  0.3175 -0.0292
19089TIP3    H178758   1.700   6.391   5.721  1.1906 -0.8261 -2.4400
19089TIP3    H278759   1.642   6.531   5.713  1.2532 -0.5130  1.6703
19090TIP3   OH278760   2.216   4.759   3.757  0.1846 -0.2337 -0.3071
19090TIP3    H178761   2.217   4.825   3.688  0.5238  0.2695  0.1744
19090TIP3    H278762   2.125   4.732   3.764  0.1029 -0.0649 -0.7417
19091TIP3   OH278763   3.962   0.550  12.998 -0.0291 -0.5381 -0.0031
19091TIP3    H178764   3.935   0.642  12.999 -1.8495 -1.0491 -0.4685
19091TIP3    H278765   4.056   0.553  12.981 -0.0894  1.2312 -0.1198
19092TIP3   OH278766   1.489   4.679   3.657 -0.3760 -0.0185 -0.6046
19092TIP3    H178767   1.539   4.646   3.582  0.0197 -0.7737 -0.0064
19092TIP3    H278768   1.469   4.770   3.633  1.1020  0.2328 -0.9499
19093TIP3   OH278769   1.065   4.417   1.903 -0.3600  0.1598 -0.8603
19093TIP3    H178770   1.117   4.367   1.965 -1.7688  0.4649  0.5997
19093TIP3    H278771   1.127   4.478   1.863  0.6527 -0.3760 -0.1113
19094TIP3   OH278772   1.231   6.525  15.759  0.3152 -0.3458  0.4694
19094TIP3    H178773   1.311   6.555  15.716 -0.0675  0.3735  0.2552
19094TIP3    H278774   1.211   6.594  15.822  0.4680 -1.0503  1.3044
19095TIP3   OH278775   3.030   3.232   0.005  0.1911 -0.3436  0.2096
19095TIP3    H178776   3.000   3.270  -0.078  0.6846 -0.9857 -0.2711
19095TIP3    H278777   2.987   3.284   0.072 -0.2678  0.1460 -0.4540
19096TIP3   OH278778   6.132   1.385   4.009 -0.6806 -0.0383 -0.6643
19096TIP3    H178779   6.084   1.303   4.002 -0.5367 -0.1070 -0.8370
19096TIP3    H278780   6.066   1.448   4.039 -0.5371 -0.4468  0.5219
19097TIP3   OH278781   0.862   6.690   4.303  0.3764  0.3508  0.0076
19097TIP3    H178782   0.946   6.646   4.294 -1.2046 -2.6749 -0.7242
19097TIP3    H278783   0.848   6.698   4.397  0.1586 -1.8126  0.1675
19098TIP3   OH278784   2.545   0.408   5.819 -0.5192  0.3499 -0.4273
19098TIP3    H178785   2.541   0.501   5.798 -0.3819  0.1341 -1.4122
19098TIP3    H278786   2.626   0.398   5.869 -0.1799  0.6417 -0.9196
19099TIP3   OH278787   2.642   3.920  13.378  0.8990 -0.0821  0.7578
19099TIP3    H178788   2.684   3.892  13.297  1.0352  1.7452  0.1842
19099TIP3    H278789   2.581   3.989  13.351  1.0789  0.6718  2.2212
19100TIP3   OH278790   1.182   2.138   3.225  0.5911 -0.2226  0.2582
19100TIP3    H178791   1.227   2.181   3.153 -0.5117  1.1897  0.3761
19100TIP3    H278792   1.215   2.049   3.225  3.3915  0.7807  0.3762
19101TIP3   OH278793   1.547   0.187  16.164 -0.0688 -0.0538 -0.0284
19101TIP3    H178794   1.518   0.213  16.252  0.0857 -0.3611  0.1123
19101TIP3    H278795   1.532   0.092  16.161  1.6929 -0.3499  0.3354
19102TIP3   OH278796   6.505   2.170  12.791 -0.0145  0.4455  0.3136
19102TIP3    H178797   6.565   2.123  12.849 -0.0360  0.7719  0.6024
19102TIP3    H278798   6.471   2.103  12.732  1.2120  0.3824 -0.3491
19103TIP3   OH278799   0.845   3.148  16.357  0.0733  0.2041 -0.0947
19103TIP3    H178800   0.813   3.229  16.396 -1.1757 -0.1202 -0.4007
19103TIP3    H278801   0.827   3.080  16.422 -0.6693 -0.1139 -0.6211
19104TIP3   OH278802   3.990   1.541   1.406  0.0280 -0.4857  0.2824
19104TIP3    H178803   3.981   1.627   1.365 -3.7558 -0.5241  0.8795
19104TIP3    H278804   3.981   1.478   1.334  2.9096 -0.4532 -0.1722
19105TIP3   OH278805   0.150   0.561   3.967 -0.6122 -0.0709  0.1624
19105TIP3    H178806   0.236   0.561   3.926 -0.4705  0.8045  0.4592
19105TIP3    H278807   0.140   0.648   4.003 -1.3333 -0.3902  0.7533
19106TIP3   OH278808   0.895   3.944   0.608 -0.9266  0.5855 -0.0478
19106TIP3    H178809   0.953   4.016   0.582 -0.4344  0.5528  0.9458
19106TIP3    H278810   0.910   3.934   0.702  0.1239 -1.7903 -0.4243
19107TIP3   OH278811   3.554   2.473  12.951  0.2516  0.2343 -0.2879
19107TIP3    H178812   3.578   2.554  12.996 -0.0084  0.5219 -0.6620
19107TIP3    H278813   3.594   2.404  13.003 -2.5073  0.3371  2.0946
19108TIP3   OH278814   0.984   3.395  12.160  0.0102 -0.0214 -0.2575
19108TIP3    H178815   0.951   3.329  12.099 -0.5749 -0.9794  1.0420
19108TIP3    H278816   1.014   3.467  12.105 -1.8692 -0.2306 -1.6008
19109TIP3   OH278817   4.091   0.975   6.384  0.0517 -0.2570 -0.0877
19109TIP3    H178818   4.183   0.959   6.361  0.3196  1.0773  0.0329
19109TIP3    H278819   4.045   0.973   6.301  0.0751 -1.5902 -0.0875
19110TIP3   OH278820   6.238   2.319   0.266 -0.1848 -0.5718 -0.2067
19110TIP3    H178821   6.172   2.372   0.220  2.8624  2.9638 -0.7894
19110TIP3    H278822   6.255   2.246   0.208 -2.0509 -0.3897 -1.0278
19111TIP3   OH278823   3.132   1.183   0.928  0.3664 -0.1086 -0.5062
19111TIP3    H178824   3.153   1.094   0.955 -2.8151 -1.4376 -2.2078
19111TIP3    H278825   3.049   1.202   0.971 -0.2872  1.0628 -2.2485
19112TIP3   OH278826   2.246   5.050  14.475 -0.4124 -0.0981  0.1777
19112TIP3    H178827   2.335   5.062  14.507 -0.5478  1.0802  0.1116
19112TIP3    H278828   2.253   4.979  14.411  0.2737 -0.7870  1.0037
19113TIP3   OH278829   1.676   2.877  10.701  0.3432 -0.1239  0.0572
19113TIP3    H178830   1.612   2.811  10.728  0.2569 -0.5870 -1.2135
19113TIP3    H278831   1.703   2.849  10.613  1.0120  1.0133 -0.1106
19114TIP3   OH278832   4.888   1.473  14.925 -0.0307 -0.6514 -0.0955
19114TIP3    H178833   4.909   1.383  14.902  0.8533  0.3621 -3.4328
19114TIP3    H278834   4.832   1.504  14.854 -0.9601  1.2350  1.3942
19115TIP3   OH278835   2.113   5.576  11.460 -0.5465 -0.3131  0.1848
19115TIP3    H178836   2.055   5.571  11.384 -0.2061 -0.2242 -0.0813
19115TIP3    H278837   2.192   5.528  11.434  0.9821  2.5822 -0.7894
19116TIP3   OH278838   1.684   2.091  10.933 -0.1220 -0.5706  0.4216
19116TIP3    H178839   1.726   2.169  10.896 -0.7691 -0.2707  0.3029
19116TIP3    H278840   1.751   2.051  10.988  0.3975 -0.2418  0.0287
19117TIP3   OH278841   6.790   1.787  11.149  0.1166 -0.5645  0.0836
19117TIP3    H178842   6.850   1.860  11.134 -2.4334  1.6703  0.2177
19117TIP3    H278843   6.812   1.723  11.081  0.3807  1.6860 -2.0182
19118TIP3   OH278844   4.024   6.308   2.112  0.1946 -0.6567  0.2795
19118TIP3    H178845   4.059   6.321   2.200 -0.3754  0.5306  0.3515
19118TIP3    H278846   3.940   6.264   2.126  1.3955 -3.0930  0.1341
19119TIP3   OH278847   0.202   4.023  13.438  0.8120  0.3414  0.0653
19119TIP3    H178848   0.273   3.971  13.400 -0.0596  0.8109 -2.2640
19119TIP3    H278849   0.123   3.991  13.396  0.0484  2.3009 -0.0434
19120TIP3   OH278850   0.353   0.090   2.118 -0.1857 -0.1096 -0.6149
19120TIP3    H178851   0.439   0.049   2.125  0.9428  2.2615 -0.2006
19120TIP3    H278852   0.358   0.143   2.038 -0.9351  0.8074 -0.0600
19121TIP3   OH278853   5.577   6.627   2.303 -0.0343 -0.2656 -0.0553
19121TIP3    H178854   5.627   6.624   2.384 -1.6594  1.7815  1.0759
19121TIP3    H278855   5.485   6.624   2.331 -0.6351  1.4567 -1.7115
19122TIP3   OH278856   2.351   1.960  13.040 -1.0768 -0.4202  0.2973
19122TIP3    H178857   2.260   1.971  13.066 -0.6978 -1.9041  2.3985
19122TIP3    H278858   2.392   1.917  13.115  1.0066 -1.1892 -1.2378
19123TIP3   OH278859   4.627   5.716  13.653 -0.1964  0.4503  0.0337
19123TIP3    H178860   4.557   5.679  13.601 -0.0755  0.9559 -0.4975
19123TIP3    H278861   4.612   5.811  13.650  0.2523  0.5320  0.2724
19124TIP3   OH278862   5.315   0.440  16.724 -0.3661  0.1366  0.3542
19124TIP3    H178863   5.385   0.387  16.760  0.6078  1.2222  0.1006
19124TIP3    H278864   5.243   0.429  16.786  0.0999 -0.8084  0.7402
19125TIP3   OH278865   4.362   1.104  12.012  0.3027  0.4661 -0.1781
19125TIP3    H178866   4.312   1.183  11.991  0.6226  0.4769 -0.9067
19125TIP3    H278867   4.452   1.125  11.987  0.3355 -0.2354 -0.6635
19126TIP3   OH278868   0.455   2.159   0.240 -0.5209  0.3902  0.3384
19126TIP3    H178869   0.518   2.183   0.308 -0.4968  0.3391  0.3340
19126TIP3    H278870   0.373   2.145   0.288  0.0020 -1.7849  0.6383
19127TIP3   OH278871   4.267   2.833  10.621 -0.1752  0.1548 -0.1771
19127TIP3    H178872   4.225   2.823  10.536  1.1500  0.2085 -0.8556
19127TIP3    H278873   4.264   2.745  10.660  0.2743 -0.1378 -0.7925
19128TIP3   OH278874   2.205   4.864  13.805 -0.2372 -0.0613 -0.1488
19128TIP3    H178875   2.187   4.813  13.726 -0.4514 -0.4725  0.1686
19128TIP3    H278876   2.177   4.808  13.877  2.1425 -0.6588  0.3556
19129TIP3   OH278877   2.620   6.711  12.788 -0.2489  0.4039  0.8742
19129TIP3    H178878   2.648   6.689  12.877  1.8246 -1.2441 -0.1438
19129TIP3    H278879   2.655   6.799  12.772  2.4100 -0.6958  0.4696
19130TIP3   OH278880   5.545   4.623  17.081  0.2359 -0.0475  0.0183
19130TIP3    H178881   5.542   4.599  16.988  0.5668 -2.6939  0.6609
19130TIP3    H278882   5.637   4.610  17.106 -0.2863 -1.5090  1.2390
19131TIP3   OH278883   1.208   6.495  15.295 -0.5045  0.4687  0.2930
19131TIP3    H178884   1.183   6.587  15.302 -0.2178  0.6432 -0.8916
19131TIP3    H278885   1.145   6.458  15.232 -1.3821 -0.4247  1.6745
19132TIP3   OH278886   6.157   6.170   5.398  0.0466  0.0296  0.2257
19132TIP3    H178887   6.220   6.209   5.459  0.0504  0.6288 -0.1633
19132TIP3    H278888   6.076   6.218   5.414 -0.3016 -0.7095  0.6895
19133TIP3   OH278889   5.366   0.693  16.810 -0.0086  0.2253 -0.7853
19133TIP3    H178890   5.457   0.708  16.784  0.7636 -0.5612  1.3601
19133TIP3    H278891   5.344   0.608  16.772 -0.0197  0.6225 -1.6874
19134TIP3   OH278892   3.206   6.424  15.957 -0.1580 -0.2944  0.4773
19134TIP3    H178893   3.230   6.470  15.877  0.0470 -0.9169  0.1794
19134TIP3    H278894   3.148   6.485  16.003  0.9513  0.6977  0.5868
19135TIP3   OH278895   5.018   1.650  11.209 -0.0913 -0.1139 -0.1649
19135TIP3    H178896   4.939   1.704  11.200  1.6778  2.8025  1.0456
19135TIP3    H278897   5.037   1.621  11.119 -2.9311 -1.5030 -0.3575
19136TIP3   OH278898   1.740   3.092   4.736  0.0531 -0.1553 -0.0111
19136TIP3    H178899   1.675   3.132   4.679 -0.2693  0.4707  0.7745
19136TIP3    H278900   1.710   3.002   4.747 -1.6995  0.5955  1.7732
19137TIP3   OH278901   5.356   6.367  12.821  0.0145 -0.2784  0.0053
19137TIP3    H178902   5.356   6.381  12.726 -3.5640  0.1517  0.0084
19137TIP3    H278903   5.368   6.273  12.831 -0.3731 -0.4314 -0.9072
19138TIP3   OH278904   5.858   0.283   0.466  0.1605 -0.1841 -0.0956
19138TIP3    H178905   5.916   0.354   0.439 -0.2149  0.4679  0.7728
19138TIP3    H278906   5.804   0.266   0.389  1.1335 -0.4249 -0.7334
19139TIP3   OH278907   6.062   0.590  11.164  0.7846  0.3412  0.2277
19139TIP3    H178908   6.011   0.515  11.133  0.9815  0.7485 -1.1247
19139TIP3    H278909   5.997   0.659  11.176  0.9318  0.6714 -0.8771
19140TIP3   OH278910   6.586   5.847   2.414  0.3934 -0.1788 -0.3302
19140TIP3    H178911   6.499   5.844   2.374 -1.0934  1.2473  2.6452
19140TIP3    H278912   6.611   5.756   2.425 -0.3556 -0.5926 -1.9742
19141TIP3   OH278913   5.085   3.439  11.229 -0.1932 -0.3766  0.2257
19141TIP3    H178914   5.004   3.389  11.242 -1.7469  2.3147  1.1050
19141TIP3    H278915   5.093   3.447  11.134  0.9691 -3.6128 -0.0415
19142TIP3   OH278916   5.551   3.999  12.796 -0.0898  0.3750  0.3026
19142TIP3    H178917   5.459   4.019  12.813 -0.3875 -0.9880  0.3622
19142TIP3    H278918   5.592   3.997  12.882 -0.1904  0.1148  0.3445
19143TIP3   OH278919   0.556   0.038  12.769 -0.0920  0.1610 -0.2199
19143TIP3    H178920   0.521   0.118  12.811  1.6371  0.9243 -0.2006
19143TIP3    H278921   0.590  -0.014  12.842 -1.3782 -0.6962 -0.2132
19144TIP3   OH278922   3.403   1.752   1.664 -0.3023  0.1833 -0.3434
19144TIP3    H178923   3.341   1.707   1.607 -0.7279 -0.2559  0.4433
19144TIP3    H278924   3.475   1.690   1.675 -0.0077  0.4496 -0.7686
19145TIP3   OH278925   5.392   4.859   0.883 -0.2868 -0.4422  0.1238
19145TIP3    H178926   5.452   4.858   0.809 -1.0503  0.7161 -0.5236
19145TIP3    H278927   5.309   4.891   0.847 -0.5940  0.4079  1.5299
19146TIP3   OH278928   2.054   1.763   4.985  0.2597 -0.0550 -0.4953
19146TIP3    H178929   2.009   1.835   4.940 -0.3523  0.3701  0.7709
19146TIP3    H278930   2.092   1.804   5.062  1.9372 -0.6313 -0.9996
19147TIP3   OH278931   0.319   2.738   3.645  0.3035 -0.1173  0.3364
19147TIP3    H178932   0.264   2.801   3.692  0.0775 -0.2848  0.2960
19147TIP3    H278933   0.276   2.654   3.659 -1.1841  0.1737 -2.2992
19148TIP3   OH278934   6.428   0.513  11.749  0.6268 -0.4709 -0.0273
19148TIP3    H178935   6.522   0.525  11.742  0.5207  1.3458  1.2897
19148TIP3    H278936   6.414   0.471  11.834  0.2812 -1.2942 -0.4822
19149TIP3   OH278937   4.345   4.313  10.713 -0.3230 -0.3487 -0.0979
19149TIP3    H178938   4.370   4.230  10.755 -1.6760 -1.0364 -0.6309
19149TIP3    H278939   4.390   4.311  10.629 -0.2663 -0.4933 -0.0656
19150TIP3   OH278940   5.941   5.778   5.004  0.5668 -0.0016  0.2157
19150TIP3    H178941   5.892   5.713   5.055  1.4064 -1.3429 -0.6933
19150TIP3    H278942   6.033   5.756   5.018  0.8616  0.9597 -0.1569
19151TIP3   OH278943   5.118   6.187  11.452 -0.3102  0.0218 -0.1009
19151TIP3    H178944   5.042   6.195  11.395  1.0272  1.3492 -1.7772
19151TIP3    H278945   5.096   6.238  11.530 -1.5924 -0.6338 -0.0188
19152TIP3   OH278946   6.362   5.380   4.935 -0.6137 -0.3206 -0.6008
19152TIP3    H178947   6.276   5.337   4.940  0.5615 -2.6808  0.1643
19152TIP3    H278948   6.391   5.386   5.026 -0.1593  0.9179 -0.8209
19153TIP3   OH278949   1.414   0.423  16.062 -0.6889 -0.1575 -0.3932
19153TIP3    H178950   1.471   0.384  16.128 -0.5261  0.0581 -0.4047
19153TIP3    H278951   1.404   0.355  15.995 -2.3749 -1.0754  0.7492
19154TIP3   OH278952   1.415   6.541  14.417 -0.1787  0.8760  0.0559
19154TIP3    H178953   1.412   6.532  14.513 -0.7914  0.1359 -0.0260
19154TIP3    H278954   1.363   6.467  14.385  2.6149 -0.7034 -0.9571
19155TIP3   OH278955   1.143   4.713  16.076  0.3223 -0.1270 -0.4466
19155TIP3    H178956   1.101   4.709  15.990 -1.1149  2.3495  0.0899
19155TIP3    H278957   1.096   4.650  16.130 -0.0501 -0.2761 -0.9532
19156TIP3   OH278958   5.063   1.489   6.363  0.5232  0.0697  0.4337
19156TIP3    H178959   5.014   1.559   6.405  0.6842  1.2445 -1.2680
19156TIP3    H278960   5.154   1.518   6.365  0.4517  0.4859 -1.3032
19157TIP3   OH278961   1.135   3.836   3.719 -0.1848 -0.4372  0.5391
19157TIP3    H178962   1.101   3.783   3.791  0.3196 -3.5585 -1.4285
19157TIP3    H278963   1.091   3.801   3.641  1.1093  1.2351 -0.9778
19158TIP3   OH278964   2.260   3.842   5.180  0.1845  0.0831 -0.5808
19158TIP3    H178965   2.229   3.811   5.265 -2.4156  1.7889 -0.8562
19158TIP3    H278966   2.226   3.779   5.117  0.2747  0.0242 -0.5714
19159TIP3   OH278967   2.432   4.183  11.905  0.5478  0.1697  0.3999
19159TIP3    H178968   2.347   4.225  11.915 -0.3894 -1.5023 -0.3632
19159TIP3    H278969   2.493   4.256  11.890 -0.7448  1.3720  0.8528
19160TIP3   OH278970   2.711   3.101   1.307 -0.1836  0.3576 -0.1880
19160TIP3    H178971   2.754   3.055   1.235  0.3323  1.3189 -0.4966
19160TIP3    H278972   2.756   3.069   1.385  2.6404  2.9625 -0.6538
19161TIP3   OH278973   4.819   1.180   5.257 -0.2895  0.2128 -0.5891
19161TIP3    H178974   4.774   1.262   5.236 -1.4288  0.3405  2.1773
19161TIP3    H278975   4.909   1.206   5.275 -0.1841  0.5734 -1.5820
19162TIP3   OH278976   0.924   0.042  11.498  0.2387 -0.6751 -0.6107
19162TIP3    H178977   0.976   0.041  11.578 -1.1123 -1.3254  0.2755
19162TIP3    H278978   0.868  -0.035  11.504 -1.0382  0.1726 -1.4057
19163TIP3   OH278979   4.064   4.629  14.803  0.0150  0.8868  0.0526
19163TIP3    H178980   4.066   4.622  14.898  1.9874  0.1193 -0.0218
19163TIP3    H278981   4.071   4.539  14.772 -0.0813  1.1701 -0.8182
19164TIP3   OH278982   0.870   1.738  14.155 -0.4469  0.4455  0.0894
19164TIP3    H178983   0.800   1.797  14.127 -0.8594  0.4675  1.1548
19164TIP3    H278984   0.827   1.674  14.211  0.3107  0.1993  0.3951
19165TIP3   OH278985   5.650   4.411   2.732  0.3693  0.3741  0.4960
19165TIP3    H178986   5.734   4.379   2.767  0.7969  0.9357 -0.0198
19165TIP3    H278987   5.672   4.493   2.688 -0.2088 -0.2106 -0.8973
19166TIP3   OH278988   0.466   0.163   3.823 -0.1730  0.1080 -0.2186
19166TIP3    H178989   0.384   0.118   3.843  0.8793 -1.4320  0.7586
19166TIP3    H278990   0.444   0.256   3.827 -1.9916 -0.2907 -0.5441
19167TIP3   OH278991   0.936   4.758  12.501  0.1871  0.5429 -0.4309
19167TIP3    H178992   0.995   4.684  12.516 -0.2635 -0.2156 -2.2549
19167TIP3    H278993   0.920   4.794  12.588  1.0647 -1.0070  0.3877
19168TIP3   OH278994   0.626   4.965  12.691 -0.2248 -0.4597 -0.1204
19168TIP3    H178995   0.620   4.973  12.595 -2.1602 -0.0275  0.0051
19168TIP3    H278996   0.645   5.053  12.721 -0.0353 -0.5157 -0.0729
19169TIP3   OH278997   5.298   6.516  14.768 -0.3044 -0.4924 -0.0002
19169TIP3    H178998   5.211   6.490  14.798  0.2732 -0.6811  1.5493
19169TIP3    H278999   5.320   6.593  14.820 -0.8719  1.5536 -2.6551
19170TIP3   OH279000   2.759   2.082   3.429  0.4460 -0.0794 -0.1115
19170TIP3    H179001   2.801   2.053   3.510  0.7225  0.9669  0.1189
19170TIP3    H279002   2.685   2.136   3.458 -1.7721 -2.7979 -0.4754
19171TIP3   OH279003   2.595   2.758  14.604 -0.4957  0.0561  0.0035
19171TIP3    H179004   2.666   2.817  14.628 -1.8955  1.6985  0.2995
19171TIP3    H279005   2.516   2.801  14.639 -1.3955 -2.7792  1.5650
19172TIP3   OH279006   2.222   5.714  13.654 -0.6551  0.1712 -0.6304
19172TIP3    H179007   2.167   5.636  13.649 -1.6584  0.9175 -1.4334
19172TIP3    H279008   2.255   5.726  13.565 -1.2842  1.2072 -0.7358
19173TIP3   OH279009   3.391   4.520  11.714  0.2014 -0.1119  1.0530
19173TIP3    H179010   3.411   4.458  11.784  0.1727  0.0946  1.2496
19173TIP3    H279011   3.318   4.481  11.666  0.7673 -0.6438  0.6310
19174TIP3   OH279012   3.564   3.885  11.967 -0.4465 -0.1979 -0.4966
19174TIP3    H179013   3.557   3.916  11.877 -2.8909  1.4216  0.1847
19174TIP3    H279014   3.656   3.860  11.977  0.1018  0.6013 -3.1104
19175TIP3   OH279015   3.806   0.093  15.560 -0.2727  0.5783  0.4176
19175TIP3    H179016   3.867   0.061  15.493 -0.8285  0.7703 -0.1919
19175TIP3    H279017   3.755   0.016  15.585 -0.8896  0.7507 -0.2754
19176TIP3   OH279018   5.876   5.257   3.162 -0.2212  0.1397  0.5248
19176TIP3    H179019   5.820   5.207   3.102  1.9532  0.1629 -1.6085
19176TIP3    H279020   5.847   5.348   3.151  1.0314  0.3188 -1.5376
19177TIP3   OH279021   3.227   4.979   0.286  0.1355 -0.0503 -0.6827
19177TIP3    H179022   3.191   5.026   0.361  1.4135  0.5873 -0.4499
19177TIP3    H279023   3.201   4.888   0.300 -0.4970  0.2306  0.0060
19178TIP3   OH279024   1.091   6.110   1.999  0.4836  0.7336  0.1553
19178TIP3    H179025   1.019   6.157   1.956  1.0955  0.4684 -1.2005
19178TIP3    H279026   1.103   6.032   1.945  0.7430 -0.0158  1.2975
19179TIP3   OH279027   4.756   0.502   0.946  0.2054 -0.1887  0.1861
19179TIP3    H179028   4.691   0.532   0.883  1.3881 -0.9355 -1.4277
19179TIP3    H279029   4.839   0.535   0.913  0.7385  0.2532  1.9123
19180TIP3   OH279030   5.977   2.610  15.045  0.0558  0.2056  0.2807
19180TIP3    H179031   5.920   2.567  14.981  0.0190  1.2894 -0.4146
19180TIP3    H279032   6.065   2.583  15.020 -0.1934 -2.4431  2.0717
19181TIP3   OH279033   3.350   5.357  12.052  0.0952  0.4248 -0.0165
19181TIP3    H179034   3.335   5.407  12.133 -0.3549 -2.4363  1.7471
19181TIP3    H279035   3.273   5.377  11.998 -0.8985  0.3761  1.3337
19182TIP3   OH279036   5.032   3.049  14.698 -0.3008  0.0649  0.3129
19182TIP3    H179037   5.093   2.977  14.716  0.0887  0.8060  2.0022
19182TIP3    H279038   5.088   3.122  14.671 -0.6081  0.1289 -0.1621
19183TIP3   OH279039   6.412   3.276   4.052 -0.0787 -0.5337 -0.1602
19183TIP3    H179040   6.403   3.181   4.058 -0.9799 -0.4297  0.3687
19183TIP3    H279041   6.342   3.309   4.110  0.3792  0.4368 -0.1642
19184TIP3   OH279042   1.316   1.492  13.624 -0.4276 -0.1469 -0.0669
19184TIP3    H179043   1.345   1.550  13.553  0.3136 -1.3974 -0.8122
19184TIP3    H279044   1.223   1.510  13.634 -0.1017  1.5622  0.0948
19185TIP3   OH279045   0.891   4.120   5.461 -0.0238  0.2317 -0.2547
19185TIP3    H179046   0.950   4.160   5.398 -0.4090 -1.0211 -1.4387
19185TIP3    H279047   0.940   4.121   5.544  0.6466  1.5049 -0.6574
19186TIP3   OH279048   4.918   3.310  11.557 -0.4225  0.0537 -0.1498
19186TIP3    H179049   4.849   3.278  11.498  0.0379 -0.3827 -0.4527
19186TIP3    H279050   4.999   3.274  11.521  0.1143  1.5827 -0.5022
19187TIP3   OH279051   1.851   3.504   0.557  0.2136 -0.0600 -0.7309
19187TIP3    H179052   1.776   3.550   0.595  0.5276 -0.5995  0.5810
19187TIP3    H279053   1.833   3.504   0.463  0.3543  2.9884 -0.8214
19188TIP3   OH279054   2.663   6.390   6.341 -0.1417 -0.1202 -0.1762
19188TIP3    H179055   2.651   6.474   6.384  0.7266 -0.1384  0.1190
19188TIP3    H279056   2.636   6.405   6.250  0.2825  0.5563 -0.1952
19189TIP3   OH279057   6.344   0.751  14.001  0.1132 -0.3652 -0.7555
19189TIP3    H179058   6.341   0.704  14.084  2.5706  2.5105  1.0580
19189TIP3    H279059   6.429   0.728  13.963 -0.3106 -0.3728 -1.7309
19190TIP3   OH279060   4.247   5.214   2.086  0.4136  0.3239  0.2829
19190TIP3    H179061   4.169   5.177   2.045  0.3249  0.3320  0.4457
19190TIP3    H279062   4.298   5.138   2.114  1.2715  0.2773 -1.3304
19191TIP3   OH279063   5.011   5.066   0.791 -1.0804 -0.0514 -0.3721
19191TIP3    H179064   5.007   5.129   0.719  1.0358  0.9117  0.3076
19191TIP3    H279065   4.938   5.090   0.847 -0.4207  1.7424 -0.2163
19192TIP3   OH279066   1.404   2.635  12.615  0.8382 -0.2433  0.6546
19192TIP3    H179067   1.433   2.554  12.657  0.9993 -0.6724 -0.2561
19192TIP3    H279068   1.346   2.605  12.545  2.4911  0.3105 -0.9911
19193TIP3   OH279069   3.103   1.683   0.757 -0.5393  0.0756  0.3180
19193TIP3    H179070   3.139   1.617   0.817 -1.2436 -0.1958  0.4469
19193TIP3    H279071   3.021   1.710   0.797 -0.8745  0.1043 -0.3811
19194TIP3   OH279072   0.404   5.539  11.562 -0.2346  1.1836  0.1693
19194TIP3    H179073   0.428   5.604  11.628 -0.2029 -0.1940  1.5549
19194TIP3    H279074   0.312   5.519  11.581 -0.6621  1.8480 -1.1460
19195TIP3   OH279075   2.454   5.501   3.030 -0.4719 -0.1940 -0.5544
19195TIP3    H179076   2.488   5.591   3.032 -0.3548 -0.2510  0.1572
19195TIP3    H279077   2.408   5.491   3.113  0.3709 -1.1256 -0.2008
19196TIP3   OH279078   3.762   0.109   0.939  0.0085 -0.0352  0.3352
19196TIP3    H179079   3.838   0.055   0.915 -0.2868 -1.3728  2.2912
19196TIP3    H279080   3.756   0.174   0.869  2.6297 -0.2413 -0.1530
19197TIP3   OH279081   6.323   6.355   1.843 -0.4952 -0.0843  0.2673
19197TIP3    H179082   6.329   6.421   1.774 -0.7984 -0.4252 -0.0884
19197TIP3    H279083   6.384   6.385   1.911 -0.1677  0.2307 -0.1663
19198TIP3   OH279084   0.230   1.309   2.008 -0.3518 -0.0243 -0.1366
19198TIP3    H179085   0.212   1.231   2.061 -0.2511 -0.8463 -1.2713
19198TIP3    H279086   0.165   1.373   2.036 -2.6443 -1.6523 -1.5014
19199TIP3   OH279087   2.138   1.719  15.012 -0.1072  0.0698  0.1930
19199TIP3    H179088   2.115   1.808  15.038  1.4237  0.4032  0.4616
19199TIP3    H279089   2.234   1.716  15.020 -0.1128 -1.4663 -0.2204
19200TIP3   OH279090   6.178   2.871   6.689 -0.4172  0.4202 -0.3745
19200TIP3    H179091   6.086   2.898   6.688 -0.5652 -0.0830 -1.4026
19200TIP3    H279092   6.225   2.946   6.725 -1.2832  0.4866  0.6731
19201TIP3   OH279093   6.174   0.664  15.672 -0.2796  0.7864 -0.1129
19201TIP3    H179094   6.266   0.652  15.646 -0.3388  1.3371 -0.5919
19201TIP3    H279095   6.177   0.672  15.767 -0.1136 -1.7526  0.1188
19202TIP3   OH279096   5.375   1.854   2.529 -0.0157 -0.0347  0.3030
19202TIP3    H179097   5.344   1.775   2.573  1.2998 -0.5394  0.3577
19202TIP3    H279098   5.348   1.926   2.586 -0.1800 -0.5301  0.8551
19203TIP3   OH279099   6.193   4.267   0.812  0.2937 -0.2208  0.0980
19203TIP3    H179100   6.132   4.314   0.870 -0.5713  0.7666 -1.5917
19203TIP3    H279101   6.141   4.197   0.774  0.8866 -0.9245  0.5712
19204TIP3   OH279102   6.443   4.136   3.686 -0.3264 -0.0849  0.2837
19204TIP3    H179103   6.395   4.110   3.607  0.1407  0.4026 -0.1702
19204TIP3    H279104   6.524   4.175   3.652 -0.0037 -0.1215  1.0172
19205TIP3   OH279105   5.564   4.564  11.224 -0.0864  0.0565  0.1809
19205TIP3    H179106   5.529   4.551  11.312  1.6553 -2.0657  0.6058
19205TIP3    H279107   5.527   4.493  11.172 -1.9579  1.9244 -1.1052
19206TIP3   OH279108   1.846   6.713  12.980 -0.3536 -0.4331 -0.1140
19206TIP3    H179109   1.851   6.730  12.886  0.5231 -1.5630 -0.2889
19206TIP3    H279110   1.753   6.702  12.998 -0.5463  0.0682 -0.7920
19207TIP3   OH279111   0.185   2.685  11.544  0.1001  0.2178 -0.2936
19207TIP3    H179112   0.091   2.677  11.525  0.0095  1.1048 -0.2572
19207TIP3    H279113   0.209   2.770  11.507  1.3471 -0.8845 -2.1380
19208TIP3   OH279114   0.266   5.813  14.716  0.6848  0.2494 -1.0715
19208TIP3    H179115   0.242   5.902  14.743  1.5959  0.7651 -1.8903
19208TIP3    H279116   0.325   5.826  14.641 -0.3797 -1.0794 -2.1853
19209TIP3   OH279117   4.746   5.981   3.728 -0.8678 -0.6422 -0.1458
19209TIP3    H179118   4.700   6.002   3.647  0.5785  0.8889 -0.5896
19209TIP3    H279119   4.772   6.065   3.765 -1.7158 -1.3014  2.0632
19210TIP3   OH279120   3.039   1.456  10.674 -0.5744 -0.0355  0.6537
19210TIP3    H179121   2.978   1.433  10.604  0.6236 -0.9123 -0.1289
19210TIP3    H279122   3.020   1.548  10.692 -0.3026  0.4770 -1.4771
19211TIP3   OH279123   1.455   2.892  16.043 -0.1119  0.0654  0.9680
19211TIP3    H179124   1.524   2.827  16.027  0.1482  0.3146  1.0845
19211TIP3    H279125   1.412   2.902  15.959  0.9370  1.0046  0.5385
19212TIP3   OH279126   2.707   6.101   2.144 -0.5043  0.1058 -0.0745
19212TIP3    H179127   2.632   6.138   2.191 -0.2762  0.9678 -0.3842
19212TIP3    H279128   2.772   6.084   2.213 -1.1456 -1.0744  0.2549
19213TIP3   OH279129   5.321   6.067   4.453 -0.0564 -0.5395 -0.2154
19213TIP3    H179130   5.231   6.095   4.437 -0.3486 -1.4797 -0.2592
19213TIP3    H279131   5.326   6.056   4.548 -0.4774 -2.0595 -0.3494
19214TIP3   OH279132   1.743   6.472  16.902 -0.6023  0.3087 -0.1961
19214TIP3    H179133   1.750   6.392  16.954 -2.0125  2.0265  2.8054
19214TIP3    H279134   1.655   6.470  16.864 -0.1181 -0.2222 -1.3160
19215TIP3   OH279135   0.493   1.694  15.793  0.6574 -0.4685 -0.1915
19215TIP3    H179136   0.495   1.684  15.889  1.6442 -4.1809 -0.4984
19215TIP3    H279137   0.418   1.640  15.766 -0.4651  1.6669 -1.4460
19216TIP3   OH279138   4.628   4.519   6.525  0.0931 -0.1585 -0.0621
19216TIP3    H179139   4.559   4.470   6.481  0.5051 -1.7453  1.0307
19216TIP3    H279140   4.700   4.521   6.463 -0.8233  1.3213 -1.1253
19217TIP3   OH279141   0.710   3.371  14.590  0.3499 -0.2214 -0.3361
19217TIP3    H179142   0.768   3.386  14.665 -1.5431  1.3337  0.8823
19217TIP3    H279143   0.646   3.308  14.621 -1.1682  1.3426 -0.2059
19218TIP3   OH279144   2.713   6.110  15.740  0.2134 -0.6911 -0.2177
19218TIP3    H179145   2.750   6.099  15.828  2.7668 -0.4421 -1.2367
19218TIP3    H279146   2.774   6.168  15.695 -0.8797 -1.1039 -2.2904
19219TIP3   OH279147   2.570   5.122   4.253  0.0452 -0.2002 -0.7211
19219TIP3    H179148   2.640   5.186   4.254 -2.1211  2.2590  1.5041
19219TIP3    H279149   2.614   5.038   4.238  3.3268  1.3411 -0.1466
19220TIP3   OH279150   5.627   5.448  15.826 -0.2591  0.2572 -0.4270
19220TIP3    H179151   5.572   5.414  15.755  0.0949  1.9908 -1.5705
19220TIP3    H279152   5.713   5.457  15.786  0.1066  0.5912  0.4430
19221TIP3   OH279153   5.098   6.165   3.160  0.1792 -0.0097 -0.2366
19221TIP3    H179154   5.126   6.153   3.069 -1.6559 -0.4461 -0.7552
19221TIP3    H279155   5.080   6.077   3.191 -0.8251  0.2908  0.0287
19222TIP3   OH279156   2.860   1.894  16.155  0.1488 -0.0975  0.0494
19222TIP3    H179157   2.914   1.958  16.202 -1.3264  0.9101  0.3902
19222TIP3    H279158   2.918   1.860  16.086  1.1476  1.1382  0.2647
19223TIP3   OH279159   5.686   1.458  15.519 -0.1981  0.0627  0.4317
19223TIP3    H179160   5.732   1.400  15.458 -1.0131  2.0022 -2.1070
19223TIP3    H279161   5.756   1.506  15.563  0.4123 -1.5071  1.1938
19224TIP3   OH279162   5.474   0.448   1.781 -0.2163  0.1885 -0.5984
19224TIP3    H179163   5.532   0.455   1.857 -1.9607  0.0084  0.7655
19224TIP3    H279164   5.500   0.367   1.738 -1.8256 -1.8004  2.0419
19225TIP3   OH279165   2.766   2.061   2.827  0.1982  0.1453 -0.1523
19225TIP3    H179166   2.767   2.146   2.872  0.6969  1.1861 -2.0828
19225TIP3    H279167   2.832   2.009   2.873  1.3642  1.5081 -0.2365
19226TIP3   OH279168   5.639   1.334  15.154 -0.4398 -0.3065 -1.0770
19226TIP3    H179169   5.722   1.376  15.131  0.4004 -1.4142 -0.1704
19226TIP3    H279170   5.639   1.252  15.105 -0.0903 -1.2133  0.4194
19227TIP3   OH279171   5.838   2.722   4.235 -0.2774 -0.0554  0.3027
19227TIP3    H179172   5.777   2.717   4.162 -2.1131 -0.7160  1.8289
19227TIP3    H279173   5.813   2.802   4.282 -0.0993 -0.4438  1.0627
19228TIP3   OH279174   0.125   2.796   1.055  0.1521  0.4531  0.0513
19228TIP3    H179175   0.178   2.876   1.060  0.5413  0.2674 -1.0048
19228TIP3    H279176   0.172   2.733   1.109  0.7715  0.4341 -0.4943
19229TIP3   OH279177   5.378   6.565   4.004 -0.3897 -0.0211  0.2055
19229TIP3    H179178   5.333   6.631   3.951 -0.8745 -0.4100  0.1204
19229TIP3    H279179   5.358   6.482   3.961  2.5823  0.0168 -1.3276
19230TIP3   OH279180   4.963   6.358  11.072 -0.3503 -0.4667  0.6421
19230TIP3    H179181   4.875   6.372  11.037 -0.2334  0.4170  0.6885
19230TIP3    H279182   5.020   6.357  10.994  0.0057  2.2467  0.8205
19231TIP3   OH279183   0.984   0.411  14.256 -0.4872 -0.3825  1.0270
19231TIP3    H179184   0.917   0.356  14.297 -1.0494 -0.2931  0.2281
19231TIP3    H279185   0.942   0.448  14.179  0.3580 -0.0026  0.7368
19232TIP3   OH279186   5.703   3.269   2.580  0.2993 -0.0058  0.3845
19232TIP3    H179187   5.759   3.333   2.536  1.6690 -0.2916  1.6855
19232TIP3    H279188   5.667   3.216   2.509 -1.1766  2.4390 -0.7430
19233TIP3   OH279189   0.491   2.908  13.756 -0.1571 -0.1529 -0.0453
19233TIP3    H179190   0.524   2.846  13.691 -0.8249 -0.8539  0.2691
19233TIP3    H279191   0.397   2.887  13.763 -0.3967  0.9378  0.0150
19234TIP3   OH279192   3.696   1.887   3.492 -0.4967  0.4792 -0.4083
19234TIP3    H179193   3.617   1.928   3.528 -0.5974  1.5358 -1.7817
19234TIP3    H279194   3.676   1.875   3.399  1.2070  1.3663 -0.9025
19235TIP3   OH279195   4.066   3.771   2.120  0.1676 -0.1457 -0.4477
19235TIP3    H179196   4.128   3.699   2.133  0.9538  0.5718 -0.1478
19235TIP3    H279197   3.982   3.737   2.150  0.8450 -0.4152  1.1747
19236TIP3   OH279198   6.022   0.552   1.832 -0.7248  0.4747 -0.2406
19236TIP3    H179199   6.106   0.513   1.807  0.3934  2.4687  0.2790
19236TIP3    H279200   5.961   0.479   1.832  1.1582 -1.1581  0.0528
19237TIP3   OH279201   5.812   4.714  15.118 -0.3441  0.2171  0.0718
19237TIP3    H179202   5.899   4.681  15.095 -0.9339 -1.6692  0.4301
19237TIP3    H279203   5.800   4.687  15.209 -1.9734 -1.0353 -0.4969
19238TIP3   OH279204   4.153   3.128   4.122 -0.5534  0.0815  0.2962
19238TIP3    H179205   4.230   3.140   4.178  1.0055 -0.0537 -1.7575
19238TIP3    H279206   4.132   3.035   4.132  1.1465 -0.4784 -1.0929
19239TIP3   OH279207   2.522   1.723   0.873  0.5862 -0.1173 -0.5279
19239TIP3    H179208   2.467   1.646   0.887 -0.3609  0.4355 -1.1319
19239TIP3    H279209   2.570   1.734   0.955 -0.9752  0.0000  0.3888
19240TIP3   OH279210   0.310   1.740  13.383 -0.5140 -0.3370  0.1891
19240TIP3    H179211   0.220   1.724  13.411 -0.4449 -0.5563  0.2896
19240TIP3    H279212   0.303   1.806  13.314 -0.9135 -1.8041 -1.1920
19241TIP3   OH279213   5.943   1.742  14.111  0.5789  0.6640  0.6016
19241TIP3    H179214   5.976   1.731  14.021  1.0968  2.2024  0.5851
19241TIP3    H279215   5.860   1.695  14.112 -0.2243  1.9963 -1.1547
19242TIP3   OH279216   1.098   3.346  12.389 -0.2386 -0.5251 -0.1187
19242TIP3    H179217   1.044   3.361  12.312 -1.1491  1.6266  0.8964
19242TIP3    H279218   1.092   3.252  12.405 -0.2859 -0.9596 -2.4613
19243TIP3   OH279219   3.483   0.056   4.356  0.5125  0.2221  0.5460
19243TIP3    H179220   3.548  -0.005   4.321 -0.5650 -0.0275 -1.0493
19243TIP3    H279221   3.442   0.008   4.428  2.0468  0.3688  1.5449
19244TIP3   OH279222   0.006   5.143   2.202 -0.5362 -0.1678  0.5962
19244TIP3    H179223   0.033   5.185   2.284  0.7339 -0.7571  0.4935
19244TIP3    H279224   0.058   5.188   2.134 -1.0837 -0.1449  0.1893
19245TIP3   OH279225   0.361   3.881  16.915  0.9152  0.6364 -0.0350
19245TIP3    H179226   0.315   3.803  16.946  1.0650  0.6110  0.1228
19245TIP3    H279227   0.363   3.870  16.820  1.9885 -0.1384  0.0682
19246TIP3   OH279228   2.408   3.771  15.382  0.1493 -0.1459  0.1082
19246TIP3    H179229   2.338   3.729  15.331 -2.0524 -0.9109  3.6251
19246TIP3    H279230   2.473   3.703  15.395 -1.5641 -1.4140  2.3934
19247TIP3   OH279231   3.323   5.735  15.104  0.0341  0.3580  0.4269
19247TIP3    H179232   3.295   5.825  15.091 -1.2257  0.1047  1.2948
19247TIP3    H279233   3.243   5.688  15.128  0.8428 -0.7847  0.9531
19248TIP3   OH279234   3.113   5.634   5.413 -0.0890 -0.2458  0.5266
19248TIP3    H179235   3.034   5.589   5.442 -0.3337 -1.0029 -1.2577
19248TIP3    H279236   3.084   5.688   5.340  0.2732  2.5743  2.3740
19249TIP3   OH279237   2.230   5.915   0.737  0.9421  0.1811 -0.1470
19249TIP3    H179238   2.227   6.008   0.713  1.4655  0.0591 -0.6955
19249TIP3    H279239   2.247   5.915   0.831  3.8054  0.6166 -0.6268
19250TIP3   OH279240   4.588   3.769   3.530  0.3234 -0.0140 -0.0364
19250TIP3    H179241   4.619   3.787   3.441 -0.9089  0.1240 -0.4562
19250TIP3    H279242   4.561   3.854   3.564  1.7753  0.0914  0.8699
19251TIP3   OH279243   1.132   2.445  14.466 -0.0110 -0.1686  0.0966
19251TIP3    H179244   1.041   2.426  14.445 -0.1998  0.0264  0.7491
19251TIP3    H279245   1.172   2.463  14.381 -0.5415 -0.4075 -0.2071
19252TIP3   OH279246   4.671   6.431  15.462  0.0948 -0.0972 -0.0060
19252TIP3    H179247   4.676   6.473  15.376 -0.5457 -0.6914 -0.3375
19252TIP3    H279248   4.589   6.460  15.499  0.5998  0.5434  0.6147
19253TIP3   OH279249   6.526   0.419   0.357  0.3726 -0.1233 -0.0868
19253TIP3    H179250   6.558   0.485   0.295  1.0547  0.7653  1.1812
19253TIP3    H279251   6.567   0.338   0.328  2.3497  0.6641  0.4046
19254TIP3   OH279252   6.759   0.600  12.479  0.1663 -0.2051  0.1302
19254TIP3    H179253   6.808   0.520  12.458 -0.2856 -0.5629  0.4304
19254TIP3    H279254   6.810   0.670  12.438  0.8831 -0.5824  0.3571
19255TIP3   OH279255   5.995   5.065  16.323 -0.7035 -0.1295  0.1613
19255TIP3    H179256   5.901   5.056  16.303 -0.1114  0.9202 -3.4289
19255TIP3    H279257   6.013   5.158  16.312  0.8475 -0.3950  0.4012
19256TIP3   OH279258   0.330   4.732  14.517  0.4961  0.3338 -1.0341
19256TIP3    H179259   0.283   4.729  14.434 -1.7276  1.1799  0.1397
19256TIP3    H279260   0.337   4.826  14.536  0.6350  0.1329 -0.0913
19257TIP3   OH279261   4.582   2.891   2.336  0.6015  0.2039  0.3757
19257TIP3    H179262   4.523   2.959   2.368 -1.7465 -2.1350  1.2486
19257TIP3    H279263   4.611   2.845   2.415  1.2773 -0.4859 -0.2680
19258TIP3   OH279264   2.458   3.088  13.056 -0.2159 -0.1303  0.2900
19258TIP3    H179265   2.431   3.175  13.027  0.5559 -0.4801 -1.5152
19258TIP3    H279266   2.461   3.095  13.152 -3.5360  0.8133  0.3714
19259TIP3   OH279267   0.867   1.233  16.570  0.6112 -0.2501 -0.5168
19259TIP3    H179268   0.829   1.165  16.515  2.2362 -1.2117 -0.4770
19259TIP3    H279269   0.819   1.226  16.653  0.8019 -1.3893 -0.4925
19260TIP3   OH279270   6.408   3.703  12.535 -0.0930 -0.1979 -0.7106
19260TIP3    H179271   6.447   3.622  12.567 -0.9732  0.7439  2.9711
19260TIP3    H279272   6.453   3.721  12.453  2.4526 -2.6523  0.0935
19261TIP3   OH279273   3.675   4.405   2.143  0.1307  0.6346 -0.3317
19261TIP3    H179274   3.725   4.477   2.105  1.0546  0.3769  0.3876
19261TIP3    H279275   3.687   4.333   2.081  2.0132  0.0781  0.6581
19262TIP3   OH279276   4.201   1.880   0.738 -0.1353  0.0814 -0.3658
19262TIP3    H179277   4.220   1.869   0.645 -0.1227 -0.7490 -0.2689
19262TIP3    H279278   4.283   1.859   0.782 -0.2658  0.0420 -0.1390
19263TIP3   OH279279   1.503   0.845   4.107 -0.3027 -0.2269 -0.0776
19263TIP3    H179280   1.593   0.869   4.082 -0.2923  0.6816  0.8147
19263TIP3    H279281   1.505   0.838   4.202 -0.5401 -2.9083 -0.2501
19264TIP3   OH279282   5.328   0.183  12.003  0.0739  0.5303 -0.1605
19264TIP3    H179283   5.390   0.241  11.958  0.1807  0.4780 -0.0817
19264TIP3    H279284   5.369   0.097  11.999 -0.6793  0.2187 -1.3844
19265TIP3   OH279285   3.856   6.019   5.303  0.0943  0.2110  0.1317
19265TIP3    H179286   3.911   6.080   5.255  2.3584 -1.3331  0.6700
19265TIP3    H279287   3.912   5.943   5.319 -1.6978 -0.7651  2.1188
19266TIP3   OH279288   1.065   6.007  14.801 -0.1261  0.3421 -0.5363
19266TIP3    H179289   1.093   6.097  14.819 -1.2025  0.5238  0.2861
19266TIP3    H279290   0.972   6.014  14.784 -0.2640 -0.6551 -0.2228
19267TIP3   OH279291   0.957   0.877   2.160  0.4713 -0.2999  0.5542
19267TIP3    H179292   0.921   0.965   2.170  0.4572 -0.0787 -1.1989
19267TIP3    H279293   1.038   0.890   2.109 -0.4772 -1.4577 -1.3165
19268TIP3   OH279294   3.198   2.520   5.557  0.1450 -0.7850  0.2389
19268TIP3    H179295   3.243   2.603   5.542  0.1866 -0.7031  0.7867
19268TIP3    H279296   3.178   2.487   5.470 -1.5624  0.7391  0.0136
19269TIP3   OH279297   6.709   3.288   3.110  0.4449  0.5198 -0.2760
19269TIP3    H179298   6.708   3.242   3.194  0.6860  2.2950  0.7052
19269TIP3    H279299   6.729   3.379   3.132  0.8689  0.9332 -2.2902
19270TIP3   OH279300   1.410   1.592  11.114 -0.1072 -0.0020 -0.6994
19270TIP3    H179301   1.348   1.616  11.045  1.0610 -0.0021 -1.7688
19270TIP3    H279302   1.361   1.603  11.195 -0.7431  2.4662 -1.3637
19271TIP3   OH279303   0.563   1.669  11.583 -0.5151  0.5530  0.1301
19271TIP3    H179304   0.505   1.736  11.620 -0.2089  1.4386 -0.9718
19271TIP3    H279305   0.585   1.702  11.496  1.1606 -0.0719  0.3048
19272TIP3   OH279306   3.792   2.841  16.469 -0.1366  0.0222  0.7694
19272TIP3    H179307   3.825   2.813  16.554  2.8535  1.2181  0.0425
19272TIP3    H279308   3.859   2.814  16.407 -1.8458  0.0160 -1.1175
19273TIP3   OH279309   0.748   2.615  15.087 -0.3747  0.2557  0.1788
19273TIP3    H179310   0.786   2.600  15.001 -1.1707 -0.1630 -0.0969
19273TIP3    H279311   0.798   2.559  15.146  2.4161  3.0126  0.5519
19274TIP3   OH279312   5.332   2.129   6.776  0.3484  0.3861  0.4030
19274TIP3    H179313   5.379   2.067   6.831 -0.8227 -1.7758 -0.9574
19274TIP3    H279314   5.240   2.114   6.795  0.0642  2.1194  0.4577
19275TIP3   OH279315   5.181   3.894   2.844 -0.8050 -0.2954  0.5203
19275TIP3    H179316   5.142   3.897   2.932 -0.0698 -0.3368  0.8487
19275TIP3    H279317   5.176   3.984   2.812 -0.5105 -0.1591  0.8531
19276TIP3   OH279318   2.683   0.844   3.544 -0.9976  0.3753 -0.6926
19276TIP3    H179319   2.670   0.920   3.488  0.8641  2.0946  1.1100
19276TIP3    H279320   2.731   0.878   3.620 -1.8141 -2.2345  1.0601
19277TIP3   OH279321   6.466   0.513   5.876  0.6655 -0.0825 -0.1013
19277TIP3    H179322   6.507   0.580   5.820  1.1810 -0.6032 -0.3484
19277TIP3    H279323   6.396   0.560   5.921 -0.9521 -0.0265 -2.5383
19278TIP3   OH279324   5.192   2.729   2.355 -0.1369 -0.0738 -0.4568
19278TIP3    H179325   5.123   2.764   2.298  1.1831 -2.3759 -3.6821
19278TIP3    H279326   5.147   2.663   2.408 -0.9708  0.4308 -0.5224
19279TIP3   OH279327   2.810   3.864   4.100  0.1091 -0.5132 -0.2064
19279TIP3    H179328   2.786   3.834   4.188  1.5280  3.0594  1.4708
19279TIP3    H279329   2.903   3.844   4.092  0.0346 -0.6233 -0.8085
19280TIP3   OH279330   0.603   3.639   1.637  0.3514 -0.0256  0.0137
19280TIP3    H179331   0.571   3.644   1.727 -1.8029  0.8729 -0.7604
19280TIP3    H279332   0.691   3.675   1.641  0.7075 -1.0198  1.9407
19281TIP3   OH279333   4.960   1.011   0.005  0.8773  0.1836 -0.0468
19281TIP3    H179334   5.025   0.942  -0.006 -0.6904 -1.3082 -0.2452
19281TIP3    H279335   4.949   1.049  -0.083  2.4838  1.3901  0.2627
19282TIP3   OH279336   0.676   1.263  12.525 -0.0100 -0.3671 -0.1643
19282TIP3    H179337   0.729   1.314  12.586 -1.2974 -0.4128  1.0291
19282TIP3    H279338   0.669   1.319  12.448  0.0402  0.5288  0.4673
19283TIP3   OH279339   3.500   6.136  10.762 -0.3653 -0.2786  0.1164
19283TIP3    H179340   3.420   6.186  10.776  0.1198  0.7976 -0.8874
19283TIP3    H279341   3.471   6.045  10.757 -1.7236  0.2078 -1.5763
19284TIP3   OH279342   5.796   1.904  14.579  0.5753  0.3274 -0.3938
19284TIP3    H179343   5.707   1.937  14.581  0.4676 -0.0279  0.8683
19284TIP3    H279344   5.823   1.914  14.488 -0.3499  1.4942 -0.5503
19285TIP3   OH279345   2.251   5.028   4.186 -0.4039 -0.1347  0.3650
19285TIP3    H179346   2.166   4.988   4.206  0.8152 -2.9547  0.1247
19285TIP3    H279347   2.279   4.985   4.106  0.6346  1.8053 -0.3442
19286TIP3   OH279348   6.351   0.295   3.286  0.1426  0.0013  0.1451
19286TIP3    H179349   6.436   0.312   3.245  1.7878 -1.0637  2.9617
19286TIP3    H279350   6.350   0.350   3.363 -1.2124 -0.9124  0.8082
19287TIP3   OH279351   6.744   4.550   6.005 -0.0167 -0.4533  0.8502
19287TIP3    H179352   6.763   4.459   6.026  1.4512 -0.8361 -1.9544
19287TIP3    H279353   6.785   4.600   6.076  1.3872 -1.8495  1.0493
19288TIP3   OH279354   0.790   0.666   6.328  0.5252 -0.1723 -0.2919
19288TIP3    H179355   0.834   0.587   6.359  3.0216  0.5349 -1.8855
19288TIP3    H279356   0.802   0.730   6.398 -0.7190 -0.8859  0.6067
19289TIP3   OH279357   2.203   0.263   3.890 -0.1811 -0.1016 -0.1928
19289TIP3    H179358   2.140   0.280   3.961 -0.1828 -0.3107 -0.1449
19289TIP3    H279359   2.288   0.261   3.934 -0.2792 -1.2176 -0.0506
19290TIP3   OH279360   4.533   2.720   1.197 -0.0474 -0.1051  0.1272
19290TIP3    H179361   4.483   2.639   1.197  0.9545 -0.7302  0.1579
19290TIP3    H279362   4.544   2.742   1.289  0.3515 -0.3466  0.1353
19291TIP3   OH279363   4.698   3.906   2.823  0.0361 -0.2430 -0.3939
19291TIP3    H179364   4.765   3.960   2.783 -0.0850 -0.0231 -0.3028
19291TIP3    H279365   4.660   3.962   2.891 -0.4618 -0.2505 -0.6645
19292TIP3   OH279366   5.461   6.276  13.595  0.1767 -0.1930 -0.4641
19292TIP3    H179367   5.540   6.227  13.618  0.3395  0.8869  1.4003
19292TIP3    H279368   5.390   6.228  13.636  0.4103  1.4621  1.9401
19293TIP3   OH279369   0.040   3.257   1.549 -0.6415 -0.6378 -0.0860
19293TIP3    H179370  -0.030   3.319   1.530  0.1353  0.0395 -0.7298
19293TIP3    H279371   0.120   3.309   1.545 -0.1415 -1.2949  1.1896
19294TIP3   OH279372   6.446   1.152   5.841  0.0179 -0.1953  0.3529
19294TIP3    H179373   6.518   1.213   5.851 -0.5096  0.3570  0.8448
19294TIP3    H279374   6.422   1.129   5.931 -1.0434  0.3814  0.2305
19295TIP3   OH279375   0.441   0.582   4.167  0.3319  0.3803 -0.0210
19295TIP3    H179376   0.501   0.604   4.096  1.9470  1.6332  1.6852
19295TIP3    H279377   0.430   0.664   4.215 -2.0383 -0.0593  0.2306
19296TIP3   OH279378   1.413   3.915  13.436  0.1529 -0.2774 -0.0946
19296TIP3    H179379   1.493   3.945  13.478  1.1860  0.5278 -2.5354
19296TIP3    H279380   1.438   3.835  13.390 -1.0070 -1.2824  0.9906
19297TIP3   OH279381   0.028   2.969   3.487 -0.0823  0.1466  0.4774
19297TIP3    H179382   0.051   2.956   3.579 -0.7242 -1.3426  0.4434
19297TIP3    H279383   0.046   2.884   3.446 -0.5161  0.5801 -0.6201
19298TIP3   OH279384   4.158   0.025  11.884  0.5891 -0.1225 -0.5026
19298TIP3    H179385   4.103   0.049  11.959 -0.0663  0.2695 -1.0968
19298TIP3    H279386   4.139   0.092  11.819 -0.3668 -1.5742 -1.7509
19299TIP3   OH279387   2.683   3.277  16.722 -0.2596  0.0540 -0.1057
19299TIP3    H179388   2.608   3.250  16.669 -0.2988  1.4835 -0.7938
19299TIP3    H279389   2.666   3.240  16.809 -0.4960 -1.7828 -0.9065
19300TIP3   OH279390   4.545   2.272  12.050 -0.4774 -0.4432  0.0054
19300TIP3    H179391   4.615   2.257  12.113 -0.1587  1.8237  0.2572
19300TIP3    H279392   4.550   2.366  12.031 -2.6757 -0.4730 -0.8997
19301TIP3   OH279393   3.898   2.502  11.495  0.1403  0.0244 -0.2489
19301TIP3    H179394   3.842   2.477  11.568  1.1141 -2.7111 -0.3916
19301TIP3    H279395   3.981   2.528  11.535 -1.0315  3.8551 -0.0546
19302TIP3   OH279396   5.027   2.869   3.967 -0.3723  0.0815  0.2915
19302TIP3    H179397   4.965   2.929   3.926 -0.8538 -0.7877 -0.2743
19302TIP3    H279398   5.001   2.868   4.059  0.1735  1.3760  0.4718
19303TIP3   OH279399   4.541   5.127  11.902 -0.7195 -0.6132  0.2861
19303TIP3    H179400   4.597   5.204  11.907 -1.1900 -0.2636  0.1295
19303TIP3    H279401   4.457   5.155  11.939 -0.7508 -1.1747  0.6493
19304TIP3   OH279402   5.082   4.954   4.368  0.0752 -0.1791 -0.5183
19304TIP3    H179403   5.172   4.930   4.387 -0.0778  1.3140  2.2895
19304TIP3    H279404   5.034   4.938   4.449 -2.0203 -0.1596 -1.7118
19305TIP3   OH279405   4.251   2.646  10.812 -0.0240 -0.2582 -0.7420
19305TIP3    H179406   4.317   2.644  10.882  1.1575 -1.1785 -1.8555
19305TIP3    H279407   4.225   2.554  10.802 -1.6039  0.1226 -0.2041
19306TIP3   OH279408   3.325   3.599   5.247 -0.0594 -0.1741 -0.2840
19306TIP3    H179409   3.400   3.597   5.307  1.2934 -1.0721 -1.9705
19306TIP3    H279410   3.337   3.680   5.197 -1.7963  1.1556  1.3661
19307TIP3   OH279411   5.940   2.973   0.143 -0.5856  0.4193 -0.2064
19307TIP3    H179412   5.857   2.928   0.128 -1.3764  1.4031  1.0343
19307TIP3    H279413   6.006   2.914   0.109 -1.5135 -2.1217  2.2101
19308TIP3   OH279414   0.999   1.553   5.950 -0.1122 -0.4420  0.4962
19308TIP3    H179415   1.044   1.569   6.034 -1.9944 -1.2975  1.7030
19308TIP3    H279416   1.022   1.463   5.927 -1.3395 -0.9620  1.2339
19309TIP3   OH279417   0.934   4.743   2.721 -0.6686  0.3058 -0.8005
19309TIP3    H179418   1.019   4.721   2.759 -0.8718 -0.2920 -0.6760
19309TIP3    H279419   0.955   4.785   2.638 -0.2702 -2.1361 -1.9757
19310TIP3   OH279420   4.483   4.534   5.505  0.1685 -0.3916 -0.1369
19310TIP3    H179421   4.477   4.454   5.452  1.2554  0.2416 -1.2170
19310TIP3    H279422   4.572   4.532   5.541 -0.9391 -1.4708  2.7562
19311TIP3   OH279423   3.384   5.262  15.298 -0.3164  0.5321 -0.2485
19311TIP3    H179424   3.307   5.253  15.242  0.1981 -0.4924 -0.8079
19311TIP3    H279425   3.458   5.249  15.239  0.2725  1.1779  0.3455
19312TIP3   OH279426   4.056   6.505  11.598  0.3144  0.2473  0.4918
19312TIP3    H179427   4.075   6.416  11.569 -1.9645 -0.5371  1.2782
19312TIP3    H279428   3.988   6.536  11.539  0.7853  1.3121  0.4983
19313TIP3   OH279429   2.485   2.604  12.591  0.8354  0.8874  0.4714
19313TIP3    H179430   2.515   2.682  12.638  1.1524 -0.0170  1.7802
19313TIP3    H279431   2.562   2.574  12.543  0.3374  2.2008 -1.2043
19314TIP3   OH279432   1.056   3.078   4.197 -0.0846 -0.0073 -0.1901
19314TIP3    H179433   1.104   3.062   4.116 -0.2665 -0.2595 -0.2476
19314TIP3    H279434   0.964   3.075   4.171 -0.1232  1.3851 -0.2602
19315TIP3   OH279435   3.266   0.853  12.950 -0.4443 -0.4468 -0.4363
19315TIP3    H179436   3.231   0.934  12.912 -2.0355 -0.7001  0.4175
19315TIP3    H279437   3.190   0.813  12.994  1.0067 -0.8889  1.7360
19316TIP3   OH279438   3.407   1.903   2.933  0.2550  0.6660  0.1424
19316TIP3    H179439   3.436   1.951   3.010  0.5249  1.0119 -0.1770
19316TIP3    H279440   3.336   1.956   2.896 -0.0882  0.3416  0.3331
19317TIP3   OH279441   5.384   4.262   5.927 -0.7293  0.2982 -0.2514
19317TIP3    H179442   5.471   4.253   5.888 -0.4088 -1.1238  0.7717
19317TIP3    H279443   5.400   4.269   6.021 -1.7944 -1.5384  0.0947
19318TIP3   OH279444   0.598   0.467   4.398 -0.5872  0.0978  0.8143
19318TIP3    H179445   0.570   0.490   4.309 -1.1636 -0.2151  0.9095
19318TIP3    H279446   0.674   0.523   4.414 -0.7469  0.4750  0.2897
19319TIP3   OH279447   1.984   4.061   1.149  0.0898  0.3675  0.5909
19319TIP3    H179448   1.985   3.971   1.184  2.0719  0.6465  1.3056
19319TIP3    H279449   1.995   4.116   1.226 -0.3408  1.2074  0.0535
19320TIP3   OH279450   3.795   6.601  15.392 -0.3833  0.2935  0.3441
19320TIP3    H179451   3.741   6.578  15.316  0.6462 -1.7408  0.1717
19320TIP3    H279452   3.733   6.631  15.458 -1.6922 -1.4691 -0.0440
19321TIP3   OH279453   0.063   4.643  11.347  0.4888  0.2591 -0.7581
19321TIP3    H179454   0.060   4.730  11.307  0.7952  0.9000  0.5930
19321TIP3    H279455  -0.009   4.643  11.409  1.1083 -0.0986 -0.0401
19322TIP3   OH279456   4.861   3.310  16.882  0.3082  0.2858 -0.0302
19322TIP3    H179457   4.819   3.260  16.952  0.7485 -0.7025 -0.4727
19322TIP3    H279458   4.953   3.311  16.905  0.2712  1.1310  0.1141
19323TIP3   OH279459   0.812   2.710   2.849 -0.1906 -0.6468  0.2894
19323TIP3    H179460   0.735   2.664   2.883  0.0255 -1.7830 -0.7147
19323TIP3    H279461   0.839   2.658   2.774  0.7200  0.5424 -0.2118
19324TIP3   OH279462   5.814   2.847   5.571 -0.0371 -0.3715 -0.2887
19324TIP3    H179463   5.836   2.939   5.555  0.1401 -0.4754 -0.6427
19324TIP3    H279464   5.885   2.798   5.530 -0.1626 -0.6688 -0.1499
19325TIP3   OH279465   0.283   6.625  15.281  0.3444 -0.6995  0.2581
19325TIP3    H179466   0.293   6.623  15.186  1.1433  1.3367  0.2798
19325TIP3    H279467   0.331   6.703  15.309 -1.8627  0.0625  2.0952
19326TIP3   OH279468   6.722   0.317  13.154  0.0856 -0.1723  0.5559
19326TIP3    H179469   6.742   0.227  13.127  1.3249 -0.5904  2.7510
19326TIP3    H279470   6.803   0.365  13.137 -0.3216  0.3588  0.1270
19327TIP3   OH279471   2.538   2.006   1.684  0.2869  0.0552  0.0085
19327TIP3    H179472   2.451   2.042   1.699 -0.8804 -1.6899 -2.1595
19327TIP3    H279473   2.568   1.978   1.770 -1.1904  0.9081  0.8161
19328TIP3   OH279474   6.244   0.639   2.728 -0.4245 -0.1366  0.0355
19328TIP3    H179475   6.211   0.726   2.749  1.3043  0.8524 -1.2522
19328TIP3    H279476   6.251   0.637   2.633  0.8144 -1.2113  0.1287
19329TIP3   OH279477   0.299   2.655   3.044  0.4345  0.0397 -0.3245
19329TIP3    H179478   0.247   2.575   3.041  0.0121  0.3048 -0.1400
19329TIP3    H279479   0.243   2.721   3.004  0.0674  0.6360  1.1593
19330TIP3   OH279480   2.190   1.470  12.258 -0.2648  0.0988  0.6274
19330TIP3    H179481   2.130   1.420  12.313  0.3902  0.5981  1.8140
19330TIP3    H279482   2.205   1.552  12.307  1.3794 -0.0244  0.3580
19331TIP3   OH279483   0.551   4.070  16.419  0.2952  0.6673 -0.1468
19331TIP3    H179484   0.513   4.154  16.393  0.9659  1.5181  1.5547
19331TIP3    H279485   0.626   4.059  16.360 -1.2029  0.0511 -2.0105
19332TIP3   OH279486   3.870   6.400  16.470  0.1043  0.4722 -0.1273
19332TIP3    H179487   3.914   6.330  16.517 -1.4714 -0.5900 -0.1986
19332TIP3    H279488   3.790   6.360  16.436 -0.8844  2.3398 -0.0654
19333TIP3   OH279489   2.130   6.328   0.171  0.0621  0.2846 -0.3475
19333TIP3    H179490   2.064   6.260   0.183 -0.3099  0.6492 -0.3245
19333TIP3    H279491   2.121   6.355   0.079 -0.7883  1.3400  0.0423
19334TIP3   OH279492   0.611   6.285  12.964 -0.0074 -0.3828 -0.0045
19334TIP3    H179493   0.631   6.213  13.023  0.9769  0.6398  0.9389
19334TIP3    H279494   0.660   6.360  13.000 -1.4193  0.8766 -0.6592
19335TIP3   OH279495   3.478   2.000   1.289 -0.4430 -0.1165 -0.6713
19335TIP3    H179496   3.571   1.996   1.308 -0.1726  1.6750 -1.5065
19335TIP3    H279497   3.443   1.916   1.319  0.9065  0.3695  2.5059
19336TIP3   OH279498   1.270   5.608   3.895  0.3806  0.1016 -0.0893
19336TIP3    H179499   1.235   5.555   3.967  2.0866 -1.1405 -0.1403
19336TIP3    H279500   1.314   5.681   3.939  1.9333 -0.9681  0.2020
19337TIP3   OH279501   0.007   5.022  16.777  0.1897 -0.0398  0.1619
19337TIP3    H179502  -0.066   5.076  16.807 -0.1355  1.6258 -3.2984
19337TIP3    H279503  -0.030   4.934  16.768 -0.1027 -0.2236  2.9095
19338TIP3   OH279504   2.039   3.220   5.618  0.2965  0.9143  0.1735
19338TIP3    H179505   2.068   3.310   5.636  2.6317  1.5372 -5.5362
19338TIP3    H279506   2.114   3.166   5.642  2.1966  1.4518 -4.0558
19339TIP3   OH279507   5.634   2.885   4.085  0.2488  0.3957 -0.5268
19339TIP3    H179508   5.548   2.921   4.061  0.8869  0.8348 -2.2073
19339TIP3    H279509   5.659   2.933   4.164 -1.1459  0.1153  0.0949
19340TIP3   OH279510   3.372   0.937  15.352  0.5116  0.3259 -0.0635
19340TIP3    H179511   3.434   0.940  15.425  0.5875  1.8974 -0.1669
19340TIP3    H279512   3.287   0.920  15.393  0.8061 -0.4786  0.2157
19341TIP3   OH279513   4.950   1.764  11.473  0.2902 -0.0746 -0.1650
19341TIP3    H179514   4.901   1.834  11.430  1.8026  0.5623 -0.8959
19341TIP3    H279515   5.031   1.755  11.422  0.7500 -1.4010  0.7396
19342TIP3   OH279516   1.595   5.372   3.594  0.7649  0.0107 -0.2303
19342TIP3    H179517   1.593   5.412   3.681 -1.2196  0.8608 -0.6475
19342TIP3    H279518   1.668   5.310   3.598  0.5743 -0.1061  2.0931
19343TIP3   OH279519   5.835   5.438   6.178 -0.1047  1.4478 -0.5397
19343TIP3    H179520   5.895   5.422   6.250  0.7349  3.1771 -0.8208
19343TIP3    H279521   5.823   5.353   6.136 -0.7881  0.3731  1.7607
19344TIP3   OH279522   0.927   0.823   6.041 -0.2562  0.4386 -0.5628
19344TIP3    H179523   1.009   0.855   6.078 -1.0113 -0.1918  1.7228
19344TIP3    H279524   0.906   0.885   5.971  2.6654  0.0332 -1.8383
19345TIP3   OH279525   2.292   3.016   4.256  0.6354  0.3596  0.2084
19345TIP3    H179526   2.384   3.037   4.270 -0.1706  3.1283  1.7247
19345TIP3    H279527   2.258   2.997   4.344 -0.8645  2.2022  0.0532
19346TIP3   OH279528   3.125   2.881   4.852  0.1944  0.3273  1.5104
19346TIP3    H179529   3.174   2.956   4.885  1.3490  1.2749 -2.0977
19346TIP3    H279530   3.046   2.919   4.814  1.1991 -0.0513 -1.1398
19347TIP3   OH279531   0.924   6.024   0.753 -0.4131 -0.3412 -0.0052
19347TIP3    H179532   0.955   6.111   0.727  1.2977 -0.3477  1.8803
19347TIP3    H279533   0.858   6.002   0.688 -0.3696  2.0693 -0.9369
19348TIP3   OH279534   2.671   1.873   1.865  0.1851  0.1003 -0.0582
19348TIP3    H179535   2.727   1.927   1.921  1.1067 -1.0129  0.1121
19348TIP3    H279536   2.724   1.796   1.845 -1.0707 -0.6981 -0.3849
19349TIP3   OH279537   1.007   0.831   3.994 -0.1560  0.2309  0.1160
19349TIP3    H179538   0.970   0.823   4.082 -2.2863 -1.7774 -0.9240
19349TIP3    H279539   1.045   0.745   3.976 -0.0347  0.5287 -1.0700
19350TIP3   OH279540   5.135   3.328   6.212 -0.4837  0.3768 -0.7359
19350TIP3    H179541   5.102   3.407   6.254  0.9552  0.8688 -0.4895
19350TIP3    H279542   5.209   3.301   6.266 -0.6499 -0.8541 -1.1074
19351TIP3   OH279543   6.242   3.824  12.106  0.0061 -0.2183  0.3415
19351TIP3    H179544   6.278   3.736  12.106  0.2420 -0.1655 -1.8797
19351TIP3    H279545   6.309   3.879  12.146  0.4018 -0.8514  0.5398
19352TIP3   OH279546   4.288   2.465  11.417 -0.0884 -0.4691 -0.0044
19352TIP3    H179547   4.249   2.476  11.503 -1.8008 -2.3008 -0.4945
19352TIP3    H279548   4.224   2.503  11.357  0.4451 -0.4661 -0.5784
19353TIP3   OH279549   6.138   2.724  15.399 -0.2633  0.2828  0.0256
19353TIP3    H179550   6.152   2.811  15.437  0.3524 -0.0772  0.6440
19353TIP3    H279551   6.058   2.732  15.347 -0.4311  1.1097  0.4144
19354TIP3   OH279552   2.844   4.794   5.705 -0.2319  0.1845 -0.3160
19354TIP3    H179553   2.865   4.764   5.793  0.0215  0.8825 -0.1378
19354TIP3    H279554   2.929   4.805   5.663 -0.3585 -0.3971 -0.7377
19355TIP3   OH279555   5.926   3.554   0.906  0.2317  0.4345  0.1368
19355TIP3    H179556   5.872   3.562   0.985  0.2352  0.7779  0.1067
19355TIP3    H279557   5.974   3.472   0.918  2.1503  1.7280  1.6868
19356TIP3   OH279558   4.160   3.106   3.669 -0.4652  0.2668  0.0695
19356TIP3    H179559   4.162   3.010   3.675 -0.6594  0.3046  0.7096
19356TIP3    H279560   4.088   3.132   3.726 -1.0503  0.7338 -0.8556
19357TIP3   OH279561   2.595   5.190   4.776  0.1546  0.4137 -0.7780
19357TIP3    H179562   2.628   5.123   4.716 -0.2605 -1.1281  0.6362
19357TIP3    H279563   2.662   5.259   4.775  1.0510 -0.4454 -1.5980
19358TIP3   OH279564   1.994   5.753  14.998 -0.3297 -0.1571  0.9983
19358TIP3    H179565   1.902   5.766  15.018 -0.5027  0.8533 -0.3967
19358TIP3    H279566   2.038   5.830  15.035  0.0987 -1.0762  2.4691
19359TIP3   OH279567   5.837   4.261  14.830  0.7183 -0.4093  0.3914
19359TIP3    H179568   5.859   4.350  14.800 -3.6590  0.6273 -0.1207
19359TIP3    H279569   5.867   4.259  14.921 -0.4875  2.1925  0.9040
19360TIP3   OH279570   2.050   5.572  13.866  0.3708 -0.5983 -0.1640
19360TIP3    H179571   2.055   5.520  13.786  1.0102 -0.0990 -0.4629
19360TIP3    H279572   1.991   5.524  13.923  0.3268 -1.2341 -0.7382
19361TIP3   OH279573   2.274   0.824   2.022 -0.0543 -0.0266 -0.0753
19361TIP3    H179574   2.213   0.817   2.095 -0.6320 -1.0125 -0.6264
19361TIP3    H279575   2.350   0.870   2.057 -1.2233  1.4724  0.5511
19362TIP3   OH279576   1.325   4.205  11.730  0.1949 -0.8491 -0.1478
19362TIP3    H179577   1.361   4.122  11.762  1.4120 -0.7749 -1.2960
19362TIP3    H279578   1.239   4.183  11.696 -0.1909 -1.3296  1.0865
19363TIP3   OH279579   0.965   3.363   2.285 -0.0715 -0.2296  0.1285
19363TIP3    H179580   0.877   3.331   2.303 -0.4685  1.2960  1.0499
19363TIP3    H279581   1.010   3.290   2.244 -1.9685 -0.8095 -0.9603
19364TIP3   OH279582   2.013   2.189  15.138 -0.0080 -0.7158 -0.4378
19364TIP3    H179583   2.040   2.177  15.047 -1.9164 -0.9473 -0.9924
19364TIP3    H279584   1.938   2.248  15.133  0.2288 -0.2852  1.0417
19365TIP3   OH279585   0.074   3.059   5.898  0.4894 -0.3246 -0.0682
19365TIP3    H179586   0.119   3.011   5.829  1.1642 -1.3943  1.0862
19365TIP3    H279587   0.003   3.001   5.925 -1.1788  1.0567 -1.4000
19366TIP3   OH279588   5.442   4.333  16.670  0.4326 -0.3110  0.4561
19366TIP3    H179589   5.490   4.351  16.589 -0.3482 -1.1585 -0.2095
19366TIP3    H279590   5.355   4.371  16.655  0.5569  0.2906  1.2409
19367TIP3   OH279591   5.456   6.321   1.407 -0.5915 -0.6895  0.2498
19367TIP3    H179592   5.489   6.411   1.404  0.5407 -1.0848  0.5695
19367TIP3    H279593   5.531   6.267   1.382 -1.2383 -1.5548  0.1569
19368TIP3   OH279594   3.039   3.153  16.915  0.2694 -0.3087  0.3297
19368TIP3    H179595   2.993   3.208  16.979 -0.5237 -0.0027 -0.4896
19368TIP3    H279596   3.013   3.064  16.936 -1.3744 -0.0680 -0.6615
19369TIP3   OH279597   6.752   5.054   7.072 -0.0951  0.1176  0.2374
19369TIP3    H179598   6.834   5.012   7.101 -0.9926 -1.2140  0.8940
19369TIP3    H279599   6.781   5.127   7.017  1.6118  0.9899  2.1947
19370TIP3   OH279600   3.466   5.126  13.920  0.3005 -0.4289  0.2590
19370TIP3    H179601   3.440   5.158  13.833  0.0823 -0.3526  0.3540
19370TIP3    H279602   3.430   5.190  13.981  0.4450 -0.4882  0.4093
19371TIP3   OH279603   6.703   5.941  15.517 -0.1617  0.8609  0.2876
19371TIP3    H179604   6.789   5.968  15.484  0.2628  1.3456  1.7401
19371TIP3    H279605   6.646   6.016  15.502 -0.5785  0.1808 -1.5697
19372TIP3   OH279606   3.025   3.986   3.444  0.2341  0.3642 -0.3652
19372TIP3    H179607   3.098   4.047   3.459  0.3903 -0.2662  1.4867
19372TIP3    H279608   3.056   3.903   3.479 -0.0234 -0.8014 -2.8080
19373TIP3   OH279609   2.434   4.020   3.008  0.9689 -0.2695 -0.1144
19373TIP3    H179610   2.391   4.035   3.092  0.5979 -0.0008 -0.3516
19373TIP3    H279611   2.481   4.101   2.990  0.7577 -0.1999 -0.3398
19374TIP3   OH279612   6.471   0.861   3.988  0.4765 -0.3051 -0.1355
19374TIP3    H179613   6.395   0.872   4.045  0.4943 -0.5028 -0.0752
19374TIP3    H279614   6.546   0.865   4.047  0.4812 -0.7928 -0.1133
19375TIP3   OH279615   1.474   0.273   3.310  0.3112  0.3083  0.4440
19375TIP3    H179616   1.540   0.287   3.242 -2.0997  1.1562 -1.8011
19375TIP3    H279617   1.469   0.178   3.320  1.1747  0.2070 -0.0402
19376TIP3   OH279618   5.694   2.953  11.256 -0.5720  0.4750  0.4110
19376TIP3    H179619   5.672   2.977  11.166 -0.5527 -0.8323  0.0512
19376TIP3    H279620   5.613   2.915  11.291  0.0573 -1.1342  0.1951
19377TIP3   OH279621   1.038   3.813  12.524 -0.6027 -0.0955 -0.5443
19377TIP3    H179622   1.050   3.907  12.507  0.0165 -0.0629  0.0205
19377TIP3    H279623   1.022   3.775  12.438  2.5062  0.0560 -1.2527
19378TIP3   OH279624   6.184   4.903  14.688 -0.0810 -0.2301  0.1199
19378TIP3    H179625   6.238   4.953  14.626 -1.6067  0.9956 -0.2439
19378TIP3    H279626   6.141   4.836  14.634  2.7564 -2.7242  0.7619
19379TIP3   OH279627   0.897   1.541   3.839 -0.1222  0.2896 -0.4348
19379TIP3    H179628   0.837   1.505   3.773  0.8770 -1.1554 -0.5821
19379TIP3    H279629   0.897   1.476   3.909  1.5581  0.0559 -0.6209
19380TIP3   OH279630   5.827   3.799  11.551 -0.0366  0.2717 -0.1642
19380TIP3    H179631   5.829   3.703  11.551  0.8469  0.2818  0.8763
19380TIP3    H279632   5.913   3.825  11.520 -0.1689  0.7390 -0.1406
19381TIP3   OH279633   6.344   0.545   5.324 -0.2664  0.0704  0.7590
19381TIP3    H179634   6.431   0.574   5.350 -1.4813  2.5686  2.2412
19381TIP3    H279635   6.308   0.503   5.402 -0.8590  0.1216  0.5175
19382TIP3   OH279636   1.805   3.016  15.452  0.7001 -0.0188  0.3482
19382TIP3    H179637   1.756   3.038  15.372 -0.0851  0.6620  1.0097
19382TIP3    H279638   1.738   2.985  15.513  1.1541  0.4870  1.1036
19383TIP3   OH279639   1.021   5.421  15.506  0.3631 -0.5758 -0.2157
19383TIP3    H179640   1.108   5.428  15.543  0.0305  0.0987  0.4459
19383TIP3    H279641   0.987   5.338  15.540 -0.3790  0.5776  1.9680
19384TIP3   OH279642   2.521   1.715   1.528 -0.2248 -0.2212 -1.0315
19384TIP3    H179643   2.490   1.669   1.450  1.0593  0.9798 -2.2780
19384TIP3    H279644   2.586   1.777   1.495  0.9157 -0.2427  1.0916
19385TIP3   OH279645   5.341   1.084  11.939  0.0041  0.3879 -0.1092
19385TIP3    H179646   5.327   1.174  11.968  0.4067 -0.0477  1.4840
19385TIP3    H279647   5.373   1.093  11.849  0.3775  1.8457  0.1467
19386TIP3   OH279648   2.512   0.679   5.741  0.2319  0.0552 -0.1385
19386TIP3    H179649   2.571   0.722   5.679  0.9443  0.9684  1.1492
19386TIP3    H279650   2.500   0.743   5.811 -4.2227  0.8376 -1.4724
19387TIP3   OH279651   5.111   5.094   5.114  0.3466  0.5011 -0.0900
19387TIP3    H179652   5.068   5.035   5.052 -0.7568  1.7767 -0.5659
19387TIP3    H279653   5.201   5.062   5.119 -0.5513 -2.0602  0.6911
19388TIP3   OH279654   2.703   4.997   4.609  0.1037 -0.1574  0.2785
19388TIP3    H179655   2.695   4.902   4.598  2.5436 -0.7142  2.7801
19388TIP3    H279656   2.780   5.020   4.558 -1.1868  0.7398 -1.3345
19389TIP3   OH279657   4.597   0.425   4.593 -0.0526  0.1326  0.1665
19389TIP3    H179658   4.609   0.454   4.683 -0.6422 -0.1918  0.3507
19389TIP3    H279659   4.503   0.413   4.583  0.0557 -0.3751 -0.3247
19390TIP3   OH279660   1.631   4.478  16.453 -0.4178 -0.1601  0.4097
19390TIP3    H179661   1.622   4.562  16.497 -1.2070 -0.8216  1.5449
19390TIP3    H279662   1.544   4.461  16.416  0.1231  0.1877 -1.0494
19391TIP3   OH279663   4.172   6.396   4.112  0.1365 -0.4498  0.4259
19391TIP3    H179664   4.115   6.366   4.041 -0.6395  1.7391  0.0746
19391TIP3    H279665   4.112   6.420   4.182  0.6880  0.5593  0.5678
19392TIP3   OH279666   2.751   1.287   3.187  0.2831 -0.3785  0.3337
19392TIP3    H179667   2.813   1.221   3.218 -0.6050 -0.4190  2.1007
19392TIP3    H279668   2.781   1.369   3.226 -0.1918 -0.2213  0.3774
19393TIP3   OH279669   2.131   2.749  13.173 -0.0635 -0.2803  0.2765
19393TIP3    H179670   2.097   2.669  13.133 -2.5725 -0.1719  2.0080
19393TIP3    H279671   2.195   2.783  13.111  0.1807 -2.9979 -1.0213
19394TIP3   OH279672   1.283   2.094  13.883 -0.1967  0.1096  0.6799
19394TIP3    H179673   1.190   2.089  13.861 -0.1604  0.1759  0.5077
19394TIP3    H279674   1.326   2.114  13.800 -0.0465  0.2607  0.7941
19395TIP3   OH279675   4.883   3.559   2.974  0.6660 -0.4579 -0.1385
19395TIP3    H179676   4.938   3.591   2.903  1.3965 -1.2644  0.0467
19395TIP3    H279677   4.940   3.561   3.051 -0.7721  2.5067  0.9170
19396TIP3   OH279678   1.938   6.286   5.576 -0.1738 -0.4239 -0.0915
19396TIP3    H179679   1.930   6.313   5.667  3.0785  0.4767 -0.0157
19396TIP3    H279680   1.913   6.364   5.525 -0.3468 -0.3931  0.0413
19397TIP3   OH279681   6.020   0.402  14.946 -0.6217  0.2757 -0.3798
19397TIP3    H179682   5.966   0.434  15.017  2.0084  0.7420  1.4939
19397TIP3    H279683   6.059   0.321  14.979  1.6794  1.1945 -0.6985
19398TIP3   OH279684   3.428   4.438   0.490  0.1534 -0.1805 -0.2380
19398TIP3    H179685   3.401   4.483   0.410  0.2969  1.6197  0.7087
19398TIP3    H279686   3.434   4.507   0.555  0.7481 -1.5336  1.1581
19399TIP3   OH279687   0.826   6.284   1.095 -0.4975  0.0092 -0.4733
19399TIP3    H179688   0.842   6.378   1.097 -0.2883  0.0153 -1.9555
19399TIP3    H279689   0.757   6.270   1.160 -1.9201  1.4767 -1.6174
19400TIP3   OH279690   6.573   3.704  11.860  0.2451  0.2444  0.3177
19400TIP3    H179691   6.515   3.631  11.839  1.0548 -0.2839 -0.0948
19400TIP3    H279692   6.656   3.663  11.886  0.3543  0.9869  1.1721
19401TIP3   OH279693   6.362   5.171   4.256  0.0849  0.4645 -0.6193
19401TIP3    H179694   6.384   5.263   4.273  2.9161 -0.7131  2.7383
19401TIP3    H279695   6.447   5.130   4.238 -0.6103 -2.2005  1.8751
19402TIP3   OH279696   2.428   1.342  15.862 -0.5907  0.1669  0.0014
19402TIP3    H179697   2.477   1.338  15.944 -0.5237 -1.1814 -0.0951
19402TIP3    H279698   2.364   1.413  15.875  0.8462  1.4059  0.4128
19403TIP3   OH279699   6.106   2.582   6.582 -0.9935  0.1593  0.2410
19403TIP3    H179700   6.027   2.630   6.557 -0.5275  0.7568 -0.1170
19403TIP3    H279701   6.158   2.646   6.631 -0.4843 -0.0625 -0.0096
19404TIP3   OH279702   2.108   2.751  14.382 -0.0193 -0.3927  0.2897
19404TIP3    H179703   2.088   2.704  14.301  0.0658 -0.3410  0.2388
19404TIP3    H279704   2.065   2.700  14.450  0.3266 -0.7123  0.2693
19405TIP3   OH279705   2.998   6.045  15.161 -0.1414  0.1575  0.0712
19405TIP3    H179706   2.906   6.021  15.178 -0.3002 -1.0582 -2.2227
19405TIP3    H279707   2.996   6.139  15.144 -1.0865  0.0100 -0.6750
19406TIP3   OH279708   3.664   2.126   5.964 -0.6475  0.0927 -0.6624
19406TIP3    H179709   3.577   2.125   6.004 -0.3972 -1.0569 -0.1055
19406TIP3    H279710   3.724   2.110   6.037 -0.0513 -0.1563 -1.1984
19407TIP3   OH279711   2.962   4.745  14.618 -0.0987 -0.2738  0.1790
19407TIP3    H179712   2.881   4.797  14.620 -1.1798 -1.9123 -0.2322
19407TIP3    H279713   2.937   4.663  14.576  1.7904 -0.8075  0.0600
19408TIP3   OH279714   3.079   1.892  14.199 -0.4760 -0.2725 -0.3637
19408TIP3    H179715   3.112   1.968  14.150 -0.0513  0.2712  0.7500
19408TIP3    H279716   2.992   1.919  14.227 -1.7868 -1.5619 -2.9776
19409TIP3   OH279717   3.648   4.537   3.092  0.5246  0.0836  0.5424
19409TIP3    H179718   3.584   4.501   3.153 -0.4188  2.7341  1.1994
19409TIP3    H279719   3.725   4.555   3.146 -0.4768  2.8742  1.1195
19410TIP3   OH279720   0.304   6.045   1.770  0.0517  0.0536  0.1545
19410TIP3    H179721   0.361   6.097   1.827  0.6024  0.4629 -0.7508
19410TIP3    H279722   0.311   5.956   1.804 -0.6438  0.5157  1.5173
19411TIP3   OH279723   2.538   6.804  13.142  0.0253 -0.5511  0.1663
19411TIP3    H179724   2.601   6.736  13.119  0.0039 -0.7274  0.6153
19411TIP3    H279725   2.551   6.873  13.078  0.2671 -0.8455 -0.0975
19412TIP3   OH279726   4.969   3.968  11.794  0.3049 -0.6164 -0.2881
19412TIP3    H179727   4.910   3.894  11.778 -0.1378  0.2298 -2.7126
19412TIP3    H279728   5.048   3.946  11.746  0.7231 -0.1807  0.1987
19413TIP3   OH279729   0.094   6.187   1.885  0.0746  0.7737 -0.4844
19413TIP3    H179730   0.083   6.245   1.810 -0.9099 -0.1934 -1.1027
19413TIP3    H279731   0.164   6.127   1.859  0.4314  1.0798 -0.2281
19414TIP3   OH279732   1.796   2.688   3.702 -0.6746  0.6178 -0.1914
19414TIP3    H179733   1.809   2.692   3.797 -0.4490 -0.5554 -0.1657
19414TIP3    H279734   1.710   2.648   3.692  0.2795 -1.4080 -0.5002
19415TIP3   OH279735   3.823   1.792   2.070 -0.4272  0.0512  0.5955
19415TIP3    H179736   3.827   1.696   2.074  1.5100  0.0129 -1.4298
19415TIP3    H279737   3.886   1.822   2.136 -0.0012 -0.0833  0.2496
19416TIP3   OH279738   1.806   5.777   4.724  0.4487  0.0380  0.4226
19416TIP3    H179739   1.807   5.782   4.629  2.8759  0.5317  0.4424
19416TIP3    H279740   1.809   5.683   4.743  0.2560 -0.0511  0.0239
19417TIP3   OH279741   5.865   4.358   0.014 -0.0430 -0.0408  0.2006
19417TIP3    H179742   5.847   4.270  -0.017 -1.4039 -0.3610  1.8081
19417TIP3    H279743   5.950   4.352   0.058 -0.7178 -0.8714  1.4282
19418TIP3   OH279744   2.272   2.223   0.575  0.2031 -0.3428 -0.4769
19418TIP3    H179745   2.359   2.209   0.538  1.5211 -0.4852  2.4960
19418TIP3    H279746   2.256   2.317   0.565  2.6232  0.4845  2.8153
19419TIP3   OH279747   0.474   0.352  11.480  0.1993  0.2484  1.0078
19419TIP3    H179748   0.445   0.356  11.389  2.0747  0.8346  0.4102
19419TIP3    H279749   0.552   0.407  11.483  1.3020 -1.3288  2.5386
19420TIP3   OH279750   2.405   4.920   3.048 -0.2548 -0.3863  0.2085
19420TIP3    H179751   2.364   4.834   3.039  0.1847 -0.4330 -1.4682
19420TIP3    H279752   2.340   4.982   3.016  0.3435 -0.3242 -0.9319
19421TIP3   OH279753   3.097   2.989  10.573  0.4294  0.8205  0.1476
19421TIP3    H179754   3.033   2.969  10.640 -0.7583  1.3005 -0.8254
19421TIP3    H279755   3.108   3.084  10.576  1.2539  0.7225  0.4503
19422TIP3   OH279756   5.559   5.680   4.730  0.3882  0.1585  0.5217
19422TIP3    H179757   5.566   5.585   4.735  1.3934  0.2039  0.1410
19422TIP3    H279758   5.647   5.711   4.752  0.4251  0.9560 -0.7155
19423TIP3   OH279759   2.800   2.319  15.672  0.0037  0.2148  0.3694
19423TIP3    H179760   2.886   2.285  15.696 -0.2317 -1.0200 -0.4887
19423TIP3    H279761   2.749   2.313  15.753  0.6363  0.6691  0.8017
19424TIP3   OH279762   0.126   3.762  14.316 -0.4870 -0.2305 -0.4586
19424TIP3    H179763   0.193   3.814  14.272  0.3676 -0.0410  1.0284
19424TIP3    H279764   0.060   3.745  14.249  1.0235 -0.3669 -1.9233
19425TIP3   OH279765   6.348   6.419   0.427 -0.5821 -0.1340  0.5670
19425TIP3    H179766   6.443   6.430   0.426 -0.6316  0.3251  0.7926
19425TIP3    H279767   6.315   6.483   0.364 -0.5596 -2.1955 -1.6216
19426TIP3   OH279768   1.163   1.894  11.723  0.1534 -0.2478 -0.2957
19426TIP3    H179769   1.100   1.821  11.720  0.9054 -0.9130 -0.1196
19426TIP3    H279770   1.161   1.930  11.634  0.6675 -1.2675 -0.7378
19427TIP3   OH279771   6.287   0.937   5.737  0.2235  0.1081 -0.1145
19427TIP3    H179772   6.342   1.007   5.771  1.1516 -0.7356  0.1340
19427TIP3    H279773   6.272   0.879   5.811  1.3432 -1.1478 -0.8264
19428TIP3   OH279774   3.766   6.054  12.833  0.7408  0.4957 -0.2291
19428TIP3    H179775   3.740   6.072  12.923  0.2497  0.6766 -0.4050
19428TIP3    H279776   3.722   6.122  12.781 -0.7735 -0.9162 -0.8482
19429TIP3   OH279777   5.147   3.852  17.183 -0.0654 -0.4794  0.1832
19429TIP3    H179778   5.084   3.901  17.130 -1.5788 -3.1591 -0.5865
19429TIP3    H279779   5.157   3.905  17.262 -0.8141  1.5965 -1.0718
19430TIP3   OH279780   2.802   3.673   5.559 -0.0825  0.4723  0.1036
19430TIP3    H179781   2.766   3.584   5.555 -1.2357  0.9883 -1.5447
19430TIP3    H279782   2.843   3.686   5.473 -0.2781  1.6743  0.1857
19431TIP3   OH279783   6.242   0.644  16.606  0.0178  0.5811  0.2017
19431TIP3    H179784   6.155   0.608  16.624 -0.0941  1.3035  1.1201
19431TIP3    H279785   6.256   0.708  16.675  0.3811  2.0318 -1.1982
19432TIP3   OH279786   1.673   2.496  14.891 -0.0585 -0.3900  0.3047
19432TIP3    H179787   1.593   2.443  14.896 -0.2777 -0.1072 -0.1356
19432TIP3    H279788   1.669   2.536  14.804 -0.3920  1.1318  1.0056
19433TIP3   OH279789   0.769   1.822   0.506 -0.4401  0.0267 -0.2158
19433TIP3    H179790   0.719   1.741   0.494  0.8373 -1.0715  1.5950
19433TIP3    H279791   0.829   1.824   0.431  0.8306 -1.7303  0.7010
19434TIP3   OH279792   4.421   2.148  10.710  0.0752  0.5896 -0.5263
19434TIP3    H179793   4.491   2.090  10.680 -0.1357 -0.4078  0.8143
19434TIP3    H279794   4.466   2.215  10.761  0.1242  0.3244 -0.2158
19435TIP3   OH279795   2.412   1.534   3.820  0.4536  0.2568  0.5807
19435TIP3    H179796   2.497   1.571   3.796  0.0439  0.3070 -0.8001
19435TIP3    H279797   2.356   1.610   3.837 -0.2180  0.3038 -1.6745
19436TIP3   OH279798   3.518   2.233   5.232  0.3508 -0.6663 -0.4946
19436TIP3    H179799   3.494   2.208   5.143  2.8307  0.4845 -1.5080
19436TIP3    H279800   3.611   2.252   5.228 -0.1606  2.6734  1.6242
19437TIP3   OH279801   5.263   6.359  15.076 -0.1441  0.1861  0.4495
19437TIP3    H179802   5.250   6.449  15.105  0.6568  0.7387 -0.8454
19437TIP3    H279803   5.348   6.334  15.112 -0.6866 -0.2911  1.3898
19438TIP3   OH279804   3.917   3.793   5.965 -0.1480 -0.0270  0.1898
19438TIP3    H179805   3.906   3.817   6.057  0.1846 -0.8870  0.4601
19438TIP3    H279806   3.872   3.709   5.956 -0.5156  0.2437 -0.5267
19439TIP3   OH279807   4.104   1.596   0.723  0.1150 -0.0612 -0.0752
19439TIP3    H179808   4.033   1.612   0.786  0.9730  0.0277  0.8777
19439TIP3    H279809   4.066   1.535   0.660 -1.9449  2.5860 -1.5212
19440TIP3   OH279810   6.277   1.735  13.703 -0.2322 -0.4569 -0.4447
19440TIP3    H179811   6.305   1.678  13.632 -0.7547  0.2030 -1.1987
19440TIP3    H279812   6.353   1.740  13.762  0.6078 -0.1157 -1.5357
19441TIP3   OH279813   4.753   5.562   2.379 -0.0734 -0.3912 -0.0410
19441TIP3    H179814   4.705   5.643   2.366 -1.2366 -1.3764 -2.0771
19441TIP3    H279815   4.838   5.577   2.337 -0.8500 -0.7383 -1.7700
19442TIP3   OH279816   1.767   0.768   3.790 -0.2938 -0.3035 -0.4056
19442TIP3    H179817   1.829   0.703   3.825 -1.3391 -0.6587  0.8432
19442TIP3    H279818   1.710   0.718   3.732 -1.2123 -0.5506  0.6968
19443TIP3   OH279819   1.598   4.340   4.442 -0.8697  0.2593 -0.3131
19443TIP3    H179820   1.639   4.381   4.519 -0.2636  1.0012 -1.0252
19443TIP3    H279821   1.567   4.255   4.474 -0.4530  0.4823  0.7088
19444TIP3   OH279822   4.679   1.402  11.296 -0.6302  0.0247 -0.4950
19444TIP3    H179823   4.691   1.422  11.203 -1.0264 -1.5425 -0.8905
19444TIP3    H279824   4.757   1.439  11.338  0.5727 -1.0651 -1.7156
19445TIP3   OH279825   0.881   5.893   4.564  0.5750 -0.0452  0.0506
19445TIP3    H179826   0.899   5.981   4.598  0.6732 -0.2208  0.4590
19445TIP3    H279827   0.843   5.846   4.638 -1.1568  0.1806 -0.6894
19446TIP3   OH279828   6.293   5.190   1.051 -0.0653 -0.7442  0.2122
19446TIP3    H179829   6.288   5.096   1.067  1.0252 -1.0902 -1.3407
19446TIP3    H279830   6.363   5.221   1.109 -0.2552 -0.9338  0.5403
19447TIP3   OH279831   5.205   2.734   5.240 -0.0302  0.6692 -0.6418
19447TIP3    H179832   5.291   2.765   5.212  1.0773 -1.2033  0.5339
19447TIP3    H279833   5.189   2.780   5.322  1.0408 -0.8117  0.4471
19448TIP3   OH279834   4.147   2.162  14.946 -0.5277 -0.3386 -0.5373
19448TIP3    H179835   4.054   2.181  14.960 -0.6196 -1.6921  0.7752
19448TIP3    H279836   4.158   2.071  14.974  1.0314 -0.4475 -1.4472
19449TIP3   OH279837   0.958   1.685  11.754  0.0996  0.1518 -0.8421
19449TIP3    H179838   0.931   1.703  11.664 -1.0329 -0.6413 -0.6771
19449TIP3    H279839   0.892   1.623  11.787 -1.3237  2.7952  1.5359
19450TIP3   OH279840   1.578   3.104   0.310 -0.5658 -0.0193 -0.7678
19450TIP3    H179841   1.567   3.143   0.223  0.0919  1.5183 -0.1821
19450TIP3    H279842   1.522   3.157   0.367  0.0971 -0.1155 -0.0165
19451TIP3   OH279843   0.081   5.437  15.633 -0.2744  0.2881  0.4101
19451TIP3    H179844   0.056   5.368  15.572  0.1054  0.6781 -0.1863
19451TIP3    H279845   0.011   5.437  15.699 -1.8724  1.3580 -1.2195
19452TIP3   OH279846   3.614   3.230  16.550  0.0137 -0.1336  0.5278
19452TIP3    H179847   3.566   3.202  16.628 -1.6358  1.0461 -0.0394
19452TIP3    H279848   3.607   3.156  16.490 -1.4164  0.1620  0.3198
19453TIP3   OH279849   5.854   5.626   1.732 -0.2184  0.6086  0.1761
19453TIP3    H179850   5.782   5.645   1.672  0.1907  1.4267 -0.0614
19453TIP3    H279851   5.836   5.538   1.763 -2.4276  1.5589  1.6925
19454TIP3   OH279852   3.495   1.266   1.268 -0.4865  0.0103 -0.5750
19454TIP3    H179853   3.494   1.196   1.202 -1.0068 -1.3982  0.8740
19454TIP3    H279854   3.474   1.346   1.220 -1.7709 -1.1285 -1.9526
19455TIP3   OH279855   2.947   4.873  16.131  0.6031  0.3175  0.1230
19455TIP3    H179856   2.936   4.788  16.088 -1.6668  0.4798  0.3265
19455TIP3    H279857   2.940   4.854  16.224 -0.0076  0.7447  0.1629
19456TIP3   OH279858   1.807   2.272  14.660 -0.6693  0.0754 -0.5048
19456TIP3    H179859   1.757   2.342  14.619 -0.4380  1.6937  1.9193
19456TIP3    H279860   1.764   2.256  14.743  0.8600 -0.8414  0.1353
19457TIP3   OH279861   2.790   3.528   4.753 -0.5934  0.1263  0.2906
19457TIP3    H179862   2.732   3.466   4.708 -1.7867  0.7618  0.9131
19457TIP3    H279863   2.818   3.481   4.832 -0.1417 -0.2402 -0.0884
19458TIP3   OH279864   5.158   5.828  15.442 -0.0038  0.0560  0.2796
19458TIP3    H179865   5.099   5.876  15.500 -0.2013 -0.1462  0.2455
19458TIP3    H279866   5.168   5.885  15.365  0.9361  0.7111  0.8798
19459TIP3   OH279867   2.172   6.222   5.441 -0.0314 -0.0187 -0.2974
19459TIP3    H179868   2.222   6.236   5.521 -1.3040  0.7907  0.3563
19459TIP3    H279869   2.086   6.257   5.459 -0.6301 -0.7123 -1.6931
19460TIP3   OH279870   1.505   5.966  14.770 -0.0529  0.4275 -0.0057
19460TIP3    H179871   1.582   5.911  14.759 -1.6282 -1.8466 -0.1914
19460TIP3    H279872   1.522   6.017  14.849  0.7391 -1.5993  1.1589
19461TIP3   OH279873   4.205   0.588   0.139 -0.0719  0.1593  0.1795
19461TIP3    H179874   4.219   0.677   0.171 -3.1631  1.0963 -0.8627
19461TIP3    H279875   4.121   0.562   0.176  0.6247 -2.2167  0.1872
19462TIP3   OH279876   1.143   6.545  11.032  0.1451  0.0792 -0.0113
19462TIP3    H179877   1.131   6.466  11.085  0.4674 -0.8831 -1.3552
19462TIP3    H279878   1.232   6.573  11.050  0.0065  0.1862  0.5233
19463TIP3   OH279879   3.888   1.179   3.486 -0.1258  0.4066 -0.1924
19463TIP3    H179880   3.880   1.267   3.448 -0.8147  0.5025  0.1809
19463TIP3    H279881   3.875   1.193   3.580 -0.2953 -0.1063 -0.1428
19464TIP3   OH279882   1.904   2.833   6.236  0.1871  0.2042  0.0344
19464TIP3    H179883   1.895   2.915   6.284  0.3421  0.5762 -0.5726
19464TIP3    H279884   1.980   2.790   6.275  1.2527  1.2134 -0.9048
19465TIP3   OH279885   1.021   1.339   5.040  0.1351  0.1073 -0.0870
19465TIP3    H179886   1.091   1.372   5.096  1.3021 -1.5910 -0.4878
19465TIP3    H279887   1.029   1.244   5.046 -1.2725 -0.0997 -1.2398
19466TIP3   OH279888   5.579   0.859  16.223  0.2413 -0.4473 -0.1498
19466TIP3    H179889   5.535   0.942  16.203 -1.4194 -1.4478 -0.8263
19466TIP3    H279890   5.665   0.884  16.255 -0.7048  1.5944  0.9265
19467TIP3   OH279891   3.190   5.122  14.830  0.5941  0.0876 -0.4246
19467TIP3    H179892   3.125   5.170  14.881 -0.2699 -0.3340 -1.1192
19467TIP3    H279893   3.274   5.150  14.866  0.0317  0.6449  0.4737
19468TIP3   OH279894   0.034   1.714  13.456 -0.2792  0.0806  0.3743
19468TIP3    H179895   0.058   1.788  13.511 -4.1420  1.6326  0.1271
19468TIP3    H279896  -0.020   1.659  13.512 -0.6462 -0.5320 -0.5780
19469TIP3   OH279897   2.756   5.180   3.932  0.6470 -0.1546 -0.2936
19469TIP3    H179898   2.815   5.200   3.859  0.1976  0.4259 -0.5048
19469TIP3    H279899   2.677   5.145   3.891  0.3640  0.2441 -0.0922
19470TIP3   OH279900   4.192   1.323  11.968  0.2780 -0.3935  0.1574
19470TIP3    H179901   4.227   1.394  11.914  0.7834 -1.3925 -0.8400
19470TIP3    H279902   4.097   1.334  11.965  0.3795  0.6151  0.5241
19471TIP3   OH279903   5.510   5.424  15.508 -0.0265  0.6732  0.2140
19471TIP3    H179904   5.592   5.391  15.471 -0.6052  0.5702 -1.0223
19471TIP3    H279905   5.454   5.346  15.515  0.3358  0.5595  2.0535
19472TIP3   OH279906   0.414   1.631  12.229  0.7009 -0.4636  0.1432
19472TIP3    H179907   0.442   1.688  12.157  0.0335  0.0298  0.2769
19472TIP3    H279908   0.319   1.625  12.220  0.7199 -1.2014  0.3933
19473TIP3   OH279909   3.577   2.965   4.474 -0.0579 -0.1590 -0.2051
19473TIP3    H179910   3.495   3.009   4.453 -0.4684 -0.4726  0.7285
19473TIP3    H279911   3.574   2.883   4.424  0.0311  0.1796 -0.7665
19474TIP3   OH279912   3.769   2.381  16.053  0.2851 -0.1625  0.1195
19474TIP3    H179913   3.757   2.358  16.145  1.9355 -1.1644  0.1012
19474TIP3    H279914   3.863   2.371  16.038  0.1567  0.9063 -1.4336
19475TIP3   OH279915   0.795   1.114  13.522  0.1927  0.8496 -0.0066
19475TIP3    H179916   0.794   1.117  13.426  0.4468 -0.1279 -0.0514
19475TIP3    H279917   0.885   1.088  13.543 -0.7895 -2.5088  0.3502
19476TIP3   OH279918   6.515   2.419  17.120  0.3368  0.3465 -0.5970
19476TIP3    H179919   6.421   2.435  17.126  0.1315 -1.5369  1.4099
19476TIP3    H279920   6.526   2.375  17.035 -0.2861  2.4480 -1.8121
19477TIP3   OH279921   2.637   3.555   2.638  0.9700  0.6217 -0.6098
19477TIP3    H179922   2.571   3.575   2.571 -0.1400 -0.0039  0.2789
19477TIP3    H279923   2.644   3.636   2.690 -0.6095  0.0481  0.5414
19478TIP3   OH279924   0.119   3.990   0.970 -0.1037  0.3971 -0.7256
19478TIP3    H179925   0.094   3.936   1.045 -0.3373  0.9786 -0.3837
19478TIP3    H279926   0.214   3.983   0.966  0.0722  1.7159  0.6584
19479TIP3   OH279927   2.584   0.854  14.615 -0.4179 -0.0451 -0.7855
19479TIP3    H179928   2.493   0.836  14.639 -0.7103 -0.8189 -2.3941
19479TIP3    H279929   2.627   0.769  14.617  0.0431  0.1810 -0.9694
19480TIP3   OH279930   1.344   6.537   4.203 -0.3576 -0.0991  0.0260
19480TIP3    H179931   1.386   6.460   4.242  0.3777  0.2715 -0.0291
19480TIP3    H279932   1.406   6.608   4.218 -1.5310  0.7372  1.1141
19481TIP3   OH279933   0.782   2.721   1.349  0.2336 -0.0268 -0.0708
19481TIP3    H179934   0.688   2.736   1.363  0.2779 -1.0775  1.5451
19481TIP3    H279935   0.825   2.797   1.388  0.0578  0.4839 -0.8647
19482TIP3   OH279936   6.359   5.631   1.191  0.3312 -0.3274 -0.2309
19482TIP3    H179937   6.401   5.699   1.243 -1.8577 -0.4277  1.7353
19482TIP3    H279938   6.432   5.577   1.160  1.7499  0.0969  2.1940
19483TIP3   OH279939   6.613   0.974  11.467 -0.1856 -0.1448 -0.1676
19483TIP3    H179940   6.662   1.025  11.403 -0.5173 -0.0484 -0.3402
19483TIP3    H279941   6.667   0.979  11.547 -0.4098  0.8011 -0.0679
19484TIP3   OH279942   5.302   4.564   1.323  0.2042  0.3621  0.2310
19484TIP3    H179943   5.345   4.627   1.264  1.1317  0.0727  0.5946
19484TIP3    H279944   5.310   4.603   1.410 -0.4831  0.4208  0.2674
19485TIP3   OH279945   4.283   0.477   3.991  0.0145  0.2317 -0.5489
19485TIP3    H179946   4.293   0.391   3.949  0.6879  0.0717 -0.0647
19485TIP3    H279947   4.361   0.486   4.045 -0.2436  0.9896 -0.3046
19486TIP3   OH279948   4.023   3.690  11.376 -0.3832 -0.0180 -0.3974
19486TIP3    H179949   3.968   3.614  11.360  1.4807 -1.7819  1.2175
19486TIP3    H279950   4.088   3.659  11.439  1.5362  2.4083 -1.1219
19487TIP3   OH279951   1.538   0.959  17.043  0.5026  0.0216 -0.2081
19487TIP3    H179952   1.493   0.953  17.128 -1.0794  0.8804 -0.9624
19487TIP3    H279953   1.626   0.925  17.060  0.5815  1.2655  2.0469
19488TIP3   OH279954   3.768   0.205  11.895 -0.0712 -0.1507 -0.4973
19488TIP3    H179955   3.851   0.167  11.865  0.9871  0.8851  1.0829
19488TIP3    H279956   3.706   0.132  11.893  0.8577 -0.9206 -1.7333
19489TIP3   OH279957   3.525   1.741   5.644  0.3122  0.1606  0.1290
19489TIP3    H179958   3.467   1.787   5.705 -0.1207 -2.3698  1.6715
19489TIP3    H279959   3.606   1.791   5.646 -0.1702  0.9205  1.7006
19490TIP3   OH279960   1.297   4.418   2.333 -0.2464  0.3363 -0.1467
19490TIP3    H179961   1.294   4.396   2.240  1.7996 -0.2501 -0.0838
19490TIP3    H279962   1.211   4.391   2.366 -1.0462  0.6897 -1.8743
19491TIP3   OH279963   5.411   1.521   1.013 -0.0974  0.3105  0.1337
19491TIP3    H179964   5.497   1.515   1.055 -0.1784 -0.7971  0.1633
19491TIP3    H279965   5.418   1.597   0.954  0.6637  0.6573  0.6660
19492TIP3   OH279966   3.008   1.588   3.585 -0.2392 -0.2332  0.2476
19492TIP3    H179967   2.944   1.519   3.604 -1.0821  0.6876  0.7518
19492TIP3    H279968   3.093   1.549   3.608 -0.5971 -1.5096 -0.5641
19493TIP3   OH279969   5.669   0.177   5.792 -0.3718 -0.0184 -0.1126
19493TIP3    H179970   5.638   0.246   5.850 -0.0123 -0.1778  0.2705
19493TIP3    H279971   5.671   0.098   5.847 -0.1601 -0.1965 -0.3752
19494TIP3   OH279972   1.799   0.386   6.117 -0.4434 -0.2693 -0.0402
19494TIP3    H179973   1.802   0.293   6.139  0.1546 -0.0556  0.7898
19494TIP3    H279974   1.762   0.428   6.194 -0.5094  0.2111 -0.3300
19495TIP3   OH279975   6.151   4.314  11.685  0.2428 -0.0286  0.2397
19495TIP3    H179976   6.145   4.347  11.595  1.2285 -0.4283  0.0237
19495TIP3    H279977   6.224   4.363  11.723  0.3757 -0.4746  0.5570
19496TIP3   OH279978   6.517   5.754  16.457 -0.5674 -0.6234 -0.9944
19496TIP3    H179979   6.517   5.747  16.553 -2.0330  2.0847 -0.7291
19496TIP3    H279980   6.430   5.726  16.431 -0.2922 -1.0045 -1.5062
19497TIP3   OH279981   3.901   2.432   4.266  0.2318 -0.6922  0.4894
19497TIP3    H179982   3.879   2.353   4.316 -2.3621  0.3747  1.1218
19497TIP3    H279983   3.901   2.502   4.331 -1.0833  0.3923 -0.6562
19498TIP3   OH279984   2.446   1.224   0.023  0.1512 -0.2247 -0.1330
19498TIP3    H179985   2.502   1.182  -0.042  1.1005  0.3491  0.3152
19498TIP3    H279986   2.357   1.215  -0.013  0.6040 -0.4512 -1.2044
19499TIP3   OH279987   6.801   3.052  15.258  0.2203 -0.1669  0.0864
19499TIP3    H179988   6.727   2.999  15.229  1.0469 -1.2282 -0.1461
19499TIP3    H279989   6.867   3.040  15.190  1.8773 -2.0002  1.9287
19500TIP3   OH279990   5.562   5.739  14.031  0.2661  0.7494  0.0464
19500TIP3    H179991   5.604   5.664  14.073 -1.1592  0.0701  0.2641
19500TIP3    H279992   5.627   5.809  14.038  2.0400 -0.7370 -1.1236
19501TIP3   OH279993   2.736   0.898  16.289  0.3235 -0.3842 -0.0719
19501TIP3    H179994   2.770   0.975  16.334 -0.8596 -0.9163  1.7900
19501TIP3    H279995   2.795   0.827  16.315  0.4584 -0.4365 -0.5037
19502TIP3   OH279996   5.084   4.064   5.309 -0.2880  0.1479  0.3566
19502TIP3    H179997   5.059   3.976   5.336  2.6042 -0.6188  0.6870
19502TIP3    H279998   5.123   4.103   5.387  0.7620  0.7866 -0.4753
19503TIP3   OH279999   2.145   1.896  13.958 -0.1345 -0.0176  0.1570
19503TIP3    H180000   2.167   1.858  13.872  0.9161  0.3931  0.2362
19503TIP3    H280001   2.070   1.846  13.987 -1.7381  1.1139 -1.8835
19504TIP3   OH280002   4.484   5.155   3.255 -0.0655 -0.0723 -0.2148
19504TIP3    H180003   4.415   5.094   3.281  1.3751 -1.7744 -0.2373
19504TIP3    H280004   4.546   5.152   3.327  0.9270 -0.0769 -1.0599
19505TIP3   OH280005   0.056   5.371  14.330 -0.0811  0.2498 -0.8163
19505TIP3    H180006   0.097   5.319  14.261  0.9139  1.7487 -1.3623
19505TIP3    H280007   0.018   5.305  14.389  1.4176 -1.1085 -1.3178
19506TIP3   OH280008   2.414   3.921  16.217 -0.0467  0.3128  0.1256
19506TIP3    H180009   2.401   4.011  16.247 -0.2025 -0.1902  1.6106
19506TIP3    H280010   2.396   3.868  16.294  0.7669 -0.9531 -0.5516
19507TIP3   OH280011   5.343   1.063  17.015 -0.1503 -0.2279 -0.0708
19507TIP3    H180012   5.398   1.003  17.066  0.8398  2.2143  1.8537
19507TIP3    H280013   5.378   1.058  16.926  3.3352  1.3240  1.1130
19508TIP3   OH280014   1.187   5.538   3.076  0.1998  0.3019  0.3278
19508TIP3    H180015   1.212   5.460   3.027 -0.9591  0.4582 -0.5287
19508TIP3    H280016   1.160   5.505   3.162 -3.6859 -0.6985 -1.1478
19509TIP3   OH280017   0.917   3.433   6.365  0.1351  0.2491  0.0322
19509TIP3    H180018   0.931   3.430   6.460 -1.7143 -0.9644  0.3005
19509TIP3    H280019   0.869   3.515   6.351 -0.9080 -0.2920  0.3598
19510TIP3   OH280020   3.677   6.141  16.860  0.0465 -0.4746 -0.1239
19510TIP3    H180021   3.723   6.146  16.944  1.0583  0.2846 -0.7043
19510TIP3    H280022   3.733   6.086  16.805 -0.3977 -0.6223 -0.4327
19511TIP3   OH280023   1.949   4.466  12.315  0.4889 -0.3500 -0.3302
19511TIP3    H180024   1.944   4.414  12.235  1.7945 -1.2813  0.1662
19511TIP3    H280025   1.898   4.417  12.379 -0.4689  0.3407 -0.5613
19512TIP3   OH280026   1.489   3.598  10.477  0.4164 -0.1006 -0.0984
19512TIP3    H180027   1.481   3.560  10.390  0.5821  0.8697 -0.5541
19512TIP3    H280028   1.448   3.684  10.469  3.1797  1.2849 -0.0912
19513TIP3   OH280029   3.938   1.893   2.293 -0.5260  0.5809 -0.5734
19513TIP3    H180030   3.868   1.889   2.358  1.3212  0.5567  1.4678
19513TIP3    H280031   3.984   1.974   2.313  1.6904 -0.7397 -0.0785
19514TIP3   OH280032   6.785   1.311   0.939 -0.0576  0.0787  0.6114
19514TIP3    H180033   6.787   1.394   0.985 -0.4852 -0.5329  1.7446
19514TIP3    H280034   6.709   1.265   0.974 -1.5532  0.3632 -2.0867
19515TIP3   OH280035   6.467   1.965   5.233 -0.1283 -0.4773 -0.0056
19515TIP3    H180036   6.529   2.011   5.290  0.4817 -1.2870 -0.0155
19515TIP3    H280037   6.383   1.973   5.279  0.2883 -0.7914  0.8186
19516TIP3   OH280038   6.581   6.761  12.207 -0.5697  0.2159 -0.0490
19516TIP3    H180039   6.529   6.717  12.275  1.2320 -1.6382  0.1465
19516TIP3    H280040   6.613   6.841  12.250 -1.0896  0.0710  0.6294
19517TIP3   OH280041   4.088   6.255   0.968 -0.4697 -0.5420  0.0811
19517TIP3    H180042   4.118   6.244   0.877 -1.3542  0.8977 -0.4022
19517TIP3    H280043   4.042   6.339   0.968  1.4290  0.5757  2.3601
19518TIP3   OH280044   4.165   2.264   6.102 -0.2964 -0.4128 -0.5616
19518TIP3    H180045   4.097   2.296   6.161  0.5655 -0.9578  0.7409
19518TIP3    H280046   4.236   2.235   6.160 -0.0037 -2.2775 -1.8086
19519TIP3   OH280047   2.836   6.502  11.034  0.7783  0.7893  0.6610
19519TIP3    H180048   2.784   6.574  10.999 -1.2365  0.3719  2.6846
19519TIP3    H280049   2.819   6.503  11.129 -0.6557 -3.3654  0.5786
19520TIP3   OH280050   4.103   5.227  14.889 -0.2224  0.1198 -0.3932
19520TIP3    H180051   4.194   5.254  14.902 -0.7236  0.4449  3.0141
19520TIP3    H280052   4.109   5.133  14.867  0.9051  0.0345  0.2363
19521TIP3   OH280053   2.220   1.423   3.315 -0.2871  1.2307  0.2428
19521TIP3    H180054   2.199   1.466   3.232  1.2128  1.3477 -0.0802
19521TIP3    H280055   2.223   1.330   3.294 -1.3771  1.1245  0.4938
19522TIP3   OH280056   0.093   0.026  12.873 -0.0204 -0.8381  0.1262
19522TIP3    H180057   0.085  -0.048  12.813  0.8398 -0.8815  0.0649
19522TIP3    H280058   0.134   0.095  12.821  1.0099 -0.9771  0.7297
19523TIP3   OH280059   4.994   2.846   1.532 -0.6775  0.4060  0.0446
19523TIP3    H180060   4.948   2.765   1.509 -0.7137 -0.3246  2.6411
19523TIP3    H280061   4.952   2.912   1.477 -2.1701 -0.9359 -0.4897
19524TIP3   OH280062   0.038   4.003  11.970 -0.7358 -0.1002 -0.1247
19524TIP3    H180063   0.046   3.973  12.061  3.1762  0.0206 -0.3543
19524TIP3    H280064   0.075   4.091  11.970 -0.9022 -0.0091 -1.7735
19525TIP3   OH280065   5.761   0.816  12.046  0.1576 -0.4884 -0.2066
19525TIP3    H180066   5.789   0.831  12.137 -1.6570 -1.2644  0.5076
19525TIP3    H280067   5.784   0.725  12.029  1.6394  0.0090 -0.9805
19526TIP3   OH280068   0.582   3.704  16.380 -0.4279 -0.3274  0.2664
19526TIP3    H180069   0.579   3.674  16.471 -1.5342  1.5553  0.8867
19526TIP3    H280070   0.622   3.791  16.385 -2.3099  0.6259 -0.7896
19527TIP3   OH280071   4.529   6.282  15.191 -0.2168  0.4999 -0.3351
19527TIP3    H180072   4.587   6.272  15.115 -1.4103 -0.2850 -1.1566
19527TIP3    H280073   4.569   6.352  15.242  2.4382 -1.2024  0.0029
19528TIP3   OH280074   5.110   5.091  15.356  0.2727  0.0636 -0.3246
19528TIP3    H180075   5.046   5.158  15.379 -1.3271 -0.6591 -2.4565
19528TIP3    H280076   5.181   5.138  15.312 -0.0965  0.5444 -0.4001
19529TIP3   OH280077   1.078   1.082   0.772  0.0719  0.1903 -0.4521
19529TIP3    H180078   0.999   1.047   0.731  0.7866  1.4739 -3.0162
19529TIP3    H280079   1.149   1.034   0.731  0.7624  0.9765 -0.1882
19530TIP3   OH280080   6.783   2.603  15.162 -0.2330  0.1832 -0.0335
19530TIP3    H180081   6.848   2.592  15.231  0.3185 -0.3974 -0.6379
19530TIP3    H280082   6.765   2.697  15.160  0.8618  0.3935 -0.1170
19531TIP3   OH280083   3.929   4.140  15.150 -0.1037  0.4578  0.3140
19531TIP3    H180084   3.883   4.058  15.170 -0.6945  0.8244  0.4880
19531TIP3    H280085   3.889   4.204  15.209 -0.6652  1.1822 -0.8406
19532TIP3   OH280086   4.974   2.728   4.253 -0.2455 -0.2167  0.5285
19532TIP3    H180087   5.010   2.640   4.253 -2.2897 -1.0796 -0.6367
19532TIP3    H280088   4.945   2.743   4.344 -0.0016 -0.7840  0.6973
19533TIP3   OH280089   1.249   6.413  13.970 -0.6318 -0.1998  0.4820
19533TIP3    H180090   1.223   6.327  14.002 -1.7702  0.0424  0.2368
19533TIP3    H280091   1.339   6.401  13.939 -0.6913 -1.2309  0.6821
19534TIP3   OH280092   6.677   5.489   6.488  0.3840  0.2480  0.0273
19534TIP3    H180093   6.656   5.463   6.398  3.3495 -2.4492  0.0171
19534TIP3    H280094   6.640   5.576   6.497 -0.9572  0.1245 -3.4382
19535TIP3   OH280095   6.528   2.908  14.307  0.5156  0.0527  0.3253
19535TIP3    H180096   6.602   2.967  14.291  1.5103 -1.0068  0.9320
19535TIP3    H280097   6.565   2.839  14.363 -0.7704 -0.8428  0.0726
19536TIP3   OH280098   4.014   0.620  12.022 -0.4069  0.4191  0.3060
19536TIP3    H180099   4.089   0.677  12.037 -0.1281 -0.2029  1.3637
19536TIP3    H280100   3.938   0.677  12.034 -0.1196  0.8499  0.1090
19537TIP3   OH280101   2.947   3.819   2.102 -0.0843  0.0729  0.7636
19537TIP3    H180102   2.957   3.847   2.011  0.8832  0.3991  0.9690
19537TIP3    H280103   3.031   3.838   2.143 -0.2845 -0.7124  1.5588
19538TIP3   OH280104   5.099   6.758  14.615  0.0684  0.3275 -0.6898
19538TIP3    H180105   5.043   6.730  14.542 -2.2961  1.4656  0.6192
19538TIP3    H280106   5.127   6.846  14.591  0.9302 -0.0555 -1.1173
19539TIP3   OH280107   6.215   3.494   1.512 -0.4386  0.0071  0.0815
19539TIP3    H180108   6.278   3.528   1.448  0.0281  0.4213  0.7529
19539TIP3    H280109   6.237   3.402   1.522  0.2015  0.2027  0.4751
19540TIP3   OH280110   6.004   5.157  17.060 -0.4092  0.4769 -0.1054
19540TIP3    H180111   6.008   5.250  17.083  0.7387  0.4897 -0.3539
19540TIP3    H280112   6.015   5.155  16.965  0.8886 -0.0084  0.0508
19541TIP3   OH280113   0.624   5.502   4.288 -0.4499  0.6895 -0.0950
19541TIP3    H180114   0.609   5.597   4.281 -1.1489  0.6262  0.4454
19541TIP3    H280115   0.719   5.493   4.291 -0.4054  1.4802  1.1425
19542TIP3   OH280116   6.575   3.044  14.904  0.4826 -0.2471 -0.1006
19542TIP3    H180117   6.626   2.972  14.942  1.0363 -1.1833 -2.4808
19542TIP3    H280118   6.626   3.122  14.923  1.6649 -0.9117 -0.4579
19543TIP3   OH280119   0.000   3.710   5.422 -0.5533 -0.8149 -0.4898
19543TIP3    H180120  -0.053   3.767   5.368  1.1207 -0.1275 -1.4461
19543TIP3    H280121  -0.045   3.625   5.420 -0.6006 -0.7528 -2.8299
19544TIP3   OH280122   3.544   4.638  15.445  0.8959 -0.2642 -0.0770
19544TIP3    H180123   3.462   4.593  15.427  0.4916  0.2088  0.5547
19544TIP3    H280124   3.578   4.663  15.359 -0.0294  0.2663 -0.2870
19545TIP3   OH280125   4.831   4.841  11.208 -0.1781 -0.0350  0.6835
19545TIP3    H180126   4.741   4.860  11.236  0.0302  0.6169  0.9080
19545TIP3    H280127   4.871   4.798  11.284 -0.4552 -0.8050  0.3993
19546TIP3   OH280128   0.725   5.449  11.257  0.4480  0.1861  0.1119
19546TIP3    H180129   0.762   5.435  11.170  2.0791 -0.0903  0.8258
19546TIP3    H280130   0.735   5.543  11.272 -1.3678  0.5232 -0.6548
19547TIP3   OH280131   2.104   3.054   0.194  0.2912  0.1831 -0.2849
19547TIP3    H180132   2.137   3.107   0.121  0.8401  0.8712  0.4693
19547TIP3    H280133   2.175   2.993   0.213  0.2378  0.1568 -0.1696
19548TIP3   OH280134   2.407   5.874   4.114  0.7488 -0.7410 -0.1017
19548TIP3    H180135   2.461   5.953   4.108 -0.5205  0.0505 -1.8058
19548TIP3    H280136   2.467   5.802   4.098  1.6784 -0.0301  0.1254
19549TIP3   OH280137   2.313   0.834  12.302  0.3146 -0.1036  0.2688
19549TIP3    H180138   2.359   0.753  12.280  1.7317  0.4282  1.2306
19549TIP3    H280139   2.317   0.839  12.397 -0.3340  0.7773  0.2588
19550TIP3   OH280140   3.666   5.362  12.580 -0.0392  0.3633  0.0016
19550TIP3    H180141   3.683   5.423  12.508 -0.1180  0.5734  0.1631
19550TIP3    H280142   3.754   5.337  12.610 -0.0021  0.0460 -0.3598
19551TIP3   OH280143   4.038   2.169   0.218 -0.4227 -0.1395 -1.1960
19551TIP3    H180144   4.022   2.088   0.267 -0.3081 -0.5787 -1.8843
19551TIP3    H280145   3.965   2.226   0.241  0.2493  0.1103  0.4379
19552TIP3   OH280146   3.588   0.267   4.513 -0.4409  0.8919  0.0957
19552TIP3    H180147   3.564   0.247   4.603 -1.7044 -0.4007 -0.4945
19552TIP3    H280148   3.552   0.193   4.462  0.6122  1.3855 -1.4002
19553TIP3   OH280149   4.254   3.013  13.499  0.1925 -0.3029 -0.0327
19553TIP3    H180150   4.271   3.099  13.539  0.0581  0.3488 -1.3319
19553TIP3    H280151   4.340   2.986  13.466  0.7890 -1.9255  2.7129
19554TIP3   OH280152   0.803   3.586  16.548 -0.1882 -0.3350 -0.2452
19554TIP3    H180153   0.744   3.511  16.540  0.4385 -0.7640 -0.8247
19554TIP3    H280154   0.849   3.590  16.464  3.2801 -2.2223  1.4830
19555TIP3   OH280155   3.061   3.754   4.099 -0.8065 -0.2568 -0.3307
19555TIP3    H180156   3.076   3.668   4.138  0.0438 -1.1161 -2.4394
19555TIP3    H280157   3.106   3.815   4.157 -0.5118 -1.3496  0.6162
19556TIP3   OH280158   4.428   2.907  12.859  0.1801 -0.4427  0.5955
19556TIP3    H180159   4.441   2.891  12.952  1.4616 -2.7831  0.0439
19556TIP3    H280160   4.495   2.972  12.836  0.0181 -0.0442  1.2418
19557TIP3   OH280161   4.707   2.720   3.168  0.0351 -0.3677  0.0990
19557TIP3    H180162   4.616   2.724   3.198  0.3939 -2.9202  1.7170
19557TIP3    H280163   4.746   2.801   3.200 -1.7285  0.8944 -0.8755
19558TIP3   OH280164   4.711   6.219  13.668 -0.1090 -0.6797 -0.3327
19558TIP3    H180165   4.688   6.279  13.739 -1.1480 -0.6197 -0.7099
19558TIP3    H280166   4.795   6.181  13.694 -0.0773 -0.0281  0.5216
19559TIP3   OH280167   0.469   2.081  16.489  0.1995 -0.3859 -0.6095
19559TIP3    H180168   0.497   1.994  16.515  0.5427 -0.3688 -0.9076
19559TIP3    H280169   0.383   2.093  16.530  0.5811 -0.4816  0.2269
19560TIP3   OH280170   1.319   4.663  17.092  0.9942  0.2553  0.0654
19560TIP3    H180171   1.298   4.599  17.160 -1.3364 -0.4213 -1.2349
19560TIP3    H280172   1.398   4.629  17.051  0.6373 -1.0052  0.3934
19561TIP3   OH280173   6.041   5.990  11.382 -0.4910  0.4166  0.9666
19561TIP3    H180174   6.008   6.060  11.439 -1.2711  0.1238  0.8798
19561TIP3    H280175   5.995   6.003  11.299 -0.4401 -0.0429  0.8673
19562TIP3   OH280176   5.819   2.149   0.431  0.2809 -0.0569 -0.0517
19562TIP3    H180177   5.844   2.232   0.390 -1.6063  0.1789 -0.7784
19562TIP3    H280178   5.742   2.121   0.382  0.5783 -1.9713  0.5529
19563TIP3   OH280179   1.296   2.138  16.889 -0.2481  0.0042  0.2782
19563TIP3    H180180   1.228   2.141  16.956 -0.6403  1.2694 -0.1667
19563TIP3    H280181   1.291   2.049  16.853 -2.4560  0.4409 -0.5582
19564TIP3   OH280182   1.398   3.053   2.087 -0.2590  0.0637 -0.0903
19564TIP3    H180183   1.461   3.001   2.137 -1.7343 -1.5336  0.1452
19564TIP3    H280184   1.374   2.998   2.013  1.0458  1.9703 -1.9915
19565TIP3   OH280185   3.828   1.707  13.379  0.0468 -0.1864  0.1410
19565TIP3    H180186   3.744   1.697  13.423  0.6030  1.8039  1.7003
19565TIP3    H280187   3.806   1.745  13.293 -0.8629 -2.3275 -0.5993
19566TIP3   OH280188   5.889   1.746  16.893  0.4977  0.7855  0.3841
19566TIP3    H180189   5.837   1.672  16.862  1.6574 -0.2404  0.8506
19566TIP3    H280190   5.979   1.713  16.895  0.7803  1.6394  2.3505
19567TIP3   OH280191   0.958   5.352   1.726  0.2763  0.2854  0.2651
19567TIP3    H180192   1.029   5.342   1.788  0.4283 -0.3835 -0.0142
19567TIP3    H280193   0.931   5.444   1.734 -1.0910 -0.2892  2.8138
19568TIP3   OH280194   2.183   6.006  16.036 -0.3190  0.3135  0.4793
19568TIP3    H180195   2.124   6.079  16.019 -0.1273  0.3087 -0.2395
19568TIP3    H280196   2.214   5.980  15.949  1.2364  0.7431  0.8746
19569TIP3   OH280197   2.088   2.601  13.651 -0.2180 -0.0818  0.2168
19569TIP3    H180198   1.998   2.584  13.680 -0.7987  0.8141 -0.9896
19569TIP3    H280199   2.087   2.693  13.625  1.1362  0.0079  0.4788
19570TIP3   OH280200   2.956   5.228   1.353 -0.1285  0.8405 -0.3737
19570TIP3    H180201   2.898   5.155   1.333 -1.9294  1.7715  1.2648
19570TIP3    H280202   2.898   5.301   1.370  1.5484  2.0078  0.5530
19571TIP3   OH280203   6.006   4.555  12.169  0.9019 -0.2214  0.4920
19571TIP3    H180204   5.913   4.565  12.190  0.8353 -0.2371  0.2067
19571TIP3    H280205   6.034   4.480  12.220  0.5126 -0.8380 -0.1898
19572TIP3   OH280206   2.050   3.146  12.407  0.2292  0.6121 -0.0271
19572TIP3    H180207   2.054   3.056  12.374  0.6665  0.5842  0.0942
19572TIP3    H280208   2.072   3.201  12.332  2.4692  0.4908  0.4867
19573TIP3   OH280209   2.250   3.009   3.970  0.2899 -0.2742 -0.1140
19573TIP3    H180210   2.251   3.037   4.062  0.1224 -1.3478  0.2171
19573TIP3    H280211   2.165   2.968   3.959 -0.0414  0.6293 -0.9953
19574TIP3   OH280212   3.327   5.325  12.400  0.2815  0.1324  0.8694
19574TIP3    H180213   3.289   5.405  12.364 -1.0629 -0.8768  0.0124
19574TIP3    H280214   3.328   5.340  12.494 -2.5573  0.0810  0.9561
19575TIP3   OH280215   3.599   2.795  14.528 -0.8399  0.1677  0.6629
19575TIP3    H180216   3.653   2.717  14.513  0.7576  1.1374  1.2007
19575TIP3    H280217   3.568   2.819  14.441 -1.3876 -1.0940  0.4948
19576TIP3   OH280218   3.610   5.943   4.119 -0.2882 -0.5784  0.9570
19576TIP3    H180219   3.668   5.869   4.105 -0.1963 -0.2250 -0.5973
19576TIP3    H280220   3.528   5.904   4.149 -1.0404 -1.5471 -2.1691
19577TIP3   OH280221   4.866   3.831   3.680 -0.1889 -0.3696  0.1300
19577TIP3    H180222   4.820   3.747   3.690 -0.5001 -0.1948  0.1555
19577TIP3    H280223   4.866   3.869   3.768 -0.8399  0.0743 -0.0673
19578TIP3   OH280224   3.116   6.034  13.090  0.0461  0.2800  0.1274
19578TIP3    H180225   3.117   5.983  13.009 -0.9675  0.1677  0.1781
19578TIP3    H280226   3.044   6.096  13.079  0.1550  0.5305  0.7774
19579TIP3   OH280227   5.411   2.115   3.912  0.6041 -0.1965 -0.3617
19579TIP3    H180228   5.318   2.105   3.933 -0.1726  1.1258 -3.0352
19579TIP3    H280229   5.454   2.048   3.964 -2.0539 -2.1492 -0.5784
19580TIP3   OH280230   3.966   5.248  16.365  0.1817 -0.0283 -0.1280
19580TIP3    H180231   3.968   5.153  16.374  1.5050  0.0861  0.7920
19580TIP3    H280232   3.872   5.269  16.358 -0.1040 -1.4103 -0.5490
19581TIP3   OH280233   4.335   5.149   5.960  0.0322 -0.0188 -0.3567
19581TIP3    H180234   4.345   5.173   6.052  2.0351  0.6789 -0.7268
19581TIP3    H280235   4.293   5.225   5.920 -0.2055 -0.0375 -0.1384
19582TIP3   OH280236   4.588   2.259   2.922 -0.5605 -0.3184 -0.3251
19582TIP3    H180237   4.566   2.329   2.860 -0.3196 -0.4095 -0.5112
19582TIP3    H280238   4.672   2.225   2.891 -1.1646 -1.3834 -0.8478
19583TIP3   OH280239   6.361   4.562  14.988 -0.3284 -0.2949  0.5321
19583TIP3    H180240   6.404   4.582  15.071 -2.8011  0.1797  1.7599
19583TIP3    H280241   6.413   4.492  14.950  2.0764  0.9294  1.4713
19584TIP3   OH280242   6.116   1.873   5.894  0.1306 -0.1788  0.6492
19584TIP3    H180243   6.051   1.941   5.914 -0.3312 -0.9672  1.8626
19584TIP3    H280244   6.067   1.808   5.843  0.9064  1.0384 -1.7183
19585TIP3   OH280245   6.426   4.394   0.231 -0.4597 -0.2740 -0.6692
19585TIP3    H180246   6.334   4.371   0.221 -0.3492 -1.4030  0.7271
19585TIP3    H280247   6.462   4.387   0.143 -1.9693  1.4282 -1.4501
19586TIP3   OH280248   0.834   2.237   3.408  0.2346  0.2934 -0.4140
19586TIP3    H180249   0.900   2.279   3.463 -0.1043 -2.3311  2.0774
19586TIP3    H280250   0.883   2.175   3.355  0.7028  3.4706 -3.9525
19587TIP3   OH280251   6.384   5.922   5.612  0.0528  0.2510  0.1058
19587TIP3    H180252   6.293   5.896   5.627 -0.0132  0.5989  0.3112
19587TIP3    H280253   6.431   5.840   5.598 -0.3910  0.1059 -0.5320
19588TIP3   OH280254   4.399   3.586  15.758  0.5703  0.3406  0.2651
19588TIP3    H180255   4.441   3.637  15.689 -0.5538  0.5613 -0.2701
19588TIP3    H280256   4.468   3.573  15.824  1.1608  1.6349 -0.0760
19589TIP3   OH280257   5.839   3.598   6.438 -0.2034  0.3064 -0.4636
19589TIP3    H180258   5.786   3.586   6.517 -0.6519 -0.2427 -0.8408
19589TIP3    H280259   5.920   3.551   6.457 -0.1385  0.5434 -0.1590
19590TIP3   OH280260   0.790   0.887  12.227 -0.1440 -0.1524  0.6038
19590TIP3    H180261   0.784   0.793  12.243 -1.6984 -0.2252 -0.2599
19590TIP3    H280262   0.705   0.910  12.189 -1.3706  2.3504  4.4899
19591TIP3   OH280263   5.581   6.808  14.865  1.0010 -0.0825 -0.5671
19591TIP3    H180264   5.537   6.848  14.790 -0.1293  3.6942  1.9584
19591TIP3    H280265   5.509   6.776  14.920  1.5128  1.9090  1.3449
19592TIP3   OH280266   6.171   2.948   4.681 -0.1603  0.2528  0.5448
19592TIP3    H180267   6.153   3.041   4.664  1.0561  0.9633  2.8383
19592TIP3    H280268   6.106   2.923   4.747  0.6606  0.0064  1.2718
19593TIP3   OH280269   4.570   1.974  13.712 -0.6407  0.0028  0.1435
19593TIP3    H180270   4.518   1.901  13.680  1.2289 -0.2044 -2.5872
19593TIP3    H280271   4.582   1.956  13.805 -1.1061 -2.5979 -0.2800
19594TIP3   OH280272   6.233   3.210  13.280 -0.0114 -0.2326  0.1386
19594TIP3    H180273   6.163   3.208  13.345  0.6519 -0.4195  0.8542
19594TIP3    H280274   6.211   3.285  13.224 -0.3751  0.1809  0.8235
19595TIP3   OH280275   5.474   0.021  16.411  0.1598 -0.4150  1.1041
19595TIP3    H180276   5.407   0.020  16.480 -0.3161 -1.6269  0.6328
19595TIP3    H280277   5.470   0.110  16.376 -0.3640 -0.1151  1.8928
19596TIP3   OH280278   4.069   1.217  16.892 -0.1326 -0.3468 -0.8484
19596TIP3    H180279   4.153   1.191  16.855 -0.2881 -1.2893 -0.5432
19596TIP3    H280280   4.086   1.226  16.986 -0.5050 -1.0996 -0.7061
19597TIP3   OH280281   6.016   4.002   3.132  0.0467  0.7747 -0.6451
19597TIP3    H180282   5.938   4.043   3.094 -0.5002  0.7028  0.3750
19597TIP3    H280283   6.000   3.908   3.122  0.0160  0.7604 -0.4623
19598TIP3   OH280284   0.460   4.631   2.306  0.2209  0.1675  0.6103
19598TIP3    H180285   0.450   4.629   2.401 -1.7797 -0.6632  0.3990
19598TIP3    H280286   0.533   4.572   2.288  0.8228  0.5891  1.6510
19599TIP3   OH280287   3.620   4.750   1.539 -0.0793 -0.4567  0.3724
19599TIP3    H180288   3.586   4.721   1.624 -1.4913 -1.9456 -0.6604
19599TIP3    H280289   3.704   4.705   1.530  0.2835  0.0556  1.1728
19600TIP3   OH280290   3.295   1.500  13.656  0.1701 -0.3196  0.0381
19600TIP3    H180291   3.309   1.571  13.593 -1.8376 -0.3277 -0.4722
19600TIP3    H280292   3.278   1.545  13.739 -0.2130 -0.2245 -0.0905
19601TIP3   OH280293   0.610   6.376   0.552  0.0963 -0.1023 -0.5041
19601TIP3    H180294   0.515   6.372   0.542  0.2034 -1.9148 -0.8834
19601TIP3    H280295   0.637   6.450   0.497 -1.1112  0.5519 -0.2261
19602TIP3   OH280296   0.772   0.263  16.061 -0.0494 -0.1854  0.3119
19602TIP3    H180297   0.726   0.275  16.144 -1.7983 -0.1924 -0.6284
19602TIP3    H280298   0.835   0.193  16.078  0.3809  0.5962  1.9381
19603TIP3   OH280299   5.417   3.894   1.781 -0.1497  0.1406 -0.5159
19603TIP3    H180300   5.425   3.832   1.708  1.8995  0.1788 -0.3581
19603TIP3    H280301   5.401   3.839   1.858  0.3505 -0.0954 -0.5796
19604TIP3   OH280302   5.328   1.129   6.027  0.1088  0.3684 -0.4443
19604TIP3    H180303   5.408   1.078   6.018 -0.9140 -1.0646 -1.9217
19604TIP3    H280304   5.300   1.115   6.117 -0.7823 -2.7319 -1.1380
19605TIP3   OH280305   0.658   6.226   0.836 -0.2445  0.2010  0.0695
19605TIP3    H180306   0.736   6.280   0.849  0.1517 -0.2868 -0.2724
19605TIP3    H280307   0.676   6.177   0.756 -0.2385 -1.0815  0.8444
19606TIP3   OH280308   1.073   1.109  12.835 -0.3517 -0.1103 -0.3301
19606TIP3    H180309   1.042   1.021  12.856  0.7793 -0.5136 -0.3190
19606TIP3    H280310   1.159   1.096  12.796  0.4721  1.0828  1.0324
19607TIP3   OH280311   6.639   5.278   3.683 -0.1466 -0.3864 -0.0286
19607TIP3    H180312   6.703   5.339   3.645  0.0926 -0.1763  0.7042
19607TIP3    H280313   6.635   5.206   3.621 -0.4551  0.3887 -0.9298
19608TIP3   OH280314   6.644   5.125   3.923 -0.2051  0.2150 -0.0715
19608TIP3    H180315   6.629   5.042   3.877  2.7902 -0.4328 -0.0016
19608TIP3    H280316   6.657   5.189   3.854  0.9659 -0.0940 -0.1490
19609TIP3   OH280317   2.132   4.624   0.791  0.0468 -0.3905  0.5139
19609TIP3    H180318   2.055   4.591   0.838  0.6509 -1.0541  1.0752
19609TIP3    H280319   2.206   4.590   0.842  0.7089 -0.1537 -0.2843
19610TIP3   OH280320   5.808   1.343  13.193  0.0075 -0.3943  0.1018
19610TIP3    H180321   5.884   1.391  13.161 -0.2042  0.6609  1.1240
19610TIP3    H280322   5.838   1.301  13.274 -0.5041  0.0682  0.5361
19611TIP3   OH280323   1.894   0.271   3.984  0.0399 -0.2598 -0.5050
19611TIP3    H180324   1.881   0.183   3.948  0.0430 -0.2323 -0.5730
19611TIP3    H280325   1.967   0.262   4.045  1.0811  0.0421 -1.7105
19612TIP3   OH280326   4.726   5.876   1.295  0.3054  0.4388 -0.1670
19612TIP3    H180327   4.738   5.948   1.233  2.1537 -0.2615 -0.6480
19612TIP3    H280328   4.644   5.834   1.266  0.7493  0.5822 -1.6720
19613TIP3   OH280329   3.844   5.082  11.081 -0.3485 -0.6295 -0.1797
19613TIP3    H180330   3.799   5.118  11.005 -0.9165 -0.5664  0.1868
19613TIP3    H280331   3.937   5.098  11.063 -0.4028 -1.5592 -1.3559
19614TIP3   OH280332   6.094   2.066   6.484 -0.0657 -0.2049  0.1936
19614TIP3    H180333   6.154   2.133   6.451 -0.4178  0.0776  0.1292
19614TIP3    H280334   6.006   2.101   6.468 -0.2444 -0.2542  1.0417
19615TIP3   OH280335   3.801   5.850  12.160 -0.3137  0.0049  0.0017
19615TIP3    H180336   3.799   5.771  12.105  0.4342 -1.3401  1.8389
19615TIP3    H280337   3.720   5.896  12.137 -0.6485 -1.1593 -1.2873
19616TIP3   OH280338   3.115   4.525   3.906 -0.3264  0.6253 -0.2156
19616TIP3    H180339   3.171   4.487   3.838  1.2575  0.3965  1.1740
19616TIP3    H280340   3.163   4.601   3.937  0.4441 -0.9389  2.6699
19617TIP3   OH280341   5.582   3.562   0.787 -0.3901 -0.2037 -0.0312
19617TIP3    H180342   5.540   3.646   0.768  0.0769 -0.3060 -1.5777
19617TIP3    H280343   5.618   3.573   0.876 -2.2835  0.4249  0.6791
19618TIP3   OH280344   4.320   1.185  14.829  0.0626 -0.1824  0.7903
19618TIP3    H180345   4.367   1.130  14.766  0.1463 -1.2962  1.8064
19618TIP3    H280346   4.319   1.272  14.789 -0.0782 -0.9227 -0.8486
19619TIP3   OH280347   2.658   5.717   2.228  0.1297 -0.2045  0.1420
19619TIP3    H180348   2.743   5.693   2.189 -0.0246  0.6881 -0.7656
19619TIP3    H280349   2.598   5.722   2.153 -0.6266 -0.3995  0.7324
19620TIP3   OH280350   1.290   5.918  12.910 -0.0680  0.0109 -0.3421
19620TIP3    H180351   1.324   5.915  12.821 -2.1694  0.1769 -1.1702
19620TIP3    H280352   1.225   5.989  12.908  0.4315  0.5515  1.5252
19621TIP3   OH280353   0.887   5.890   5.688 -0.2094  0.3665 -0.0806
19621TIP3    H180354   0.901   5.897   5.782  1.3965  0.1813 -0.2857
19621TIP3    H280355   0.879   5.980   5.658 -3.0386  0.3680  0.5278
19622TIP3   OH280356   6.338   4.049  17.224  0.1148 -0.3195  0.4780
19622TIP3    H180357   6.399   4.122  17.215  0.3585 -0.6030 -0.2454
19622TIP3    H280358   6.312   4.050  17.316 -1.2133  1.7632  0.1115
19623TIP3   OH280359   2.699   3.341   4.543  0.6363  0.5097 -0.2637
19623TIP3    H180360   2.645   3.369   4.469  0.4940  1.5900  0.2421
19623TIP3    H280361   2.777   3.303   4.503 -0.1753 -0.4106 -0.9909
19624TIP3   OH280362   1.631   0.154   3.806  0.1357  0.2909  0.5039
19624TIP3    H180363   1.601   0.073   3.766 -1.3875  0.9833  0.2404
19624TIP3    H280364   1.682   0.198   3.738  0.3597 -0.0924  0.4217
19625TIP3   OH280365   6.642   1.622   1.464  0.3255 -0.3825 -0.3604
19625TIP3    H180366   6.735   1.645   1.464 -0.0513  1.1937  0.9402
19625TIP3    H280367   6.640   1.532   1.497  1.1665  0.6211  2.6039
19626TIP3   OH280368   3.018   5.942  11.075  0.2394 -0.6914 -0.2152
19626TIP3    H180369   3.040   5.938  10.982 -0.7908  2.2475 -0.6145
19626TIP3    H280370   2.945   5.880  11.085  1.5610 -2.4157 -0.9576
19627TIP3   OH280371   2.823   4.385   2.956 -0.1986  0.2549  0.0270
19627TIP3    H180372   2.855   4.444   2.887 -1.1205 -0.3439 -0.9124
19627TIP3    H280373   2.883   4.311   2.953 -0.0779  0.3507  0.0457
19628TIP3   OH280374   0.083   5.703   0.424 -0.3010 -0.1751  0.3259
19628TIP3    H180375   0.161   5.654   0.398 -1.2409 -1.2501 -0.5259
19628TIP3    H280376   0.113   5.761   0.493  1.6471  0.6651 -1.1776
19629TIP3   OH280377   2.913   5.882   2.628  0.6417  0.0766 -0.2380
19629TIP3    H180378   2.836   5.827   2.611  0.2441  0.3631  0.5576
19629TIP3    H280379   2.878   5.954   2.681  1.4269  0.3172 -0.0507
19630TIP3   OH280380   1.429   5.026   2.222 -1.0992  0.1991  0.3447
19630TIP3    H180381   1.504   5.054   2.275 -0.9200  3.0158 -1.2980
19630TIP3    H280382   1.463   4.954   2.169  0.6293  1.7314 -0.6964
19631TIP3   OH280383   1.029   2.723   0.549 -0.3950 -0.1181  0.3331
19631TIP3    H180384   1.073   2.648   0.588  0.3797  0.0200 -0.2587
19631TIP3    H280385   1.089   2.796   0.563 -0.4873  0.0982 -0.3653
19632TIP3   OH280386   4.393   6.090  14.057 -0.0727  0.0453  0.0314
19632TIP3    H180387   4.435   6.012  14.092 -1.8812 -0.8943  0.1457
19632TIP3    H280388   4.416   6.160  14.119  0.6603 -0.6198  0.5144
19633TIP3   OH280389   4.616   4.773  15.056 -0.1208 -0.3765  0.3974
19633TIP3    H180390   4.702   4.794  15.091  0.9772 -1.0003 -1.8209
19633TIP3    H280391   4.632   4.700  14.996 -2.2156 -0.6094  0.0799
19634TIP3   OH280392   3.192   1.756  13.792 -0.0992 -0.3454  0.4742
19634TIP3    H180393   3.176   1.841  13.751 -0.8715  0.1734  1.8282
19634TIP3    H280394   3.287   1.754  13.808 -0.1403  0.3994  0.7810
19635TIP3   OH280395   2.477   3.631   4.176 -0.9230 -0.9368 -0.0299
19635TIP3    H180396   2.384   3.627   4.198 -1.1017  0.4564 -0.4905
19635TIP3    H280397   2.508   3.711   4.218 -0.8009  0.6692 -3.0239
19636TIP3   OH280398   4.157   2.683  14.875  0.2928 -0.2652  0.0906
19636TIP3    H180399   4.211   2.759  14.898  1.5710 -1.4386  1.0557
19636TIP3    H280400   4.220   2.613  14.857 -0.8346 -0.7432 -2.1046
19637TIP3   OH280401   5.418   2.714   4.893  0.4290  0.2409  0.1198
19637TIP3    H180402   5.405   2.631   4.939 -0.9084  0.6644  0.5193
19637TIP3    H280403   5.448   2.774   4.961 -0.3352  0.5441  0.1899
19638TIP3   OH280404   1.171   5.394  12.523 -0.4421  0.1268  0.0704
19638TIP3    H180405   1.161   5.313  12.474 -2.4232 -0.5192  1.4902
19638TIP3    H280406   1.200   5.367  12.610  0.3354  1.0514  0.1137
19639TIP3   OH280407   2.948   6.609   0.434  0.7167 -0.3412 -0.4714
19639TIP3    H180408   2.918   6.530   0.389 -2.2338 -1.1561  2.6602
19639TIP3    H280409   2.958   6.674   0.365 -1.4310 -2.1382 -2.5660
19640TIP3   OH280410   5.428   3.899   0.922  0.0281 -0.3137  0.1957
19640TIP3    H180411   5.509   3.884   0.872 -0.5604 -0.1165 -0.8299
19640TIP3    H280412   5.366   3.836   0.885 -0.6625  0.4386  0.0782
19641TIP3   OH280413   1.760   6.687   4.915 -0.7263  0.6915 -0.0774
19641TIP3    H180414   1.714   6.769   4.896 -2.0168 -0.3981 -1.8397
19641TIP3    H280415   1.713   6.650   4.990 -0.9876  0.9140 -0.1314
19642TIP3   OH280416   4.249   5.958   2.114  0.2023 -0.4172  0.2106
19642TIP3    H180417   4.173   5.935   2.060 -0.3195  0.5422  0.5210
19642TIP3    H280418   4.255   6.053   2.106 -0.2305 -0.1979  2.3108
19643TIP3   OH280419   6.720   6.817   2.553  0.0820 -0.9399 -0.3269
19643TIP3    H180420   6.767   6.734   2.551  2.3141  0.2658 -0.0124
19643TIP3    H280421   6.788   6.883   2.539 -1.7906  0.7889 -1.5134
19644TIP3   OH280422   1.707   2.017  17.079  0.0280  0.6623 -0.2730
19644TIP3    H180423   1.763   2.039  17.154  0.8418 -0.5865 -0.5103
19644TIP3    H280424   1.751   1.944  17.036 -1.0419  0.6091 -1.3059
19645TIP3   OH280425   6.119   1.285  15.826  0.0172 -0.0356  0.0499
19645TIP3    H180426   6.150   1.364  15.871 -0.5566  1.1276 -1.5587
19645TIP3    H280427   6.048   1.253  15.881  0.4025  0.4385  0.8452
19646TIP3   OH280428   0.057   3.528  15.676  0.7196  0.1166 -0.1101
19646TIP3    H180429  -0.029   3.489  15.664  0.3024  0.9816  0.0806
19646TIP3    H280430   0.103   3.466  15.734  0.6544 -0.9463 -1.1801
19647TIP3   OH280431   0.462   1.561  10.453 -0.4869 -0.5750  0.2043
19647TIP3    H180432   0.426   1.650  10.460  0.2972 -0.2454  0.1312
19647TIP3    H280433   0.411   1.510  10.515 -0.7980 -0.0239  0.4115
19648TIP3   OH280434   1.544   5.943  13.520  0.5587 -0.4002 -0.1256
19648TIP3    H180435   1.497   5.890  13.585 -0.2688 -0.5120 -0.8164
19648TIP3    H280436   1.611   5.989  13.571 -1.1187  0.7521  1.1025
19649TIP3   OH280437   3.949   3.251  14.218 -0.0734  0.3549  0.0890
19649TIP3    H180438   4.025   3.298  14.254  1.0174 -1.4900  0.2334
19649TIP3    H280439   3.985   3.198  14.148 -0.6333 -2.9704  2.2173
19650TIP3   OH280440   0.321   5.354   0.542  0.5075  0.1578 -0.3196
19650TIP3    H180441   0.299   5.296   0.615  1.7675  0.8706  0.6693
19650TIP3    H280442   0.275   5.318   0.467 -0.0221 -1.1703  0.6278
19651TIP3   OH280443   5.826   0.214  15.225 -0.1734  0.2585  0.6562
19651TIP3    H180444   5.809   0.307  15.236  0.2313  0.4580 -0.3164
19651TIP3    H280445   5.740   0.173  15.229 -0.4671  0.7940  0.0636
19652TIP3   OH280446   2.717   3.745   2.803 -0.3158  0.1373  0.1160
19652TIP3    H180447   2.715   3.773   2.895 -0.1560 -1.0118  0.4743
19652TIP3    H280448   2.791   3.792   2.766 -2.1424  2.9109 -0.1909
19653TIP3   OH280449   3.343   3.790  12.155 -0.1373  0.7282  0.0517
19653TIP3    H180450   3.398   3.785  12.077 -0.9058  1.0975 -0.5282
19653TIP3    H280451   3.255   3.768  12.123 -0.1913 -0.7547  1.1200
19654TIP3   OH280452   4.255   6.437   5.955 -0.7010  0.2360  0.3054
19654TIP3    H180453   4.249   6.413   6.048 -0.4163 -0.2448  0.1999
19654TIP3    H280454   4.348   6.458   5.942 -0.4182 -1.2737 -0.2532
19655TIP3   OH280455   0.074   0.838   3.763  0.4493 -0.4067  0.0873
19655TIP3    H180456   0.095   0.828   3.670 -1.0756 -0.8628 -0.2146
19655TIP3    H280457  -0.021   0.851   3.765  0.4155 -0.8355  1.6234
19656TIP3   OH280458   4.507   5.970   4.455 -0.4719  0.1105  0.3973
19656TIP3    H180459   4.482   6.053   4.496  0.7212 -0.4581  2.3477
19656TIP3    H280460   4.462   5.903   4.507  1.3031 -0.6441  0.9790
19657TIP3   OH280461   0.205   5.930  16.393 -0.4064 -0.1810 -0.0412
19657TIP3    H180462   0.246   5.917  16.479  0.2705  0.3518 -0.2832
19657TIP3    H280463   0.115   5.900  16.405 -0.4879  0.4725  1.0189
19658TIP3   OH280464   5.459   2.938   3.803 -0.4009  0.1442  0.4291
19658TIP3    H180465   5.531   3.001   3.803  0.4334 -0.7887 -0.2524
19658TIP3    H280466   5.419   2.947   3.889  0.8400  0.3362  1.0018
19659TIP3   OH280467   5.981   0.512   2.753 -0.7060 -0.5056  0.2885
19659TIP3    H180468   6.069   0.536   2.725 -0.6793 -2.1806 -1.1010
19659TIP3    H280469   5.985   0.418   2.769 -1.5371 -0.1476  2.9113
19660TIP3   OH280470   3.193   2.749  16.553 -0.4557 -0.1208  0.4030
19660TIP3    H180471   3.161   2.723  16.640  0.9293  2.2337  1.6767
19660TIP3    H280472   3.144   2.829  16.533 -0.8192 -0.6936 -1.0505
19661TIP3   OH280473   3.475   6.625   5.762 -0.2620 -0.6595 -0.5531
19661TIP3    H180474   3.442   6.704   5.719  0.0607 -0.5866 -0.6757
19661TIP3    H280475   3.428   6.621   5.845  0.7414  0.4550  0.0973
19662TIP3   OH280476   0.474   5.328  11.203  0.3193 -0.1218 -0.4272
19662TIP3    H180477   0.485   5.291  11.291  0.7410 -0.3093 -0.5566
19662TIP3    H280478   0.563   5.349  11.175  0.2246 -0.4445 -0.9799
19663TIP3   OH280479   4.397   4.232   5.631 -0.1195 -0.1790  0.2143
19663TIP3    H180480   4.386   4.293   5.558 -0.1453 -0.9867 -0.4626
19663TIP3    H280481   4.329   4.257   5.694  0.3320  0.9438  0.2622
19664TIP3   OH280482   6.514   5.683   5.115  0.7476 -0.3523  0.5044
19664TIP3    H180483   6.580   5.646   5.057  0.0624 -1.7997  0.6348
19664TIP3    H280484   6.530   5.778   5.112  1.9070 -0.5716 -0.5699
19665TIP3   OH280485   1.278   6.388  12.201 -0.3828  0.0698  0.4404
19665TIP3    H180486   1.361   6.399  12.247 -0.6062  2.2219  0.3710
19665TIP3    H280487   1.213   6.429  12.258 -1.2836 -0.8625  0.1054
19666TIP3   OH280488   4.054   4.653  15.510  0.2526  0.1384 -0.3359
19666TIP3    H180489   3.989   4.639  15.579 -1.0416 -0.6334 -1.6922
19666TIP3    H280490   4.133   4.612  15.544 -0.3456 -0.1557  0.7397
19667TIP3   OH280491   0.996   4.907  12.306 -0.1508  0.0748 -0.1809
19667TIP3    H180492   0.961   4.863  12.383  1.1691 -0.9797 -0.1674
19667TIP3    H280493   1.090   4.886  12.307  0.6887  3.5514  0.2703
19668TIP3   OH280494   5.562   3.532   5.302 -0.3600  0.5547 -0.4559
19668TIP3    H180495   5.529   3.622   5.295 -2.1528 -0.1153 -0.9237
19668TIP3    H280496   5.627   3.526   5.232 -2.0621  0.7554 -2.1233
19669TIP3   OH280497   2.106   1.165  11.591 -0.2512 -0.2875 -0.2797
19669TIP3    H180498   2.056   1.246  11.584 -2.1617 -1.4521 -0.4552
19669TIP3    H280499   2.156   1.174  11.673  2.2972  2.5078 -2.0609
19670TIP3   OH280500   4.793   5.477   0.943  0.5687  0.4718  0.4185
19670TIP3    H180501   4.744   5.500   1.021  2.0760  0.1019  1.5043
19670TIP3    H280502   4.744   5.405   0.903 -0.3745  0.8749  0.8521
19671TIP3   OH280503   4.092   4.130  11.189 -0.3881 -0.4144 -0.1042
19671TIP3    H180504   4.112   4.222  11.210  1.0124 -0.9495  0.9727
19671TIP3    H280505   4.128   4.117  11.101 -0.7288  0.0969 -0.3257
19672TIP3   OH280506   0.394   0.280   1.937  0.1379  0.1387 -0.0952
19672TIP3    H180507   0.388   0.372   1.960 -1.3907  0.3270 -1.2117
19672TIP3    H280508   0.487   0.266   1.917  0.2289  1.6476 -0.7914
19673TIP3   OH280509   6.054   4.552  16.399  0.2021  0.6250 -0.4514
19673TIP3    H180510   6.113   4.555  16.324 -0.5200  0.7262 -1.0209
19673TIP3    H280511   6.050   4.642  16.431  1.1002  0.4477  0.1777
19674TIP3   OH280512   3.059   5.981   0.887 -0.0282  0.8734 -0.0370
19674TIP3    H180513   3.143   6.025   0.875 -0.3706  1.8389  0.9484
19674TIP3    H280514   3.007   6.044   0.938 -1.0434 -0.0660  0.0964
19675TIP3   OH280515   2.915   3.790   2.425  0.3673 -0.1810  0.2565
19675TIP3    H180516   2.903   3.826   2.513  1.3502  0.4861  0.1264
19675TIP3    H280517   2.890   3.861   2.366  0.3567 -0.3962  0.0009
19676TIP3   OH280518   2.994   1.212   1.644 -1.0596 -0.8812  0.8566
19676TIP3    H180519   3.008   1.145   1.578  0.3154 -0.3463  0.6106
19676TIP3    H280520   2.923   1.266   1.609  0.3818  0.0491 -0.6938
19677TIP3   OH280521   4.020   4.402  11.665 -0.4901 -0.2515  0.3281
19677TIP3    H180522   3.967   4.435  11.592 -2.2422 -0.6139  1.3969
19677TIP3    H280523   4.069   4.329  11.629  1.2062  1.6473 -1.3200
19678TIP3   OH280524   4.153   3.199   4.523  0.1244 -0.0161 -0.0677
19678TIP3    H180525   4.172   3.166   4.611  0.9314 -0.8443 -0.5421
19678TIP3    H280526   4.070   3.158   4.499  0.7397 -1.1323 -0.3487
19679TIP3   OH280527   4.251   4.247   2.808  0.0752 -0.2243  0.0396
19679TIP3    H180528   4.195   4.235   2.885 -0.8596 -2.6427 -0.9876
19679TIP3    H280529   4.292   4.333   2.822 -1.4080  0.1525  2.3740
19680TIP3   OH280530   0.747   4.270  11.450 -0.1491 -0.7623 -0.0374
19680TIP3    H180531   0.706   4.348  11.487 -1.3298 -1.8339  0.9564
19680TIP3    H280532   0.841   4.288  11.453 -0.4114  0.5817  0.2444
19681TIP3   OH280533   3.239   4.986  14.110  0.0694 -0.5767  0.3442
19681TIP3    H180534   3.206   5.076  14.106 -2.6125 -1.4405  1.4133
19681TIP3    H280535   3.249   4.961  14.018  0.4563  0.6719  0.0289
19682TIP3   OH280536   2.254   5.961   0.352 -0.5625  0.1094  0.0492
19682TIP3    H180537   2.167   5.940   0.319 -0.6074  2.4761 -1.4213
19682TIP3    H280538   2.251   6.054   0.373  1.3004 -0.0010  0.9872
19683TIP3   OH280539   1.854   3.373  12.077  0.5579  0.4196  0.4234
19683TIP3    H180540   1.911   3.296  12.085  0.1003 -0.1814 -1.6111
19683TIP3    H280541   1.845   3.385  11.982 -2.3844  0.7320  0.7129
19684TIP3   OH280542   2.706   5.709   2.517 -1.0802 -0.6012 -0.2764
19684TIP3    H180543   2.709   5.615   2.536  1.0315 -0.5455 -0.2431
19684TIP3    H280544   2.657   5.714   2.434 -0.6760 -1.7828 -0.6019
19685TIP3   OH280545   5.276   3.293  16.540 -0.1869 -0.2877 -0.4492
19685TIP3    H180546   5.241   3.286  16.451 -0.3550  1.8292 -0.5708
19685TIP3    H280547   5.223   3.231  16.591 -0.5766 -0.9761 -1.6726
19686TIP3   OH280548   2.286   4.964  17.257 -0.4031  0.6189  0.4343
19686TIP3    H180549   2.373   4.992  17.287 -0.1516  0.6925 -0.3703
19686TIP3    H280550   2.260   4.897  17.320  1.5297 -1.5782 -1.0519
19687TIP3   OH280551   2.485   4.819   0.657  0.2128  0.1691  0.3918
19687TIP3    H180552   2.441   4.744   0.617  1.4106 -0.7658  0.8039
19687TIP3    H280553   2.530   4.783   0.733  0.1010  1.4633  1.0844
19688TIP3   OH280554   0.751   3.045  16.594  0.2213  0.0976  0.0874
19688TIP3    H180555   0.805   3.110  16.639 -0.1866  1.3093 -1.1382
19688TIP3    H280556   0.750   2.970  16.653  0.2571  1.3995  1.7860
19689TIP3   OH280557   5.177   0.847  16.295  0.1910 -0.1712  0.4884
19689TIP3    H180558   5.088   0.813  16.296  0.6861 -1.4956 -0.1970
19689TIP3    H280559   5.222   0.797  16.363  0.8678 -0.7731 -0.3907
19690TIP3   OH280560   0.842   1.366  13.711  0.1428  0.0696  0.5616
19690TIP3    H180561   0.850   1.437  13.775 -0.8146 -0.2725  1.0706
19690TIP3    H280562   0.860   1.286  13.761 -2.2633 -0.3553  0.8174
19691TIP3   OH280563   5.717   5.919  15.291 -0.3662  0.2092 -0.4844
19691TIP3    H180564   5.758   5.856  15.350  1.6045  1.6338 -0.2597
19691TIP3    H280565   5.750   5.895  15.204 -2.9788 -1.6638 -0.9871
19692TIP3   OH280566   3.312   3.560   3.793  0.4013 -0.2288 -0.7180
19692TIP3    H180567   3.346   3.551   3.883  0.9004 -3.2725 -1.1413
19692TIP3    H280568   3.224   3.595   3.804 -0.6446 -3.2657  1.2248
19693TIP3   OH280569   5.145   1.503   1.448  0.3331  0.0419  0.4340
19693TIP3    H180570   5.080   1.561   1.408  2.2056  0.5701 -2.0017
19693TIP3    H280571   5.108   1.415   1.439 -0.8860  0.5091  0.8163
19694TIP3   OH280572   2.663   5.284  11.054 -0.0765  0.1808 -0.6829
19694TIP3    H180573   2.745   5.236  11.057 -0.3618 -0.3759 -1.4045
19694TIP3    H280574   2.633   5.274  10.963 -1.0584  0.1564 -0.3676
19695TIP3   OH280575   0.695   3.772  14.764 -0.3652  0.6298 -0.3600
19695TIP3    H180576   0.695   3.726  14.680 -0.5087 -0.9226  0.4714
19695TIP3    H280577   0.602   3.779  14.787 -0.2207 -1.4500  0.9869
19696TIP3   OH280578   6.179   6.501   3.516 -0.1766  0.2407  0.5735
19696TIP3    H180579   6.218   6.577   3.559 -0.3298  0.3425  0.5304
19696TIP3    H280580   6.088   6.501   3.545 -0.5359  0.8787 -0.5453
19697TIP3   OH280581   6.057   4.789   2.340 -0.0235  0.2203 -0.1400
19697TIP3    H180582   6.037   4.708   2.388 -0.0220  0.3157  0.0197
19697TIP3    H280583   5.988   4.850   2.367 -0.1037  0.2314 -0.3642
19698TIP3   OH280584   0.249   4.881   1.938  0.3152 -0.1123 -0.9249
19698TIP3    H180585   0.330   4.856   1.983  0.6767  2.2075 -0.2199
19698TIP3    H280586   0.279   4.929   1.861 -0.3704 -0.2771 -1.2907
19699TIP3   OH280587   4.554   0.993   1.774 -0.2661 -0.2992 -0.1521
19699TIP3    H180588   4.642   0.957   1.776 -0.2297 -0.2332 -0.6377
19699TIP3    H280589   4.496   0.917   1.768 -0.1984 -0.2861 -0.9414
19700TIP3   OH280590   1.695   6.817   1.013 -0.4530 -0.2892  0.8964
19700TIP3    H180591   1.770   6.777   0.968  1.2564  1.6302  1.9451
19700TIP3    H280592   1.628   6.749   1.013  1.7936 -2.5934  1.1986
19701TIP3   OH280593   1.509   4.185  13.010 -0.5728 -0.1107  0.1051
19701TIP3    H180594   1.431   4.187  13.066  0.2387 -0.6855  1.2776
19701TIP3    H280595   1.498   4.106  12.957 -0.2266 -0.8385  1.1019
19702TIP3   OH280596   2.144   5.822  11.596  0.3595 -0.4280 -0.2309
19702TIP3    H180597   2.127   5.761  11.524 -0.0656  0.0806 -0.5732
19702TIP3    H280598   2.074   5.804  11.659  0.7065 -0.8443  0.0358
19703TIP3   OH280599   3.194   2.495  14.664  0.0042  0.2102 -0.0962
19703TIP3    H180600   3.203   2.495  14.759 -0.2015  0.2813 -0.0752
19703TIP3    H280601   3.258   2.431  14.633 -1.5846 -1.6169  0.2587
19704TIP3   OH280602   1.795   5.743  13.059  0.2879  0.0770 -0.5750
19704TIP3    H180603   1.889   5.748  13.042  0.3640  3.2581  0.4769
19704TIP3    H280604   1.755   5.744  12.972  1.1606  0.5803 -0.9811
19705TIP3   OH280605   5.015   3.923   5.698  0.4075 -0.1907  0.1038
19705TIP3    H180606   4.992   3.986   5.767  0.6988 -0.2708  0.2749
19705TIP3    H280607   4.949   3.938   5.630  1.6765  1.7334 -0.7647
19706TIP3   OH280608   1.778   1.752  10.622  0.2951  0.1012 -0.3129
19706TIP3    H180609   1.714   1.681  10.614 -1.2511  1.1644  1.8093
19706TIP3    H280610   1.739   1.825  10.574 -0.1174  0.7572  0.9955
19707TIP3   OH280611   0.098   1.614   0.374 -0.3484 -0.3507  0.3407
19707TIP3    H180612   0.112   1.700   0.333  0.6884 -1.1648 -1.0346
19707TIP3    H280613   0.185   1.575   0.379 -0.6420 -0.8486  2.0897
19708TIP3   OH280614   4.751   3.890   0.671 -0.2866  0.3577  0.3389
19708TIP3    H180615   4.796   3.974   0.673  0.7318 -0.1833  0.7505
19708TIP3    H280616   4.661   3.910   0.695  0.2377  1.1650  1.6854
19709TIP3   OH280617   4.712   6.352  13.440 -0.5035  0.2431 -0.4145
19709TIP3    H180618   4.680   6.286  13.500 -3.1594 -0.3021 -2.3405
19709TIP3    H280619   4.645   6.421  13.441 -0.5867  0.2407 -2.6665
19710TIP3   OH280620   5.819   3.933   5.849  0.0663 -0.2642 -0.3171
19710TIP3    H180621   5.794   3.912   5.759  1.1064 -0.2655 -0.6130
19710TIP3    H280622   5.906   3.972   5.841 -0.5467  1.3085  0.5201
19711TIP3   OH280623   3.584   4.411   4.026 -0.4521  0.3586  0.4825
19711TIP3    H180624   3.631   4.392   3.945  1.4281  1.5521  1.2397
19711TIP3    H280625   3.530   4.334   4.041  0.8770 -0.8508 -0.7421
19712TIP3   OH280626   1.113   3.000   3.929 -0.1814  0.0808 -0.1319
19712TIP3    H180627   1.040   2.960   3.881 -0.2270  1.8606 -1.5845
19712TIP3    H280628   1.191   2.958   3.893 -0.2711  0.8201 -1.2358
19713TIP3   OH280629   2.643   6.500  16.519 -0.4080 -0.1912  0.5779
19713TIP3    H180630   2.728   6.518  16.559 -0.3787  1.4598 -0.1691
19713TIP3    H280631   2.580   6.518  16.589 -0.2574  0.9687  0.4353
19714TIP3   OH280632   0.770   4.436  15.288 -0.0107 -0.4366 -0.4473
19714TIP3    H180633   0.713   4.512  15.285 -1.0426 -1.2785 -2.8689
19714TIP3    H280634   0.837   4.453  15.223  0.9462 -0.7014  0.4484
19715TIP3   OH280635   1.497   3.944  12.863 -0.2279 -0.5168 -0.0291
19715TIP3    H180636   1.489   3.908  12.775  0.4650  1.0114 -0.7279
19715TIP3    H280637   1.575   3.901  12.900 -0.6540 -1.3305 -0.0550
19716TIP3   OH280638   1.786   5.712  14.258  0.1776 -0.7846 -0.6293
19716TIP3    H180639   1.766   5.751  14.173  0.9023 -0.3056 -0.5927
19716TIP3    H280640   1.862   5.762  14.289  0.5577 -1.6443 -0.1717
19717TIP3   OH280641   0.561   3.596  13.264  0.4547 -0.6512  0.1096
19717TIP3    H180642   0.482   3.644  13.288 -0.2074 -0.7361 -1.8263
19717TIP3    H280643   0.593   3.558  13.347 -0.6379  0.6801  1.1577
19718TIP3   OH280644   2.553   1.026   1.458  0.2243  0.8791 -0.0215
19718TIP3    H180645   2.597   0.945   1.482  0.3175  1.0005  0.2216
19718TIP3    H280646   2.489   1.040   1.528  2.1851  2.5442  1.5339
19719TIP3   OH280647   5.526   6.695   0.411 -0.5347 -0.3921 -0.2119
19719TIP3    H180648   5.556   6.624   0.468 -0.4485 -0.4020 -0.2699
19719TIP3    H280649   5.547   6.775   0.459 -0.1929 -0.3920 -0.3589
19720TIP3   OH280650   4.644   3.084   5.116 -0.3575 -0.4918 -0.0702
19720TIP3    H180651   4.582   3.140   5.163  0.4703  1.0183 -0.7703
19720TIP3    H280652   4.645   3.118   5.027  0.5617 -1.2811 -0.3694
19721TIP3   OH280653   6.645   1.945  12.002 -0.0577 -0.8078 -0.3495
19721TIP3    H180654   6.556   1.964  12.033  0.8217  0.1509  1.7027
19721TIP3    H280655   6.677   2.029  11.970  0.2539 -1.0509 -0.6741
19722TIP3   OH280656   2.099   5.724   6.214  0.1145 -0.9501  0.2288
19722TIP3    H180657   2.173   5.777   6.244  0.7248 -1.2336 -0.7598
19722TIP3    H280658   2.022   5.770   6.248  0.6508  0.3484 -0.2512
19723TIP3   OH280659   2.975   2.722  15.675 -0.5612  0.5491 -0.2063
19723TIP3    H180660   2.944   2.797  15.624  0.3730  1.7620  0.9744
19723TIP3    H280661   2.901   2.697  15.730 -0.5561  1.2490  0.1192
19724TIP3   OH280662   6.517   3.566  17.106  0.2362  0.1616 -0.0175
19724TIP3    H180663   6.540   3.646  17.153  0.0658  0.0230  0.3068
19724TIP3    H280664   6.451   3.593  17.042  0.0096  0.2408  0.2466
19725TIP3   OH280665   4.902   3.485  11.855 -0.4713 -0.5006 -0.7170
19725TIP3    H180666   4.985   3.439  11.859  0.4628  0.8205 -3.6220
19725TIP3    H280667   4.884   3.511  11.946  2.2350 -0.8633 -0.0499
19726TIP3   OH280668   2.747   0.648  16.973  0.2123 -0.6768  0.2165
19726TIP3    H180669   2.684   0.579  16.953 -1.7854  0.7504  1.4422
19726TIP3    H280670   2.732   0.714  16.905  0.6324 -0.5016  0.2912
19727TIP3   OH280671   3.633   5.230  12.128 -0.2036  0.4501 -0.0416
19727TIP3    H180672   3.571   5.299  12.105  0.8140  1.7264  0.8914
19727TIP3    H280673   3.625   5.222  12.223  1.3788  0.9709  0.1485
19728TIP3   OH280674   2.975   2.565   2.247 -0.0069 -0.6175 -0.5896
19728TIP3    H180675   2.909   2.509   2.287 -0.2093  0.1622  0.1736
19728TIP3    H280676   2.945   2.654   2.265  0.5806 -0.2608 -1.3494
19729TIP3   OH280677   4.855   5.396   0.355  0.0977  0.3790 -0.0979
19729TIP3    H180678   4.818   5.385   0.443  0.1120  2.5854  0.2108
19729TIP3    H280679   4.888   5.309   0.332  0.1551 -0.2128  2.1044
19730TIP3   OH280680   5.530   6.661  11.475 -0.2252 -0.6739 -0.2405
19730TIP3    H180681   5.616   6.620  11.477 -0.3530 -0.9192  0.6062
19730TIP3    H280682   5.540   6.736  11.416  0.6567 -0.5191  0.0954
19731TIP3   OH280683   1.834   2.969  14.881 -1.2230 -0.5638 -0.4681
19731TIP3    H180684   1.797   2.997  14.798  1.1193 -0.6623 -1.5791
19731TIP3    H280685   1.822   2.874  14.882 -2.6736 -0.3878  0.0427
19732TIP3   OH280686   5.597   5.302   2.481 -0.0828 -0.2283  0.0785
19732TIP3    H180687   5.684   5.266   2.495  0.7819  0.8598 -2.2065
19732TIP3    H280688   5.588   5.373   2.545  1.9401  1.6502 -1.6421
19733TIP3   OH280689   5.807   0.385  15.736  0.5967 -0.4978 -0.3589
19733TIP3    H180690   5.879   0.439  15.703 -1.6543  1.9424 -1.4306
19733TIP3    H280691   5.777   0.336  15.659  0.6854 -1.0449 -0.0497
19734TIP3   OH280692   2.137   4.014   2.265 -0.2257  0.5063  0.0191
19734TIP3    H180693   2.100   4.068   2.334  0.8804  0.3735  0.7457
19734TIP3    H280694   2.145   3.927   2.305 -2.3664 -0.3102 -1.2667
19735TIP3   OH280695   2.063   3.489  14.739 -0.4055  0.5907 -0.3473
19735TIP3    H180696   2.091   3.496  14.831  1.3328 -1.8868 -0.6511
19735TIP3    H280697   1.971   3.465  14.744 -0.2517  0.1951  0.7639
19736TIP3   OH280698   4.048   0.375  12.160 -0.1333 -0.8477 -0.4411
19736TIP3    H180699   4.065   0.449  12.102  0.6823 -1.2761 -0.7631
19736TIP3    H280700   4.126   0.371  12.216 -0.7683 -0.6394  0.4620
19737TIP3   OH280701   6.688   2.209  14.512  0.2709  0.1339 -0.1980
19737TIP3    H180702   6.726   2.242  14.593  2.9063 -3.8925  0.3410
19737TIP3    H280703   6.627   2.278  14.484  2.6821  3.6246  2.7358
19738TIP3   OH280704   1.968   1.481   0.786  0.1601 -0.3778 -0.4587
19738TIP3    H180705   1.968   1.423   0.711  0.1160  1.3867 -1.8622
19738TIP3    H280706   1.982   1.568   0.749 -0.9581  0.6527  1.4584
19739TIP3   OH280707   0.760   0.398  11.028  0.2436 -0.6147 -0.3680
19739TIP3    H180708   0.816   0.322  11.015  1.0418  0.0624 -0.9594
19739TIP3    H280709   0.679   0.377  10.982  0.2302 -1.3587 -0.0011
19740TIP3   OH280710   5.152   5.625   4.891 -1.0424  0.1247  0.1990
19740TIP3    H180711   5.218   5.556   4.898  0.0902  1.0395 -1.0654
19740TIP3    H280712   5.184   5.680   4.820 -2.1605  1.7058  0.9090
19741TIP3   OH280713   2.494   2.480   0.263 -0.1281  0.3442 -0.3010
19741TIP3    H180714   2.540   2.555   0.299  0.5769 -0.5681  0.7148
19741TIP3    H280715   2.558   2.409   0.264 -1.5939 -1.0065  1.3774
19742TIP3   OH280716   2.390   0.281   0.906  0.0949  0.3169 -0.6107
19742TIP3    H180717   2.436   0.341   0.965  1.6784  0.6516 -2.1595
19742TIP3    H280718   2.436   0.288   0.823 -2.0791 -0.2026 -1.9057
19743TIP3   OH280719   5.585   2.424   5.937 -0.3119  0.5368 -1.1248
19743TIP3    H180720   5.619   2.383   6.016 -1.1333 -1.5109 -1.7988
19743TIP3    H280721   5.620   2.513   5.939  1.6581 -0.2403  0.2856
19744TIP3   OH280722   3.180   0.513   4.626 -0.0991  0.1905  0.2426
19744TIP3    H180723   3.176   0.540   4.535  1.8314 -2.5822 -0.7125
19744TIP3    H280724   3.266   0.541   4.656 -0.6396  0.8939  1.1675
19745TIP3   OH280725   2.506   4.003   5.443 -0.1501  0.3761 -0.1683
19745TIP3    H180726   2.551   3.953   5.511 -0.8799 -1.4473 -0.9819
19745TIP3    H280727   2.576   4.042   5.391  0.4092  2.0654  1.8064
19746TIP3   OH280728   1.811   2.886   1.586 -0.5796 -0.0064 -0.1933
19746TIP3    H180729   1.731   2.938   1.591 -0.0491  0.5935  2.3875
19746TIP3    H280730   1.809   2.830   1.663  0.5470 -1.4165 -1.1511
19747TIP3   OH280731   1.086   3.245   3.694  0.3105  0.2497 -0.2290
19747TIP3    H180732   1.125   3.214   3.612 -0.5752  0.5197 -0.7612
19747TIP3    H280733   1.040   3.168   3.728  1.4007 -0.1047  0.4646
19748TIP3   OH280734   5.227   2.803  16.349  0.2318  0.1465 -0.2301
19748TIP3    H180735   5.285   2.756  16.409 -0.5499  0.7010  0.9793
19748TIP3    H280736   5.286   2.858  16.298  0.8205  0.3762  0.6795
19749TIP3   OH280737   0.172   5.841   0.635 -0.0941  0.0268 -0.3082
19749TIP3    H180738   0.140   5.919   0.681 -1.1409  0.3172 -1.4900
19749TIP3    H280739   0.216   5.790   0.702  0.3849  1.5228  0.5478
19750TIP3   OH280740   6.577   3.243  16.516  0.1338  0.5416 -0.7367
19750TIP3    H180741   6.484   3.223  16.505  0.1361  0.7971 -1.2133
19750TIP3    H280742   6.619   3.206  16.438  0.6700 -1.1467  0.3323
19751TIP3   OH280743   1.124   2.931  15.347  0.0004  0.2166  0.0376
19751TIP3    H180744   1.105   2.893  15.261  0.4587 -1.0695  0.4956
19751TIP3    H280745   1.218   2.916  15.360 -0.3554 -0.9837  1.4100
19752TIP3   OH280746   3.300   5.597   1.397 -0.2872  0.0514 -0.2386
19752TIP3    H180747   3.255   5.626   1.318  0.8987 -0.6480 -1.2046
19752TIP3    H280748   3.241   5.532   1.436 -1.4338  1.3005  0.1403
19753TIP3   OH280749   2.164   0.888  14.937 -0.5109  0.2253  0.3688
19753TIP3    H180750   2.156   0.970  14.887  0.3163 -0.5427 -1.0534
19753TIP3    H280751   2.174   0.917  15.028  0.1949  1.7362 -0.1585
19754TIP3   OH280752   3.269   4.417   1.207 -0.3101 -0.2211  0.0067
19754TIP3    H180753   3.229   4.333   1.230  2.6218 -1.4634  0.7498
19754TIP3    H280754   3.303   4.404   1.118 -0.3663  0.3924 -0.1088
19755TIP3   OH280755   5.884   5.104  13.809 -0.5297 -0.0849  0.6130
19755TIP3    H180756   5.880   5.129  13.717  0.4506  0.2767  0.6582
19755TIP3    H280757   5.910   5.012  13.809 -2.7106 -0.7330  0.4863
19756TIP3   OH280758   4.996   3.361   1.371 -0.5429 -0.4407  0.5141
19756TIP3    H180759   4.950   3.428   1.421  0.4875  0.8928 -0.2917
19756TIP3    H280760   4.936   3.286   1.370 -2.6652  1.2212 -0.4696
19757TIP3   OH280761   0.910   5.243   3.084 -0.1067  0.4984  0.5907
19757TIP3    H180762   0.999   5.227   3.052  0.1742  0.4081  1.4038
19757TIP3    H280763   0.857   5.172   3.048  0.0426  0.8496 -0.3342
19758TIP3   OH280764   2.260   3.025   3.221 -0.5537  0.6109 -0.4839
19758TIP3    H180765   2.336   3.080   3.202  0.6987 -0.2819  1.7342
19758TIP3    H280766   2.205   3.079   3.278 -0.0861  0.1795  0.3955
19759TIP3   OH280767   4.402   2.191  16.291  0.1767 -0.2046  0.2640
19759TIP3    H180768   4.323   2.195  16.345 -1.1934 -0.7989 -1.6015
19759TIP3    H280769   4.470   2.232  16.343 -1.3098  0.0304  2.0524
19760TIP3   OH280770   3.215   2.429   2.254  0.3300  0.6739 -0.2910
19760TIP3    H180771   3.236   2.394   2.167  1.0756  0.7549 -0.1405
19760TIP3    H280772   3.132   2.476   2.241 -0.8334 -1.3405 -0.4499
19761TIP3   OH280773   2.925   2.408  16.575 -0.5239 -0.1214  0.6740
19761TIP3    H180774   3.001   2.351  16.569  0.0564  0.8385 -1.5444
19761TIP3    H280775   2.877   2.393  16.493 -1.2970  1.2494  0.8578
19762TIP3   OH280776   1.017   5.326  16.757 -0.2234 -0.4698  0.1114
19762TIP3    H180777   1.072   5.248  16.770 -1.1876 -0.9736  1.2404
19762TIP3    H280778   1.005   5.362  16.845 -1.1520  0.0111 -0.2052
19763TIP3   OH280779   4.196   4.402  16.232 -0.0354 -0.0019  0.1810
19763TIP3    H180780   4.104   4.422  16.217 -0.7155 -2.7377  0.4261
19763TIP3    H280781   4.200   4.306  16.236  2.6603  0.0917  1.1454
19764TIP3   OH280782   6.197   4.584  16.746  0.0806 -0.1053  0.5457
19764TIP3    H180783   6.218   4.650  16.680  0.9190  0.6582  1.5719
19764TIP3    H280784   6.203   4.501  16.699 -0.2981  0.4954 -0.5826
19765TIP3   OH280785   5.874   2.298   4.272  0.4904 -0.2758  0.5626
19765TIP3    H180786   5.967   2.318   4.259  0.2025  0.3877 -0.5440
19765TIP3    H280787   5.838   2.378   4.311 -0.0945  0.3877 -1.2665
19766TIP3   OH280788   4.052   4.089   1.743  0.1324 -0.1937 -0.0341
19766TIP3    H180789   4.046   4.001   1.780  1.2444 -0.0884  0.4178
19766TIP3    H280790   3.961   4.120   1.739 -0.1480 -0.8747  0.9638
19767TIP3   OH280791   6.245   2.471   4.695 -1.4339 -0.0981 -0.4217
19767TIP3    H180792   6.155   2.468   4.661 -1.7029  1.0632  0.1732
19767TIP3    H280793   6.251   2.393   4.751 -1.7796 -0.6629 -1.1522
19768TIP3   OH280794   0.637   1.778   0.204  0.2578  0.6583  0.1494
19768TIP3    H180795   0.638   1.691   0.242 -0.3923  0.2335 -0.7977
19768TIP3    H280796   0.567   1.775   0.139 -0.2363  2.0883  0.5928
19769TIP3   OH280797   3.275   4.519   0.002 -0.0197  0.3401  0.4127
19769TIP3    H180798   3.273   4.493   0.094  1.6419 -0.1695  0.3144
19769TIP3    H280799   3.300   4.612   0.005  0.3214  0.2457  0.4531
19770TIP3   OH280800   6.194   0.283  11.034  0.4269  0.4117  0.4158
19770TIP3    H180801   6.218   0.190  11.036  3.0690  1.0506  1.2869
19770TIP3    H280802   6.099   0.283  11.041  0.4250 -2.2149  1.2119
19771TIP3   OH280803   6.234   5.264   0.342  0.2422  0.2212 -0.1150
19771TIP3    H180804   6.234   5.213   0.424 -1.1431 -1.1752 -0.9710
19771TIP3    H280805   6.228   5.355   0.371 -0.9165 -0.2868  1.3266
19772TIP3   OH280806   1.840   5.258   5.084  0.4140 -0.2183  0.4673
19772TIP3    H180807   1.908   5.267   5.017  0.0680  0.3061  0.1868
19772TIP3    H280808   1.853   5.333   5.142 -0.4345  0.3380 -0.0507
19773TIP3   OH280809   4.074   3.095  15.679 -0.3124 -0.1237  0.3507
19773TIP3    H180810   4.125   3.145  15.742  0.1914 -0.5151  0.2510
19773TIP3    H280811   4.123   3.013  15.667 -0.7182 -0.3065 -0.0873
19774TIP3   OH280812   3.211   0.991   2.927  0.7961 -0.6546 -0.1695
19774TIP3    H180813   3.128   1.019   2.966  0.5648 -2.2397  0.5627
19774TIP3    H280814   3.200   1.004   2.833  0.9332  2.1690  0.1844
19775TIP3   OH280815   6.267   5.145  12.288 -0.0486  0.3715 -0.2463
19775TIP3    H180816   6.196   5.191  12.244  1.5560  1.7809 -1.4217
19775TIP3    H280817   6.323   5.215  12.323  1.8139 -0.6802 -1.0519
19776TIP3   OH280818   2.793   5.416   1.178  0.3128 -0.8510 -0.0626
19776TIP3    H180819   2.814   5.414   1.085  0.3661 -1.7527 -0.0296
19776TIP3    H280820   2.754   5.331   1.197  1.1582 -1.0383  0.9296
19777TIP3   OH280821   0.529   2.693  15.373 -0.0669 -0.0055 -0.3860
19777TIP3    H180822   0.454   2.690  15.314  0.6641  0.5105 -1.3476
19777TIP3    H280823   0.603   2.665  15.319  0.7244  1.1129  0.1095
19778TIP3   OH280824   6.777   5.647   3.909  0.0783  0.4335  0.3255
19778TIP3    H180825   6.787   5.632   3.815 -0.1983 -1.6987  0.6190
19778TIP3    H280826   6.691   5.611   3.930  0.9560 -0.8758  1.7524
19779TIP3   OH280827   3.583   0.653  14.912 -0.8151  0.2457  0.4576
19779TIP3    H180828   3.636   0.574  14.916  0.4453  1.0741  0.5415
19779TIP3    H280829   3.504   0.627  14.864 -0.9424 -1.3269  1.4750
19780TIP3   OH280830   1.774   4.530  11.428 -0.0953 -0.0136 -0.6798
19780TIP3    H180831   1.760   4.534  11.523  2.4644  0.0504 -0.2681
19780TIP3    H280832   1.834   4.602  11.410  0.5739 -0.9136 -2.1316
19781TIP3   OH280833   1.516   0.697   0.159  0.4312  0.0740 -0.3895
19781TIP3    H180834   1.564   0.618   0.135  0.2182 -0.3542  0.5569
19781TIP3    H280835   1.429   0.666   0.181  0.8332  0.3301  1.6686
19782TIP3   OH280836   6.731   1.331  10.947 -0.0238  0.1453  0.3745
19782TIP3    H180837   6.777   1.372  11.020 -0.3878  0.3226  0.5040
19782TIP3    H280838   6.679   1.401  10.908  1.6340  0.5021 -1.2444
19783TIP3   OH280839   1.994   5.772  16.394  0.0680  0.4233  0.3947
19783TIP3    H180840   2.047   5.762  16.473 -1.4967  3.4209  1.8978
19783TIP3    H280841   1.948   5.688  16.386  2.4519 -0.9873  0.9577
19784TIP3   OH280842   5.779   1.837   6.781 -0.3992  0.8993 -0.1563
19784TIP3    H180843   5.860   1.820   6.828 -0.2913 -2.5575 -1.4311
19784TIP3    H280844   5.770   1.932   6.782  2.9804  1.2686  1.1266
19785TIP3   OH280845   3.443   6.657   1.871 -0.1052 -0.1080  0.0627
19785TIP3    H180846   3.450   6.750   1.850  1.0658 -0.4889 -1.3470
19785TIP3    H280847   3.426   6.615   1.786 -0.9326 -1.1571  0.7282
19786TIP3   OH280848   1.969   0.867   4.175 -0.3695  0.3642 -0.3366
19786TIP3    H180849   1.877   0.889   4.157 -1.1439 -2.4717 -0.0653
19786TIP3    H280850   1.977   0.874   4.270 -1.3123 -2.8033  0.0428
19787TIP3   OH280851   6.630   0.131   1.947  0.2297  0.3701 -0.6728
19787TIP3    H180852   6.593   0.118   2.034 -1.2831  0.7221 -1.2545
19787TIP3    H280853   6.716   0.090   1.951 -0.5817 -1.2505  0.4162
19788TIP3   OH280854   4.169   0.888   2.273  0.1397 -0.0228  0.2868
19788TIP3    H180855   4.080   0.860   2.291 -0.3839  0.3062 -1.6651
19788TIP3    H280856   4.200   0.926   2.356 -2.4601  2.2977  0.2880
19789TIP3   OH280857   0.418   6.054   0.705  0.3755  0.6600  0.1289
19789TIP3    H180858   0.326   6.072   0.724 -0.5465 -1.0193 -2.4785
19789TIP3    H280859   0.457   6.037   0.791 -2.1005 -0.1812  1.1312
19790TIP3   OH280860   3.404   2.493   0.110  0.3378 -0.3172  0.4805
19790TIP3    H180861   3.460   2.493   0.032  0.8587  0.5371  0.8392
19790TIP3    H280862   3.348   2.570   0.098  0.0158 -0.5236  0.6675
19791TIP3   OH280863   6.257   2.256   4.870 -0.3856 -0.4627  0.0791
19791TIP3    H180864   6.312   2.222   4.941 -1.9074  1.7170  2.3955
19791TIP3    H280865   6.188   2.191   4.860 -0.1067 -0.8290  0.5279
19792TIP3   OH280866   5.873   6.215  13.846  0.1281 -0.7046  0.1782
19792TIP3    H180867   5.854   6.246  13.758 -1.0173 -1.5445  0.1104
19792TIP3    H280868   5.929   6.282  13.884  0.3945 -0.2012 -1.0886
19793TIP3   OH280869   0.696   5.746   0.879  0.1332  0.3319  0.0384
19793TIP3    H180870   0.666   5.655   0.881 -2.5588  1.1895  2.9264
19793TIP3    H280871   0.669   5.778   0.793  0.3288 -1.3184 -0.6599
19794TIP3   OH280872   2.217   4.340   1.342  0.2850  0.6489 -0.5022
19794TIP3    H180873   2.275   4.412   1.365 -0.0761  0.6778  0.3146
19794TIP3    H280874   2.141   4.383   1.302 -0.1094  0.7516  0.3504
19795TIP3   OH280875   6.208   0.490  14.783  0.4124 -0.0508  0.1449
19795TIP3    H180876   6.203   0.418  14.720  1.0067 -0.1784  0.2377
19795TIP3    H280877   6.145   0.467  14.851  0.7067 -0.5567  0.2500
19796TIP3   OH280878   4.328   0.252  15.836 -0.7221 -0.0965 -0.4881
19796TIP3    H180879   4.310   0.255  15.930 -1.0966  2.2129 -0.6065
19796TIP3    H280880   4.251   0.212  15.797 -1.5751  1.0827 -0.0333
19797TIP3   OH280881   3.583   0.896  14.174 -0.3646 -0.3629  0.1398
19797TIP3    H180882   3.591   0.920  14.082  0.6237  0.4395  0.4224
19797TIP3    H280883   3.668   0.858  14.196 -0.1862  0.5254  1.0256
19798TIP3   OH280884   3.995   1.575   4.114  0.3203  0.1722  0.1023
19798TIP3    H180885   4.040   1.550   4.034  0.7623  1.6451 -0.1073
19798TIP3    H280886   4.000   1.497   4.170 -0.5228 -1.0627 -1.5112
19799TIP3   OH280887   5.982   3.305   5.728  0.0174  0.1107 -0.0157
19799TIP3    H180888   5.901   3.277   5.686  0.8939  0.1589 -1.8006
19799TIP3    H280889   5.967   3.397   5.751 -2.1720 -1.1672  4.1161
19800TIP3   OH280890   6.079   4.613  13.740  0.4475  0.0063  0.1036
19800TIP3    H180891   5.997   4.566  13.752  1.1690 -1.3509 -0.1595
19800TIP3    H280892   6.053   4.704  13.722 -1.0106 -0.5795 -0.8059
19801TIP3   OH280893   5.600   1.656  10.846  0.3520  0.2394  0.6996
19801TIP3    H180894   5.681   1.621  10.884  0.8166  0.0286 -0.4510
19801TIP3    H280895   5.623   1.744  10.817  0.7635 -0.5403 -1.4620
19802TIP3   OH280896   2.143   4.573  17.220 -0.3392  0.1008 -0.2492
19802TIP3    H180897   2.203   4.618  17.281  0.6614  0.4952 -1.5096
19802TIP3    H280898   2.060   4.568  17.268  0.5931 -0.1051  1.3727
19803TIP3   OH280899   0.916   6.467   0.789  0.5522  0.1039 -0.6382
19803TIP3    H180900   0.880   6.387   0.751 -0.3175  0.0000  0.3848
19803TIP3    H280901   0.987   6.492   0.729  1.9326 -2.3308 -0.1173
19804TIP3   OH280902   3.498   0.895   1.672  0.4977 -0.0903  0.5904
19804TIP3    H180903   3.570   0.866   1.728  0.4176 -0.4458  0.5080
19804TIP3    H280904   3.458   0.815   1.640  0.1991  0.1090  0.4594
19805TIP3   OH280905   4.364   2.951  15.160 -0.7627 -0.2891  0.4624
19805TIP3    H180906   4.306   2.875  15.152 -0.4625 -0.3583 -1.2263
19805TIP3    H280907   4.314   3.023  15.122 -0.1288 -0.1482 -0.1087
19806TIP3   OH280908   3.633   2.955   2.753 -0.3487 -0.3930 -0.2414
19806TIP3    H180909   3.718   2.946   2.797 -0.1867  1.0039 -0.2234
19806TIP3    H280910   3.653   2.947   2.660 -0.1907 -0.1098 -0.2339
19807TIP3   OH280911   3.872   4.097   1.156 -0.3375 -0.0986 -0.0534
19807TIP3    H180912   3.788   4.054   1.170 -0.8802  0.0995 -2.4399
19807TIP3    H280913   3.926   4.031   1.112 -0.1840  0.6920 -1.0572
19808TIP3   OH280914   2.093   3.589  16.905 -0.0032 -0.1856 -0.1760
19808TIP3    H180915   2.143   3.508  16.918  1.2576  0.7996  1.4700
19808TIP3    H280916   2.011   3.575  16.952  0.0130 -0.7081 -0.3098
19809TIP3   OH280917   4.504   1.520   1.902  0.7202 -0.4844  0.1300
19809TIP3    H180918   4.410   1.533   1.885  1.1696  1.9683 -0.7455
19809TIP3    H280919   4.547   1.569   1.832  2.6664 -1.1986  0.8072
19810TIP3   OH280920   5.207   1.544  11.358 -0.6426  0.1240 -0.0958
19810TIP3    H180921   5.271   1.615  11.348 -0.3832 -0.0981  0.0002
19810TIP3    H280922   5.128   1.578  11.316 -0.5809  0.5539  0.1291
19811TIP3   OH280923   1.304   1.725   1.349  0.1678 -0.5442 -1.0354
19811TIP3    H180924   1.285   1.651   1.407 -1.8621  2.0060  1.6474
19811TIP3    H280925   1.237   1.718   1.280 -2.5419  0.9755  1.3493
19812TIP3   OH280926   1.857   1.125  17.065 -0.6683 -0.1952  0.3884
19812TIP3    H180927   1.921   1.196  17.055 -3.1472  1.8082 -2.1870
19812TIP3    H280928   1.907   1.045  17.051  1.9119  1.0997  1.8351
19813TIP3   OH280929   4.576   1.964  16.797 -0.4460  0.4144 -0.3392
19813TIP3    H180930   4.551   2.032  16.860 -2.5509  0.0453 -0.7260
19813TIP3    H280931   4.591   2.012  16.715  0.3988  0.6746 -0.0367
19814TIP3   OH280932   6.307   0.475  10.533  0.3756 -0.0869 -0.6249
19814TIP3    H180933   6.389   0.434  10.506  0.9428  0.3227  0.4342
19814TIP3    H280934   6.307   0.560  10.489  0.0969 -0.4410 -1.3181
19815TIP3   OH280935   5.306   3.009   3.200  0.0025  0.5016 -0.2072
19815TIP3    H180936   5.303   3.005   3.295 -0.0212  0.5388 -0.2067
19815TIP3    H280937   5.254   3.086   3.176 -2.4260 -1.1640 -0.4033
19816TIP3   OH280938   5.200   5.135  14.407 -0.1078  0.0444 -0.0283
19816TIP3    H180939   5.132   5.128  14.474 -0.1830 -0.3621 -0.1434
19816TIP3    H280940   5.199   5.049  14.364  0.7395 -0.0969  0.2247
19817TIP3   OH280941   2.637   1.151  16.657 -0.6778 -0.3644  0.3086
19817TIP3    H180942   2.729   1.130  16.669 -1.1629 -2.0060  1.3785
19817TIP3    H280943   2.608   1.093  16.586 -0.8907  0.0924  0.0198
19818TIP3   OH280944   5.737   2.215  17.049  0.3083 -0.3710 -0.0235
19818TIP3    H180945   5.777   2.135  17.083  1.9093  0.6277  0.5044
19818TIP3    H280946   5.645   2.193  17.039  0.8432 -2.5248 -0.6175
19819TIP3   OH280947   1.755   3.978   2.058 -0.5526 -0.0696  0.2583
19819TIP3    H180948   1.696   3.958   2.130  0.6984 -1.4740  0.9307
19819TIP3    H280949   1.715   3.938   1.982 -2.0605  1.7175  0.0656
19820TIP3   OH280950   6.377   0.991  14.541 -0.5600  0.1948  0.3471
19820TIP3    H180951   6.439   1.008  14.612 -0.0259  2.6388 -0.6510
19820TIP3    H280952   6.293   1.022  14.576 -0.3690  1.0481  0.0498
19821TIP3   OH280953   6.036   6.560   0.891 -0.0179  0.3753  0.8238
19821TIP3    H180954   6.030   6.482   0.946  0.7789 -0.2472  0.0440
19821TIP3    H280955   5.957   6.610   0.911  0.7937  0.7080  3.3405
19822TIP3   OH280956   0.178   3.580   5.241  0.4283 -0.5831 -0.0474
19822TIP3    H180957   0.143   3.641   5.306  1.2914 -0.6392  0.4743
19822TIP3    H280958   0.162   3.623   5.157  0.2336 -0.0436  0.2648
19823TIP3   OH280959   3.109   0.217   4.234  0.1424  0.3915  0.1625
19823TIP3    H180960   3.071   0.232   4.321 -0.0169 -1.3971  0.4195
19823TIP3    H280961   3.183   0.277   4.230 -0.6288  1.4397  1.0135
19824TIP3   OH280962   4.403   5.146   6.633  0.3390  0.2251 -0.7068
19824TIP3    H180963   4.485   5.098   6.632 -0.8505 -1.9901  2.1292
19824TIP3    H280964   4.357   5.116   6.555  0.2875 -2.0909  0.1854
19825TIP3   OH280965   3.002   5.853  12.250 -0.3482 -0.5568 -0.1750
19825TIP3    H180966   3.035   5.943  12.246  0.9946 -1.0677 -1.1276
19825TIP3    H280967   2.995   5.834  12.343 -1.7185  0.9145  0.0439
19826TIP3   OH280968   4.004   3.252  11.808 -0.0464 -0.1418 -0.2894
19826TIP3    H180969   3.932   3.312  11.790 -0.3047 -0.4779 -0.3704
19826TIP3    H280970   4.031   3.273  11.897 -0.3021 -0.0796 -0.2274
19827TIP3   OH280971   4.854   0.477   1.843 -0.5328 -0.3784  0.1100
19827TIP3    H180972   4.894   0.434   1.918  1.7019 -1.9395 -1.8803
19827TIP3    H280973   4.798   0.409   1.804 -1.9635  0.5303  0.5378
19828TIP3   OH280974   5.744   6.741  13.690 -0.7230 -0.0747 -0.6246
19828TIP3    H180975   5.677   6.740  13.758  0.7212  0.0148  0.8451
19828TIP3    H280976   5.809   6.803  13.722 -0.8325  1.3069 -2.9333
19829TIP3   OH280977   4.224   2.001   2.872  0.2754  0.0243 -0.1298
19829TIP3    H180978   4.261   2.081   2.836  1.2908  0.2100  1.2896
19829TIP3    H280979   4.194   2.025   2.960  1.1951 -1.2974  0.5644
19830TIP3   OH280980   1.765   4.078  12.636 -0.1599 -0.1979 -0.2398
19830TIP3    H180981   1.769   4.042  12.725 -2.3151  0.4958  0.1749
19830TIP3    H280982   1.729   4.007  12.583 -1.4640  0.2644 -0.0084
19831TIP3   OH280983   2.460   4.649   2.349  0.6289  0.1265 -0.0124
19831TIP3    H180984   2.524   4.656   2.419  0.3156 -1.4801  0.4580
19831TIP3    H280985   2.510   4.617   2.274  0.3093 -1.6158  0.4954
19832TIP3   OH280986   1.556   3.637  16.551  0.3483  0.4772 -0.0061
19832TIP3    H180987   1.539   3.654  16.458  0.3286 -0.0054 -0.0937
19832TIP3    H280988   1.502   3.560  16.571  1.9730 -0.7201 -0.1323
19833TIP3   OH280989   5.758   1.459   3.047 -0.0273 -0.3477 -0.0504
19833TIP3    H180990   5.833   1.456   2.988 -0.7378  3.1510 -1.2436
19833TIP3    H280991   5.791   1.420   3.128  3.3389  1.6610 -0.3342
19834TIP3   OH280992   3.043   0.745   4.918 -0.3582 -0.2200 -0.4644
19834TIP3    H180993   3.074   0.834   4.935 -0.1432 -0.1294 -1.2923
19834TIP3    H280994   2.950   0.755   4.898  0.0748  0.0727 -2.4783
19835TIP3   OH280995   4.168   2.366  10.790 -0.5748  0.1464 -0.2302
19835TIP3    H180996   4.106   2.306  10.831 -0.0590 -0.2126  0.0244
19835TIP3    H280997   4.203   2.317  10.715  1.4427 -0.6780  1.2140
19836TIP3   OH280998   1.521   4.066  15.789  0.2877 -0.3009 -0.0724
19836TIP3    H180999   1.510   4.017  15.708  2.0356 -1.1175  0.1807
19836TIP3    H281000   1.450   4.034  15.846  0.8740 -1.8904 -0.2234
19837TIP3   OH281001   5.349   5.607  12.706 -0.0509 -0.1569 -0.0604
19837TIP3    H181002   5.307   5.620  12.791  0.7838  0.1610  0.3159
19837TIP3    H281003   5.278   5.611  12.642 -0.8548 -1.7499  0.7369
19838TIP3   OH281004   4.764   3.210   0.392 -0.2108 -0.7956 -0.1638
19838TIP3    H181005   4.760   3.278   0.460 -2.1288 -2.2106  1.2122
19838TIP3    H281006   4.744   3.256   0.311  0.5413  0.6598  0.4539
19839TIP3   OH281007   0.279   6.069   3.730 -0.1792 -0.5219 -0.3205
19839TIP3    H181008   0.268   6.050   3.823 -1.2032  0.6703 -0.1808
19839TIP3    H281009   0.328   6.151   3.728  0.3752 -0.8615 -0.8491
19840TIP3   OH281010   3.954   2.587  15.405 -0.3392 -0.5118 -0.5197
19840TIP3    H181011   3.967   2.516  15.343  0.8726  0.0231 -0.8809
19840TIP3    H281012   4.000   2.661  15.367  2.6375 -0.8462  2.2133
19841TIP3   OH281013   2.422   3.175  11.429 -0.1521 -0.0888 -0.5101
19841TIP3    H181014   2.348   3.185  11.369 -1.2885 -1.9323  0.4956
19841TIP3    H281015   2.492   3.137  11.376 -0.7395 -0.5898 -0.9297
19842TIP3   OH281016   6.023   6.507  13.677  0.1967 -0.6661 -0.5825
19842TIP3    H181017   6.079   6.429  13.671 -1.0672 -1.6318  0.0442
19842TIP3    H281018   5.937   6.477  13.650 -0.1797  0.6661 -0.8895
19843TIP3   OH281019   4.100   2.018   1.133  0.7217 -0.7679 -0.1630
19843TIP3    H181020   4.054   1.991   1.054  0.5086 -1.3201  0.1466
19843TIP3    H281021   4.180   2.061   1.101 -0.1084  0.4028 -0.7030
19844TIP3   OH281022   0.671   0.277   2.134  0.0340  0.0559 -0.0260
19844TIP3    H181023   0.645   0.243   2.049 -0.8611 -0.7451  0.5626
19844TIP3    H281024   0.767   0.277   2.132  0.0128 -0.3219 -0.8818
19845TIP3   OH281025   6.024   3.942   2.058  0.2608  0.5740  0.0410
19845TIP3    H181026   5.961   3.908   1.995  0.4988 -1.7081  0.9855
19845TIP3    H281027   6.097   3.880   2.055  1.7424  2.2658  0.1658
19846TIP3   OH281028   4.558   1.686   4.794  0.3198  0.1118  0.2780
19846TIP3    H181029   4.484   1.671   4.853  0.1739 -1.9702 -0.3830
19846TIP3    H281030   4.611   1.753   4.838 -1.8822  1.5458  0.7988
19847TIP3   OH281031   3.830   3.010   4.234 -0.0453 -0.3572 -0.1129
19847TIP3    H181032   3.786   3.087   4.197  2.6286  1.3690  0.1288
19847TIP3    H281033   3.799   3.006   4.324 -1.3635 -0.4711 -0.5716
19848TIP3   OH281034   1.402   2.605   1.499 -0.3488  0.3222 -0.3912
19848TIP3    H181035   1.356   2.635   1.421 -0.3595 -1.5703 -1.1481
19848TIP3    H281036   1.390   2.510   1.498  0.5000  0.1885  1.3760
19849TIP3   OH281037   3.249   4.232   2.579 -0.6434  0.1721  0.3672
19849TIP3    H181038   3.341   4.211   2.599 -1.0907 -0.7633  1.4923
19849TIP3    H281039   3.247   4.327   2.575  0.4497  0.1859  0.0215
19850TIP3   OH281040   2.675   4.908   3.239  0.0839  0.2060  0.4217
19850TIP3    H181041   2.654   4.908   3.146 -0.4194  0.4357  0.5349
19850TIP3    H281042   2.629   4.832   3.275 -0.2559  0.4963  0.6025
19851TIP3   OH281043   3.412   6.130  13.328  0.3438  0.0591  0.0046
19851TIP3    H181044   3.355   6.056  13.350  1.1516 -0.2606  1.0921
19851TIP3    H281045   3.469   6.139  13.405  0.5805  1.4909 -0.3347
19852TIP3   OH281046   5.598   0.312  13.659  0.3420  0.0056 -0.0184
19852TIP3    H181047   5.618   0.297  13.567  1.9246 -0.1596  0.3443
19852TIP3    H281048   5.579   0.406  13.665 -0.5643 -0.1345 -0.6496
19853TIP3   OH281049   5.573   0.756  15.110 -0.5800  0.2433 -0.0531
19853TIP3    H181050   5.635   0.804  15.055 -0.5995  1.9937  1.3965
19853TIP3    H281051   5.523   0.824  15.155 -2.3029 -1.1520  0.2145
19854TIP3   OH281052   2.074   5.396   0.430  0.4461  0.0897 -0.0402
19854TIP3    H181053   2.151   5.350   0.463  0.4611  0.8018  0.9667
19854TIP3    H281054   2.006   5.329   0.423  1.7734 -1.0001 -3.1065
19855TIP3   OH281055   1.504   2.296  16.799  0.8383 -0.1148  1.2479
19855TIP3    H181056   1.431   2.250  16.841  1.8884 -0.6408  2.5346
19855TIP3    H281057   1.566   2.314  16.870  1.2910  1.6630  0.4354
19856TIP3   OH281058   3.369   5.097  10.864 -0.1446  0.2103  0.1276
19856TIP3    H181059   3.392   5.029  10.801 -0.1879  0.4963 -0.1924
19856TIP3    H281060   3.297   5.059  10.915  0.8972 -0.6242  1.0227
19857TIP3   OH281061   5.642   0.778  12.493  0.1008 -0.2668 -0.3130
19857TIP3    H181062   5.658   0.685  12.478  1.0495 -0.6548  2.8539
19857TIP3    H281063   5.546   0.786  12.492 -0.0780 -1.8138  2.3191
19858TIP3   OH281064   1.479   3.670  15.820  0.7534 -0.7827 -0.1640
19858TIP3    H181065   1.420   3.746  15.820  1.2654 -0.3637 -1.8345
19858TIP3    H281066   1.425   3.598  15.789  0.6026 -0.8409  0.2254
19859TIP3   OH281067   0.408   2.964  16.892  0.0334  0.3163  0.3182
19859TIP3    H181068   0.351   2.888  16.907  0.8824 -0.4930 -0.5407
19859TIP3    H281069   0.477   2.931  16.835  0.1964  1.8420 -0.3726
19860TIP3   OH281070   0.020   2.387  13.963 -0.1709  0.7994  0.1283
19860TIP3    H181071   0.019   2.477  13.931 -0.5956  1.0259  0.7714
19860TIP3    H281072  -0.056   2.381  14.021  0.0125  0.1079  0.3051
19861TIP3   OH281073   0.039   4.901  15.518 -0.0795  0.5190  0.5611
19861TIP3    H181074   0.128   4.866  15.528 -0.2098  0.3997  1.3453
19861TIP3    H281075   0.013   4.875  15.430 -0.2039 -1.4497  1.1636
19862TIP3   OH281076   2.042   2.585  12.620 -0.4579  0.0543  0.7997
19862TIP3    H181077   2.100   2.509  12.627 -0.3380  0.1179  0.5257
19862TIP3    H281078   1.963   2.552  12.577 -0.9591 -0.2114  1.9181
19863TIP3   OH281079   2.252   1.159  13.974  0.4438  0.2585 -0.2664
19863TIP3    H181080   2.181   1.112  14.018  1.2344 -1.8010 -1.1357
19863TIP3    H281081   2.311   1.185  14.045  1.1466 -2.0745  0.0378
19864TIP3   OH281082   4.582   1.130  11.208  0.6469 -0.0193  0.8993
19864TIP3    H181083   4.542   1.123  11.295 -2.0637  1.0670 -0.2227
19864TIP3    H281084   4.649   1.198  11.219 -0.4389  0.9261  1.8805
19865TIP3   OH281085   5.002   0.109   5.606 -0.4744 -0.0193 -0.0233
19865TIP3    H181086   4.959   0.163   5.539 -0.2178 -0.8445 -0.8652
19865TIP3    H281087   5.089   0.091   5.570  0.1859  0.7320  1.1873
19866TIP3   OH281088   5.099   5.673  13.280 -0.1877  0.6130 -0.1921
19866TIP3    H181089   5.012   5.680  13.321  0.4661 -2.0316  1.8150
19866TIP3    H281090   5.104   5.582  13.252  1.8987  0.7875 -0.4086
19867TIP3   OH281091   4.937   2.436   5.179 -0.0763  0.0510 -0.4384
19867TIP3    H181092   4.917   2.523   5.216  1.2054  0.5154 -0.8151
19867TIP3    H281093   4.967   2.455   5.090  1.2479 -0.6920 -0.1536
19868TIP3   OH281094   5.398   1.231   0.569  0.1683  0.0078  0.0590
19868TIP3    H181095   5.319   1.239   0.516 -0.1993  2.3838  0.9290
19868TIP3    H281096   5.468   1.266   0.513  0.0429  1.0427  0.5470
19869TIP3   OH281097   5.577   6.782  11.251 -0.1085  0.2508  0.7394
19869TIP3    H181098   5.637   6.853  11.274  1.0586  0.1322 -1.7340
19869TIP3    H281099   5.634   6.717  11.209 -1.5284 -1.1916  1.0057
19870TIP3   OH281100   0.457   1.819  11.993  0.1802  0.2055 -0.1881
19870TIP3    H181101   0.393   1.887  12.014  1.2549  1.6755 -1.6042
19870TIP3    H281102   0.513   1.858  11.926  0.8995 -2.0280 -0.9371
19871TIP3   OH281103   0.731   0.516  14.118  0.0689 -0.7944  0.0060
19871TIP3    H181104   0.787   0.526  14.041  2.4768 -1.4733  1.6071
19871TIP3    H281105   0.698   0.604  14.135  2.6694  0.1494  0.4530
19872TIP3   OH281106   5.931   1.332   0.742  0.0685 -0.2160  0.1893
19872TIP3    H181107   5.915   1.303   0.832  1.0657 -1.3155  0.0275
19872TIP3    H281108   5.908   1.256   0.688 -2.4249  1.0561 -0.6653
19873TIP3   OH281109   5.482   1.573   4.160  0.0109  0.0145 -0.3930
19873TIP3    H181110   5.535   1.651   4.176 -1.3981  1.0503 -0.7320
19873TIP3    H281111   5.517   1.508   4.222 -0.8115  1.8463  2.0799
19874TIP3   OH281112   1.633   0.518  13.955 -0.5341 -0.0125 -0.4237
19874TIP3    H181113   1.683   0.575  14.013  0.8960 -0.9956 -0.6964
19874TIP3    H281114   1.698   0.463  13.911 -1.6642  0.0038 -2.2010
19875TIP3   OH281115   6.244   2.953  11.932 -0.0590 -0.9198 -0.6865
19875TIP3    H181116   6.151   2.949  11.908 -0.5764 -1.7578  1.3731
19875TIP3    H281117   6.257   3.044  11.961 -0.3995 -1.0070 -0.2720
19876TIP3   OH281118   0.583   6.086  13.167 -0.0053  0.0042  0.4224
19876TIP3    H181119   0.534   6.127  13.239  0.3831 -0.2485  0.8254
19876TIP3    H281120   0.525   6.016  13.136 -0.1964  0.1475  0.4528
19877TIP3   OH281121   2.043   1.319   4.762  0.0113  0.2384  0.0241
19877TIP3    H181122   2.051   1.342   4.669  0.9999 -2.9099 -0.7224
19877TIP3    H281123   2.014   1.400   4.804 -0.3481  1.7545 -3.0025
19878TIP3   OH281124   0.267   1.294  15.890 -0.0511 -0.4221 -0.3289
19878TIP3    H181125   0.221   1.233  15.832  0.5736  0.1226 -1.4229
19878TIP3    H281126   0.251   1.380  15.850 -1.0995  0.1604  1.3115
19879TIP3   OH281127   2.323   4.236   5.454 -0.0843  0.1495 -0.5150
19879TIP3    H181128   2.380   4.165   5.426  0.4044  0.1554  0.4333
19879TIP3    H281129   2.383   4.305   5.481 -0.5442  0.1862  0.4245
19880TIP3   OH281130   3.303   3.907  13.823 -0.0822  0.6281 -0.1922
19880TIP3    H181131   3.280   3.816  13.805 -1.8164  1.0134 -0.0797
19880TIP3    H281132   3.293   3.951  13.738  1.0814  0.6472 -0.3186
19881TIP3   OH281133   3.518   1.394  10.843  0.2950 -0.5482 -0.4567
19881TIP3    H181134   3.515   1.361  10.932 -0.5141  1.2838  0.2228
19881TIP3    H281135   3.472   1.328  10.791  2.0964 -2.3729  0.2057
19882TIP3   OH281136   4.170   6.349  14.555 -0.3532  0.6020  0.1802
19882TIP3    H181137   4.175   6.289  14.629  0.2063  0.2365 -0.1551
19882TIP3    H281138   4.172   6.293  14.477  0.2034  1.0469 -0.1349
19883TIP3   OH281139   3.593   0.077  11.468  0.5550 -0.0237 -0.5246
19883TIP3    H181140   3.552   0.071  11.382 -1.9482  0.1851  0.6122
19883TIP3    H281141   3.622   0.168  11.475 -2.1909  0.8164  0.1405
19884TIP3   OH281142   3.579   5.354  15.067 -0.4028  0.6824  0.0276
19884TIP3    H181143   3.550   5.422  15.005 -0.2514  2.0286  1.3964
19884TIP3    H281144   3.628   5.403  15.134 -0.2394 -0.8031  1.0013
19885TIP3   OH281145   0.812   0.399  11.791 -0.5061  0.0984 -0.8066
19885TIP3    H181146   0.889   0.425  11.740  0.4785 -1.6768 -0.2765
19885TIP3    H281147   0.764   0.339  11.734 -1.2817  0.8952 -0.9883
19886TIP3   OH281148   6.189   2.131  16.947  0.5022  0.1219  0.5485
19886TIP3    H181149   6.108   2.104  16.990 -2.1463  3.7909 -1.8658
19886TIP3    H281150   6.177   2.105  16.855  2.1201  0.5707  0.1939
19887TIP3   OH281151   2.601   4.393  14.605 -0.4633 -0.4114  0.4168
19887TIP3    H181152   2.593   4.336  14.528 -1.9733  0.1844  0.1041
19887TIP3    H281153   2.537   4.358  14.667 -1.3367  0.8493  0.2595
19888TIP3   OH281154   0.182   6.477  16.727  0.0810  0.2031 -0.7413
19888TIP3    H181155   0.132   6.396  16.743 -0.6142  0.2838 -2.3876
19888TIP3    H281156   0.262   6.447  16.684  1.2505  0.1245  1.4348
19889TIP3   OH281157   4.408   0.258   0.276 -0.0529  0.2073  0.2997
19889TIP3    H181158   4.342   0.294   0.335 -0.2223  1.6307 -0.7148
19889TIP3    H281159   4.360   0.234   0.197  0.4928  0.4369 -0.1091
19890TIP3   OH281160   3.587   1.496   3.613  0.7451 -0.0528 -0.4034
19890TIP3    H181161   3.534   1.563   3.570 -2.0136 -1.1295  1.1781
19890TIP3    H281162   3.618   1.441   3.541 -1.6144 -0.2863 -1.3064
19891TIP3   OH281163   3.502   1.986   3.854 -0.1180  0.3764 -0.5664
19891TIP3    H181164   3.536   1.903   3.821 -0.2263 -0.1615  0.6535
19891TIP3    H281165   3.561   2.052   3.817  0.7390 -0.3477 -0.5158
19892TIP3   OH281166   5.274   4.324   6.426 -0.0738 -0.0769 -0.1891
19892TIP3    H181167   5.212   4.393   6.402 -0.6219 -1.0762 -1.7525
19892TIP3    H281168   5.308   4.350   6.512 -3.7625 -0.2038  1.4117
19893TIP3   OH281169   4.753   0.614  12.268  0.2218 -0.4591 -0.1997
19893TIP3    H181170   4.824   0.581  12.214  1.2160  0.4593  0.5370
19893TIP3    H281171   4.796   0.662  12.339 -1.0949 -0.6729  0.7663
19894TIP3   OH281172   2.531   6.021  13.865 -0.1233  0.1064 -0.1691
19894TIP3    H181173   2.503   5.997  13.953  0.5490 -0.7533 -0.1842
19894TIP3    H281174   2.453   6.009  13.810 -0.4893  0.4621  0.2707
19895TIP3   OH281175   3.215   4.412  11.487  0.1864  0.6326 -0.3473
19895TIP3    H181176   3.287   4.459  11.445 -0.3237 -0.0381 -2.0183
19895TIP3    H281177   3.150   4.479  11.505  1.9004  1.5563  2.7898
19896TIP3   OH281178   1.830   3.211  11.233  0.1499  1.2447  0.3546
19896TIP3    H181179   1.844   3.273  11.162 -0.5178 -0.3711 -1.2263
19896TIP3    H281180   1.903   3.150  11.227  0.8204  1.8720  1.9162
19897TIP3   OH281181   0.460   2.357  14.499  0.2593 -0.5080 -0.7328
19897TIP3    H181182   0.538   2.403  14.530 -0.7784  2.0323 -1.7716
19897TIP3    H281183   0.387   2.399  14.545 -0.6586 -1.7266 -1.0389
19898TIP3   OH281184   2.728   4.908  13.172  0.2325  0.3157  0.2433
19898TIP3    H181185   2.668   4.981  13.158  1.0555  0.9356 -0.0985
19898TIP3    H281186   2.757   4.883  13.084 -2.5403 -2.5747  0.0753
19899TIP3   OH281187   1.316   2.014   4.022 -0.6879  1.1329  0.6535
19899TIP3    H181188   1.230   1.984   3.991 -0.3714 -0.0184  0.8757
19899TIP3    H281189   1.366   2.030   3.942 -0.2143 -0.8408  0.5280
19900TIP3   OH281190   1.705   2.268  15.285  0.4459 -0.3868 -0.6155
19900TIP3    H181191   1.741   2.234  15.367 -0.6514  1.4751  0.6581
19900TIP3    H281192   1.610   2.259  15.295  0.1861  1.9836 -0.7053
19901TIP3   OH281193   4.135   4.637   3.097  0.7412 -0.0941  0.0232
19901TIP3    H181194   4.097   4.576   3.161  0.8404  0.2530  0.4155
19901TIP3    H281195   4.215   4.669   3.139 -0.3510  1.8407  0.6929
19902TIP3   OH281196   4.144   0.408  13.904 -0.3073 -0.3546  0.1591
19902TIP3    H181197   4.177   0.377  13.989 -0.9964 -1.4820  0.0209
19902TIP3    H281198   4.122   0.328  13.856 -1.8187  0.3219 -0.3144
19903TIP3   OH281199   2.631   3.570  13.264  0.3355 -0.0786 -0.8951
19903TIP3    H181200   2.677   3.513  13.202 -0.8607 -2.3569  0.2555
19903TIP3    H281201   2.682   3.564  13.344  0.7072  1.2265 -1.0168
19904TIP3   OH281202   6.009   4.466  14.386  0.0256 -0.3848  0.5601
19904TIP3    H181203   5.973   4.422  14.309  0.3311  1.5596 -0.7181
19904TIP3    H281204   5.957   4.432  14.459 -2.2540 -0.0563 -0.8576
19905TIP3   OH281205   2.310   6.444  15.237 -0.3598  0.4580  0.8684
19905TIP3    H181206   2.220   6.472  15.222 -0.3414 -0.3217 -0.8671
19905TIP3    H281207   2.302   6.354  15.268 -0.2528  1.0552  2.6651
19906TIP3   OH281208   3.560   3.093   3.841 -0.4489 -0.1019 -0.0156
19906TIP3    H181209   3.564   2.997   3.846 -1.5464 -0.1670 -0.2987
19906TIP3    H281210   3.649   3.119   3.816  0.5399 -0.8678  2.5201
19907TIP3   OH281211   2.950   3.451  12.882 -0.0810  0.2510  0.0360
19907TIP3    H181212   2.886   3.507  12.840 -0.3244 -0.5099 -0.6205
19907TIP3    H281213   3.031   3.464  12.831  0.5791  1.9866  1.4856
19908TIP3   OH281214   6.187   3.260  13.990  0.2296  0.1118 -0.2168
19908TIP3    H181215   6.211   3.346  13.954 -1.6467  0.5544 -0.4659
19908TIP3    H281216   6.169   3.207  13.913  4.3656 -1.4704 -0.1977
19909TIP3   OH281217   3.531   6.359  11.064  0.3043 -0.0274  0.4904
19909TIP3    H181218   3.472   6.365  10.989  0.2870  2.9565  0.7149
19909TIP3    H281219   3.613   6.327  11.026 -0.1779 -0.1019 -0.5150
19910TIP3   OH281220   1.103   5.595  16.119 -0.6410  0.0504  0.0436
19910TIP3    H181221   1.079   5.571  16.208  1.0083 -1.7834  0.0350
19910TIP3    H281222   1.120   5.512  16.075 -0.6160  0.9714 -1.7487
19911TIP3   OH281223   3.005   1.545   4.880 -0.4306  0.2210  0.2487
19911TIP3    H181224   2.943   1.496   4.933  0.0741 -1.0659 -0.3439
19911TIP3    H281225   2.993   1.512   4.791  2.6768 -1.6789  0.4703
19912TIP3   OH281226   6.247   4.177  14.791  0.4544 -1.2668 -0.0117
19912TIP3    H181227   6.211   4.125  14.719  0.7193  0.7045 -1.6152
19912TIP3    H281228   6.337   4.147  14.800  0.6622 -0.9767 -1.0557
19913TIP3   OH281229   5.710   4.606  15.814 -0.1058  0.3207  0.6453
19913TIP3    H181230   5.691   4.541  15.882  1.7959 -2.5030 -1.4106
19913TIP3    H281231   5.768   4.669  15.856 -0.2706 -0.4732  2.1104
19914TIP3   OH281232   3.415   5.466   4.444 -0.6911  0.0901  0.0924
19914TIP3    H181233   3.440   5.376   4.464 -2.2741 -0.3236  0.2130
19914TIP3    H281234   3.499   5.512   4.437  0.1278 -1.3267  0.2627
19915TIP3   OH281235   2.071   1.881  12.919 -0.6110 -0.0690  0.1180
19915TIP3    H181236   2.099   1.859  12.831  3.3187  2.0125  0.7279
19915TIP3    H281237   2.102   1.807  12.973 -0.0952  0.1956  0.1878
19916TIP3   OH281238   3.903   6.041  16.369  0.5632  0.5115 -0.7558
19916TIP3    H181239   3.921   6.073  16.457  0.1491 -1.1424 -0.0635
19916TIP3    H281240   3.808   6.034  16.364  0.5795  0.6761 -1.3693
19917TIP3   OH281241   0.616   1.801  15.547 -0.0277 -0.2782  0.0000
19917TIP3    H181242   0.658   1.720  15.575  0.6050 -0.4959 -1.4955
19917TIP3    H281243   0.584   1.782  15.458  0.8685  1.3420 -0.7004
19918TIP3   OH281244   2.654   0.519   3.088 -0.0477 -0.1417  0.0788
19918TIP3    H181245   2.671   0.536   3.180  0.5465 -1.2875  0.1857
19918TIP3    H281246   2.713   0.447   3.065 -1.7807 -1.3826 -0.6145
19919TIP3   OH281247   0.556   2.993  14.803 -0.2022  0.2431 -0.7393
19919TIP3    H181248   0.644   3.021  14.828  0.4765 -1.2777 -1.3668
19919TIP3    H281249   0.533   2.927  14.868 -0.7626  0.4205 -0.7605
19920TIP3   OH281250   0.725   5.580   1.205  0.0930 -0.0023 -0.0507
19920TIP3    H181251   0.695   5.585   1.114 -0.0397  1.0096  0.0353
19920TIP3    H281252   0.648   5.549   1.253  0.1342 -0.4494 -0.2676
19921TIP3   OH281253   6.528   5.079  15.317  0.1196 -0.0681 -0.4872
19921TIP3    H181254   6.588   5.153  15.306 -0.2805  0.3060 -0.1759
19921TIP3    H281255   6.441   5.118  15.310 -0.1169 -0.2478  1.2978
19922TIP3   OH281256   5.517   5.748   2.907 -0.5609  0.0612 -0.5700
19922TIP3    H181257   5.545   5.685   2.841 -1.2939 -1.2372  0.3449
19922TIP3    H281258   5.550   5.832   2.875  1.6415 -0.9728 -1.0961
19923TIP3   OH281259   0.721   2.490  14.511  0.0873  0.1848  0.0707
19923TIP3    H181260   0.679   2.571  14.539 -0.4008 -0.4141  1.1108
19923TIP3    H281261   0.785   2.518  14.446  0.4935  1.4971  1.0100
19924TIP3   OH281262   4.132   2.509  16.741 -0.3419 -0.5002  0.2129
19924TIP3    H181263   4.131   2.576  16.809  1.0267 -0.2393 -0.0087
19924TIP3    H281264   4.154   2.556  16.661 -1.1451 -0.9346 -0.2745
19925TIP3   OH281265   0.530   0.267  17.013  0.1105  0.1821 -0.0279
19925TIP3    H181266   0.542   0.361  17.000  0.6904  0.1021 -0.0863
19925TIP3    H281267   0.498   0.236  16.928 -2.0242  0.6425  0.5869
19926TIP3   OH281268   3.038   5.438  15.399  0.4415  0.6017 -0.3754
19926TIP3    H181269   3.001   5.520  15.431 -0.3910 -0.0883  0.4645
19926TIP3    H281270   3.001   5.371  15.457  1.7067 -0.2811 -0.5660
19927TIP3   OH281271   2.381   1.446   0.695 -0.3023  0.0187  0.9552
19927TIP3    H181272   2.378   1.430   0.789 -0.1182  1.1991  1.1650
19927TIP3    H281273   2.474   1.452   0.674 -0.3638  0.5328  0.8270
19928TIP3   OH281274   3.834   1.212   5.991 -0.4041  0.3907  0.6708
19928TIP3    H181275   3.817   1.292   6.040 -0.4554  0.7445  0.0793
19928TIP3    H281276   3.789   1.143   6.040 -0.3378  0.7211  1.1907
19929TIP3   OH281277   0.447   0.365   4.762  0.3415  0.0301 -0.1526
19929TIP3    H181278   0.411   0.340   4.677 -0.6248 -0.3340  0.3626
19929TIP3    H281279   0.454   0.461   4.757  1.5320 -0.1026 -1.1279
19930TIP3   OH281280   6.022   4.279  15.677  0.6289  0.5134 -0.3578
19930TIP3    H181281   6.063   4.250  15.596  1.3279  1.6531 -0.4083
19930TIP3    H281282   6.081   4.249  15.747  0.9445  1.1032 -0.3679
19931TIP3   OH281283   4.851   1.957  13.738 -0.2175 -0.0994  0.0944
19931TIP3    H181284   4.879   1.866  13.727 -2.6884 -1.0940  1.5629
19931TIP3    H281285   4.771   1.964  13.686 -0.0877  1.2303  0.0581
19932TIP3   OH281286   6.541   4.028  11.329  0.4435 -0.3755 -0.3467
19932TIP3    H181287   6.503   3.952  11.372 -0.5372  0.6415  0.5905
19932TIP3    H281288   6.619   3.993  11.284 -0.4347 -2.0673 -0.5970
19933TIP3   OH281289   2.579   0.324  13.865  0.0913 -0.0782  0.6871
19933TIP3    H181290   2.493   0.327  13.824  0.4694  1.0255 -0.0535
19933TIP3    H281291   2.566   0.274  13.946 -0.3944 -3.4744 -1.3863
19934TIP3   OH281292   6.708   3.880  15.790 -0.1514  0.0480  0.4242
19934TIP3    H181293   6.729   3.836  15.707  0.1861  1.9011 -0.5077
19934TIP3    H281294   6.631   3.934  15.770 -1.7473 -1.5675  2.0578
19935TIP3   OH281295   0.949   1.786  16.370 -0.2293  0.7239 -0.1151
19935TIP3    H181296   0.934   1.867  16.419  1.6570  1.7743 -1.2401
19935TIP3    H281297   0.900   1.720  16.419 -3.7991  2.9501 -0.5394
19936TIP3   OH281298   5.290   5.328   2.460  0.3008  0.6249  0.4411
19936TIP3    H181299   5.330   5.264   2.518  1.3891 -0.0314 -1.0106
19936TIP3    H281300   5.330   5.313   2.375  0.0047  2.7234 -0.1151
19937TIP3   OH281301   1.501   3.529   2.113 -0.4549  0.3152  0.2204
19937TIP3    H181302   1.520   3.474   2.037 -0.3065 -0.1777  0.6128
19937TIP3    H281303   1.522   3.474   2.188 -1.4447  0.4911  0.6287
19938TIP3   OH281304   0.864   4.770  15.477 -0.1542  0.3909 -0.1282
19938TIP3    H181305   0.947   4.747  15.435 -0.6962 -2.6167  0.3509
19938TIP3    H281306   0.818   4.824  15.412  0.4178 -1.4328 -2.1053
19939TIP3   OH281307   5.972   5.884   0.897  0.1713  0.1630 -0.1447
19939TIP3    H181308   5.891   5.897   0.947  1.0969  2.1575  0.9171
19939TIP3    H281309   5.943   5.858   0.810 -1.5693 -0.1967  0.5181
19940TIP3   OH281310   1.577   4.297  16.692 -0.4481 -0.3268  0.2102
19940TIP3    H181311   1.541   4.322  16.777  2.4511 -2.8604  2.2458
19940TIP3    H281312   1.602   4.380  16.652 -1.8435  0.8969  1.7713
19941TIP3   OH281313   2.595   6.100   4.154  0.4353 -0.5144 -0.1005
19941TIP3    H181314   2.638   6.122   4.072 -2.2004  0.6616 -1.2206
19941TIP3    H281315   2.554   6.182   4.183 -0.8618 -1.5147  1.0226
19942TIP3   OH281316   3.719   2.087  10.901 -0.1912  0.3797  0.1548
19942TIP3    H181317   3.735   2.002  10.859 -0.8987 -0.3114  1.2718
19942TIP3    H281318   3.663   2.067  10.975  0.5936  1.6693  1.1172
19943TIP3   OH281319   6.509   1.089  15.864  0.7732  0.3275  0.6344
19943TIP3    H181320   6.461   1.027  15.918  1.4716  0.3219  1.2571
19943TIP3    H281321   6.577   1.037  15.821  0.0582  0.2837 -0.4546
19944TIP3   OH281322   2.077   1.959  11.505  0.2351 -0.4034 -0.1167
19944TIP3    H181323   2.170   1.968  11.489  0.1070 -0.1982 -0.7706
19944TIP3    H281324   2.068   1.872  11.543  0.7592 -0.1830  0.5147
19945TIP3   OH281325   4.691   4.610   1.205 -0.3182  0.0087  0.0762
19945TIP3    H181326   4.709   4.518   1.228  0.3004  0.2460  0.5545
19945TIP3    H281327   4.768   4.657   1.235 -1.2036  0.8732  0.9964
19946TIP3   OH281328   3.130   1.719  16.171 -0.0024  0.4692  0.1064
19946TIP3    H181329   3.116   1.628  16.149  0.9743  0.4792 -0.5754
19946TIP3    H281330   3.190   1.717  16.246 -0.0797  0.5472  0.1693
19947TIP3   OH281331   0.234   3.308  10.707 -0.3516 -0.0048 -0.1213
19947TIP3    H181332   0.308   3.276  10.759  1.3045  0.5821 -2.0114
19947TIP3    H281333   0.252   3.401  10.695 -1.2328  0.0817 -0.8445
19948TIP3   OH281334   6.403   5.718   3.009 -0.1794 -0.1973  0.0403
19948TIP3    H181335   6.416   5.773   3.086 -0.5185 -2.4267  1.7129
19948TIP3    H281336   6.484   5.670   2.999  0.3651  1.0624 -1.8305
19949TIP3   OH281337   3.303   4.837  12.095  0.1573  0.3683 -0.0796
19949TIP3    H181338   3.208   4.845  12.087 -0.1971  0.3572  3.2306
19949TIP3    H281339   3.337   4.920  12.062 -1.0543  0.7811 -0.3410
19950TIP3   OH281340   4.578   6.119   2.893  0.2967 -0.1857  0.0204
19950TIP3    H181341   4.555   6.106   2.801  1.1197 -0.2436 -0.1815
19950TIP3    H281342   4.555   6.037   2.936 -1.5350  0.3650  0.1753
19951TIP3   OH281343   4.092   1.309  12.786 -0.1157  0.2935 -0.2987
19951TIP3    H181344   4.068   1.361  12.862 -0.1318 -2.4775  1.6404
19951TIP3    H281345   4.010   1.269  12.757  0.3357 -0.7016 -0.2049
19952TIP3   OH281346   0.285   6.323  11.459  0.2823 -0.6159  0.1438
19952TIP3    H181347   0.314   6.406  11.497  0.4392  0.0564 -1.4030
19952TIP3    H281348   0.190   6.324  11.466  0.2426 -0.0103 -0.4608
19953TIP3   OH281349   5.342   4.859   4.474  0.1852 -0.5019  0.0853
19953TIP3    H181350   5.349   4.886   4.566 -2.1976  2.6105 -0.5586
19953TIP3    H281351   5.427   4.881   4.436  0.9013 -1.0427  1.3260
19954TIP3   OH281352   1.309   3.063  16.234 -0.0020 -0.3665  0.3444
19954TIP3    H181353   1.241   3.119  16.272 -0.6061 -0.7096 -0.2108
19954TIP3    H281354   1.265   3.018  16.161  1.0438  0.0223 -0.5413
19955TIP3   OH281355   0.830   5.453  16.592  0.1803 -0.9577  0.7190
19955TIP3    H181356   0.786   5.389  16.536 -0.6298 -1.2182  1.6213
19955TIP3    H281357   0.880   5.400  16.654 -0.7654 -0.7383  1.6841
19956TIP3   OH281358   4.061   0.737   1.795  0.0224  0.3726 -0.1520
19956TIP3    H181359   4.030   0.657   1.753 -0.4429  0.7006 -0.4368
19956TIP3    H281360   4.058   0.803   1.727  1.4558  0.3951 -0.2034
19957TIP3   OH281361   4.560   6.764   2.945  0.2890  0.4756  0.4269
19957TIP3    H181362   4.473   6.754   2.905  1.7485 -0.1865 -2.6994
19957TIP3    H281363   4.567   6.689   3.005 -1.0385  0.1864  0.2485
19958TIP3   OH281364   6.150   3.202  15.223  0.1136 -0.2249 -0.6394
19958TIP3    H181365   6.104   3.136  15.172 -0.4674 -0.9676  0.8157
19958TIP3    H281366   6.085   3.271  15.238 -0.2377 -0.7818  0.5005
19959TIP3   OH281367   5.309   0.598  12.349 -0.2513 -0.2030  0.0107
19959TIP3    H181368   5.360   0.677  12.363 -0.6440 -0.3382  2.3331
19959TIP3    H281369   5.374   0.530  12.334  0.1470  0.2216 -0.1849
19960TIP3   OH281370   5.352   1.242  14.868  0.6282 -0.1733  0.2147
19960TIP3    H181371   5.377   1.318  14.922  2.0069  0.1505 -0.8701
19960TIP3    H281372   5.281   1.200  14.918  0.6597  1.1455  1.4048
19961TIP3   OH281373   6.456   6.176   5.519 -0.2185  0.0675  0.3175
19961TIP3    H181374   6.551   6.189   5.519 -0.1330 -0.4624 -1.1666
19961TIP3    H281375   6.442   6.104   5.580  0.3365  0.0854  0.4706
19962TIP3   OH281376   5.148   0.551  11.852 -0.2456  0.1548 -0.3762
19962TIP3    H181377   5.210   0.616  11.887  1.4683 -1.0566 -1.1067
19962TIP3    H281378   5.161   0.554  11.758 -1.6803  0.2333 -0.5841
19963TIP3   OH281379   2.456   6.180  13.099  0.3646  0.0155 -0.3577
19963TIP3    H181380   2.363   6.199  13.100  0.2200 -0.6785  0.4907
19963TIP3    H281381   2.477   6.158  13.190  1.3684  0.2320 -0.5253
19964TIP3   OH281382   4.662   2.360   5.160 -0.0021 -0.5703 -0.2107
19964TIP3    H181383   4.756   2.365   5.181 -0.1739 -1.5868  0.8434
19964TIP3    H281384   4.630   2.287   5.212 -1.6449  0.5551  0.3717
19965TIP3   OH281385   2.058   1.331   2.508 -0.2606 -0.5525  0.1426
19965TIP3    H181386   2.141   1.309   2.466 -0.6535 -1.9290  0.0434
19965TIP3    H281387   2.083   1.360   2.596  0.3554 -0.5916 -0.0154
19966TIP3   OH281388   2.332   5.750   5.335 -1.0562  0.1139 -0.1543
19966TIP3    H181389   2.326   5.670   5.386 -1.1817  0.2756  0.0872
19966TIP3    H281390   2.350   5.818   5.400  1.7094 -0.0899 -0.6434
19967TIP3   OH281391   1.337   4.029   3.759  0.0069 -0.0142 -0.5415
19967TIP3    H181392   1.282   3.951   3.755 -0.0324 -0.0227  0.0634
19967TIP3    H281393   1.396   4.021   3.684 -0.6840 -0.1036 -1.0754
19968TIP3   OH281394   4.358   3.649  12.261  0.5126  0.4087 -0.0226
19968TIP3    H181395   4.342   3.565  12.218  0.2374 -0.2104  1.2934
19968TIP3    H281396   4.339   3.634  12.353 -0.4069  2.1612  0.0938
19969TIP3   OH281397   5.507   4.816  12.947  0.1132  0.0454 -0.1592
19969TIP3    H181398   5.461   4.801  12.864  1.4363  0.4824 -0.9999
19969TIP3    H281399   5.544   4.731  12.970 -1.1874 -0.3365  0.5862
19970TIP3   OH281400   5.769   3.186  13.631 -0.2970 -0.4012 -0.6272
19970TIP3    H181401   5.810   3.099  13.626 -1.8912 -1.3076  1.4963
19970TIP3    H281402   5.812   3.229  13.705 -2.8174 -1.2236  1.3906
19971TIP3   OH281403   4.327   6.767  16.814 -0.4665  0.0710 -0.0201
19971TIP3    H181404   4.273   6.826  16.760  0.1704  0.0448 -0.6937
19971TIP3    H281405   4.272   6.690  16.827 -1.1521  0.6415  0.5269
19972TIP3   OH281406   4.119   4.041   4.661  0.0735  0.1222 -0.2049
19972TIP3    H181407   4.171   3.993   4.597  1.2310  0.0237  0.7831
19972TIP3    H281408   4.095   3.975   4.726 -0.4549  0.3790 -0.1358
19973TIP3   OH281409   4.486   4.774   6.401  0.0694  0.1060 -0.2486
19973TIP3    H181410   4.533   4.825   6.467 -0.1826  1.1512 -0.8636
19973TIP3    H281411   4.396   4.808   6.403 -0.5021 -1.4106  0.4443
19974TIP3   OH281412   4.773   5.429  11.051  0.4797 -0.2347  0.3241
19974TIP3    H181413   4.692   5.442  11.100  0.2132 -0.5825 -0.0310
19974TIP3    H281414   4.767   5.489  10.977 -0.1138 -1.3467 -0.5288
19975TIP3   OH281415   2.154   0.922  13.266  0.0304 -0.0418 -0.5713
19975TIP3    H181416   2.062   0.906  13.285 -0.2219 -0.5236 -2.1466
19975TIP3    H281417   2.160   1.016  13.247  0.2738  0.4334  1.7359
19976TIP3   OH281418   3.278   5.260   4.180 -0.2736  0.6240  0.2377
19976TIP3    H181419   3.337   5.203   4.131  0.8081  0.7366  1.4016
19976TIP3    H281420   3.291   5.347   4.142 -1.3104  0.2843 -0.9680
19977TIP3   OH281421   2.247   1.399  16.894 -0.4021 -0.3304 -0.6658
19977TIP3    H181422   2.340   1.389  16.871 -0.1589  2.4596 -1.0958
19977TIP3    H281423   2.244   1.480  16.946 -2.1093 -2.3345  2.4733
19978TIP3   OH281424   1.055   5.881   1.831 -0.6275 -0.5018 -0.0842
19978TIP3    H181425   1.048   5.893   1.737 -2.5780  0.4009  0.1714
19978TIP3    H281426   1.049   5.786   1.843 -0.6604 -0.5983 -0.8295
19979TIP3   OH281427   4.143   4.216  17.155  0.1565  0.4323 -0.5141
19979TIP3    H181428   4.069   4.244  17.210 -1.4478 -2.8961 -0.8730
19979TIP3    H281429   4.214   4.199  17.217 -0.5294  0.1388  0.2081
19980TIP3   OH281430   3.256   6.006  15.080 -0.2238  0.8234 -0.3143
19980TIP3    H181431   3.168   6.029  15.112 -1.1199  0.2958 -2.3259
19980TIP3    H281432   3.310   6.082  15.102 -0.5340  0.0709  3.3412
19981TIP3   OH281433   3.573   4.185   5.521 -0.0723 -0.6034  0.1572
19981TIP3    H181434   3.661   4.221   5.534 -0.1745  0.8123 -2.6378
19981TIP3    H281435   3.588   4.096   5.488  0.3542 -0.0197 -1.2592
19982TIP3   OH281436   4.511   5.679  11.659  0.6044 -0.0066 -0.8574
19982TIP3    H181437   4.563   5.734  11.717  0.5593  1.5655 -2.2509
19982TIP3    H281438   4.421   5.688  11.691  1.1050 -2.6224  1.4714
19983TIP3   OH281439   4.313   5.964   2.918  0.0268  0.2000  0.1226
19983TIP3    H181440   4.379   5.914   2.966  0.1978  1.3432  1.1043
19983TIP3    H281441   4.313   5.925   2.830  1.8043 -0.0040  0.1857
19984TIP3   OH281442   5.048   0.124  16.910 -0.1586 -0.2050  0.1643
19984TIP3    H181443   5.031   0.030  16.903  2.7417 -0.7581 -0.2619
19984TIP3    H281444   5.098   0.144  16.831 -1.4339  1.8826 -0.1375
19985TIP3   OH281445   6.808   2.647  13.921  0.6186 -0.1311  0.5842
19985TIP3    H181446   6.805   2.717  13.856  0.8965 -0.9036 -0.2700
19985TIP3    H281447   6.730   2.661  13.974 -1.7093 -1.7551 -2.2837
19986TIP3   OH281448   3.954   0.506  16.949 -0.8028 -0.1985  0.4088
19986TIP3    H181449   3.985   0.470  16.866 -0.3471 -0.8314  0.8457
19986TIP3    H281450   4.033   0.539  16.992 -1.0986  0.5457  0.3980
19987TIP3   OH281451   5.220   3.544   1.521 -0.1330 -0.2638 -0.2724
19987TIP3    H181452   5.314   3.561   1.535 -0.3132 -0.5170  1.3508
19987TIP3    H281453   5.216   3.452   1.496  0.0429 -0.2798 -0.2450
19988TIP3   OH281454   4.602   1.400  17.068 -0.0113 -0.3958 -0.1872
19988TIP3    H181455   4.552   1.480  17.052 -0.4885 -0.3228  1.6096
19988TIP3    H281456   4.665   1.424  17.136  1.7823 -0.7765 -1.6689
19989TIP3   OH281457   4.553   4.770   4.927  0.1924 -0.3126  0.4349
19989TIP3    H181458   4.477   4.735   4.974 -0.9628 -0.9401 -1.8496
19989TIP3    H281459   4.591   4.694   4.884  1.2189  0.2729  0.3057
19990TIP3   OH281460   0.389   3.693   2.989 -0.4093 -0.1722 -0.5100
19990TIP3    H181461   0.417   3.655   3.073 -0.5091 -0.4599 -0.6100
19990TIP3    H281462   0.378   3.619   2.931  1.1747  0.1347 -1.2301
19991TIP3   OH281463   5.269   3.980   6.684 -0.3181  0.4708 -0.2694
19991TIP3    H181464   5.299   3.952   6.771 -0.9168 -0.4730 -0.3598
19991TIP3    H281465   5.330   3.938   6.623 -0.6207  0.1670 -0.3619
19992TIP3   OH281466   4.316   4.124   1.836 -0.2230  0.3346  0.1226
19992TIP3    H181467   4.228   4.112   1.800  0.4548  0.3991 -1.6366
19992TIP3    H281468   4.340   4.213   1.810  1.0000 -0.2747 -0.8750
19993TIP3   OH281469   5.525   4.884   3.031 -0.4995  0.6027 -0.0458
19993TIP3    H181470   5.524   4.850   3.121 -1.2611 -0.2172 -0.3551
19993TIP3    H281471   5.475   4.820   2.981  0.8925  0.4566 -1.2790
19994TIP3   OH281472   0.341   1.024  12.764  0.2554 -0.3276  0.4833
19994TIP3    H181473   0.288   1.079  12.821 -1.0373 -1.1480  0.0963
19994TIP3    H281474   0.351   0.942  12.812 -1.1650 -1.1647 -0.6018
19995TIP3   OH281475   4.401   5.554   6.535 -0.2692  0.3197  0.3239
19995TIP3    H181476   4.450   5.526   6.613 -0.0448  1.3778  0.5680
19995TIP3    H281477   4.431   5.643   6.518 -0.6785  0.2717 -0.6897
19996TIP3   OH281478   3.325   2.252   1.272 -0.2487  0.2890 -0.2286
19996TIP3    H181479   3.390   2.185   1.292 -0.1931  0.6658  0.9199
19996TIP3    H281480   3.247   2.203   1.244  0.3594 -0.1799 -1.1070
19997TIP3   OH281481   3.302   2.025   4.026  0.9322  0.3134 -0.0734
19997TIP3    H181482   3.345   2.095   4.076  1.2170 -0.1380  0.3255
19997TIP3    H281483   3.368   1.997   3.963  0.3094  1.4019 -1.2237
19998TIP3   OH281484   2.145   1.449  11.728  0.1304  0.0436  0.0893
19998TIP3    H181485   2.091   1.373  11.753 -0.8274  0.1125 -1.6805
19998TIP3    H281486   2.130   1.513  11.797  0.3109 -1.0764  1.1815
19999TIP3   OH281487   0.909   1.962   5.121 -0.0014  0.3913  0.4746
19999TIP3    H181488   0.938   1.885   5.073 -0.1628  0.6080  0.0282
19999TIP3    H281489   0.819   1.942   5.148  0.2460  0.0863  1.0786
20000TIP3   OH281490   0.976   1.115  13.827 -0.0340 -0.2870 -0.5312
20000TIP3    H181491   1.055   1.144  13.782 -0.9203 -0.0074 -1.9286
20000TIP3    H281492   0.991   1.022  13.845 -0.9548 -1.2743 -4.3413
20001TIP3   OH281493   5.456   5.814  15.198 -0.4754  0.2896 -0.3496
20001TIP3    H181494   5.530   5.869  15.223 -0.1961  0.9948 -2.6504
20001TIP3    H281495   5.421   5.782  15.281  2.6363 -0.3871  0.7578
20002TIP3   OH281496   1.161   4.070  16.557 -0.2118  0.2316  0.4613
20002TIP3    H181497   1.236   4.045  16.610 -0.5007 -1.3389  0.1509
20002TIP3    H281498   1.184   4.043  16.468  0.1854  2.6616 -0.2156
20003TIP3   OH281499   0.805   1.545   6.476  0.1870 -0.3617  0.2516
20003TIP3    H181500   0.744   1.472   6.466 -0.5173  0.0649  1.3594
20003TIP3    H281501   0.810   1.584   6.389  0.7106 -1.8262 -0.3904
20004TIP3   OH281502   5.915   6.163   1.499  0.0474  0.2212 -0.2929
20004TIP3    H181503   5.841   6.131   1.448  0.7707  1.5606 -2.2671
20004TIP3    H281504   5.945   6.088   1.549 -1.4837 -0.7988 -0.8801
20005TIP3   OH281505   0.542   4.246  12.819 -0.1087  0.1329  0.1508
20005TIP3    H181506   0.551   4.271  12.727  1.7907  0.6769  0.4665
20005TIP3    H281507   0.587   4.161  12.825 -1.0139 -0.3395  0.4045
20006TIP3   OH281508   5.706   5.326  12.767  0.1757 -0.5497  0.0352
20006TIP3    H181509   5.772   5.380  12.811 -0.6042  1.0311 -0.6806
20006TIP3    H281510   5.751   5.290  12.691  0.0636  1.0184 -0.7886
20007TIP3   OH281511   0.744   1.559   1.344  0.0072  0.1295 -0.5744
20007TIP3    H181512   0.802   1.486   1.366  1.0382  1.0020 -0.3435
20007TIP3    H281513   0.733   1.553   1.249 -0.2871 -0.6040 -0.4953
20008TIP3   OH281514   6.106   1.363  16.123 -0.2198  0.2339 -0.1722
20008TIP3    H181515   6.118   1.428  16.054 -0.4949  0.1147 -0.3306
20008TIP3    H281516   6.156   1.397  16.197 -1.3553  1.2450  0.1496
20009TIP3   OH281517   2.006   6.228  11.929  1.3980  0.8299  0.4102
20009TIP3    H181518   2.089   6.262  11.896  0.8745 -0.5659 -2.4445
20009TIP3    H281519   1.939   6.277  11.881  0.6272 -1.3140 -0.7481
20010TIP3   OH281520   2.299   3.434  16.020  0.5119 -0.0797  0.2064
20010TIP3    H181521   2.227   3.466  15.966  0.0126  0.2307  1.0503
20010TIP3    H281522   2.277   3.462  16.109  0.9897 -1.1625  0.6775
20011TIP3   OH281523   4.802   5.820   5.189  0.4670 -0.4311  0.2766
20011TIP3    H181524   4.884   5.836   5.236  0.8109 -0.4215 -0.3218
20011TIP3    H281525   4.787   5.901   5.140 -0.6027  0.0787  1.4303
20012TIP3   OH281526   6.507   5.855  11.792  0.0615  0.3165  0.1199
20012TIP3    H181527   6.437   5.876  11.731  0.7386 -0.7058 -1.0357
20012TIP3    H281528   6.508   5.759  11.796  1.7373  0.3001 -0.3073
20013TIP3   OH281529   2.236   6.103   1.619  0.3154  0.9475  0.1733
20013TIP3    H181530   2.221   6.195   1.598 -1.5512  0.8618  1.0136
20013TIP3    H281531   2.148   6.065   1.625  0.9430 -0.2513  2.5151
20014TIP3   OH281532   5.180   2.362  15.964 -0.2834 -0.3313 -0.0958
20014TIP3    H181533   5.089   2.369  15.992 -0.4153  0.8131 -0.7902
20014TIP3    H281534   5.227   2.426  16.018  0.1504 -1.0675  0.4121
20015TIP3   OH281535   5.034   5.220   2.272  0.0857  1.0433 -0.0837
20015TIP3    H181536   5.029   5.126   2.251  0.8864  1.3233 -1.5777
20015TIP3    H281537   5.127   5.235   2.291 -0.1912  1.3607  1.0343
20016TIP3   OH281538   6.494   2.777   3.968  0.1279  0.7668  0.0932
20016TIP3    H181539   6.578   2.787   4.013  0.0689  1.0839  0.1312
20016TIP3    H281540   6.474   2.684   3.976 -0.0731  0.8829  1.0689
20017TIP3   OH281541   4.724   0.735   6.137  0.5842  1.0798 -0.6988
20017TIP3    H181542   4.804   0.726   6.189  0.0195  0.1677  0.0225
20017TIP3    H281543   4.675   0.804   6.182 -0.9297 -1.2586  1.3417
20018TIP3   OH281544   6.326   5.389   2.277 -0.6761 -0.0770  0.0027
20018TIP3    H181545   6.333   5.480   2.305 -0.8752  0.1141 -0.5508
20018TIP3    H281546   6.402   5.346   2.315 -1.9548 -0.2645  2.4721
20019TIP3   OH281547   6.058   3.415  15.728  0.4483  0.1859  0.2918
20019TIP3    H181548   6.024   3.432  15.640  0.0512  1.3407  0.6569
20019TIP3    H281549   6.116   3.489  15.746  0.7621 -0.1999  0.8792
20020TIP3   OH281550   2.947   6.358   5.756 -0.0387 -0.3938  0.0896
20020TIP3    H181551   2.950   6.320   5.668  0.1362 -0.9450  0.3367
20020TIP3    H281552   2.865   6.326   5.793 -0.2592  0.0838  0.0171
20021TIP3   OH281553   3.329   3.929   4.775  0.0879  1.2370 -0.0612
20021TIP3    H181554   3.282   3.941   4.857  0.0603  1.0488 -0.0509
20021TIP3    H281555   3.420   3.950   4.796  0.1471  0.8118  0.1082
20022TIP3   OH281556   5.214   0.653   1.094 -0.3274  0.0007 -0.1208
20022TIP3    H181557   5.156   0.627   1.166 -1.4093 -0.3314 -1.0991
20022TIP3    H281558   5.258   0.732   1.126 -1.7009  0.5479  0.4357
20023TIP3   OH281559   4.898   0.921  14.809  0.1810  0.0084 -0.0488
20023TIP3    H181560   4.940   0.875  14.736 -0.6948 -0.6447 -0.1465
20023TIP3    H281561   4.882   0.854  14.874 -0.8305  0.2229 -0.0692
20024TIP3   OH281562   5.169   4.162  11.197 -0.4107 -0.2333  0.1788
20024TIP3    H181563   5.167   4.176  11.102 -0.6716  2.2724  0.5108
20024TIP3    H281564   5.081   4.183  11.226 -0.3519 -1.0612  0.9786
20025TIP3   OH281565   6.194   2.952  15.549 -0.9823 -0.0214  0.3832
20025TIP3    H181566   6.219   3.040  15.520 -0.7271 -0.0813  0.4253
20025TIP3    H281567   6.105   2.963  15.584 -0.7786  0.3100  0.8046
20026TIP3   OH281568   5.405   3.116   4.903 -0.4002 -0.0176  0.1885
20026TIP3    H181569   5.368   3.101   4.816  0.2450 -1.1356  0.0932
20026TIP3    H281570   5.499   3.103   4.891 -0.0125  2.2751  0.5288
20027TIP3   OH281571   4.667   0.576  11.927 -0.2360 -0.1755 -0.2913
20027TIP3    H181572   4.744   0.629  11.907 -0.5096  0.3569  0.0497
20027TIP3    H281573   4.698   0.486  11.926 -0.0053 -0.1065 -2.0939
20028TIP3   OH281574   6.689   2.482   4.319 -0.2468  0.3133  0.0128
20028TIP3    H181575   6.615   2.543   4.312  1.7962  2.8093 -0.7804
20028TIP3    H281576   6.735   2.509   4.398  2.5910  2.1331 -2.1373
20029TIP3   OH281577   1.990   5.998  11.269  0.3462  0.7948 -0.5945
20029TIP3    H181578   2.076   5.959  11.286  0.0979  0.4177 -0.1654
20029TIP3    H281579   1.985   6.072  11.331  0.0789  0.3836 -0.1198
20030TIP3   OH281580   5.134   3.356  14.010  0.0569  0.2509  0.1850
20030TIP3    H181581   5.047   3.390  13.988 -0.6036 -1.8749 -0.5925
20030TIP3    H281582   5.185   3.434  14.031 -1.4934  1.7001 -1.2522
20031TIP3   OH281583   5.480   2.143   3.219 -0.7994  0.0981 -0.1065
20031TIP3    H181584   5.565   2.178   3.190 -0.8469  0.7038  0.4863
20031TIP3    H281585   5.447   2.207   3.282 -0.8754 -1.0086  1.0124
20032TIP3   OH281586   4.189   0.500  12.567  0.3256  0.0252 -0.0541
20032TIP3    H181587   4.148   0.538  12.645  2.7890  1.9647  0.3671
20032TIP3    H281588   4.280   0.485  12.593  0.7871 -0.8475 -2.0652
20033TIP3   OH281589   2.509   3.319  15.377  0.7377 -0.3054 -0.0295
20033TIP3    H181590   2.520   3.283  15.465  2.2273 -1.1939 -0.5610
20033TIP3    H281591   2.419   3.299  15.353  0.7311 -1.2565  0.7714
20034TIP3   OH281592   4.970   5.441   5.967  0.1226 -0.0779 -0.0631
20034TIP3    H181593   4.961   5.389   5.887  0.5882  0.8882 -0.7670
20034TIP3    H281594   5.046   5.497   5.949  1.6224 -1.4204  1.9325
20035TIP3   OH281595   0.349   4.169  12.427  0.0876  0.3030  0.7875
20035TIP3    H181596   0.271   4.188  12.480  2.5603  1.4450  4.2263
20035TIP3    H281597   0.376   4.254  12.393 -0.2113 -0.1080 -0.4783
20036TIP3   OH281598   6.150   6.171   4.510  0.1717 -0.7488 -0.8379
20036TIP3    H181599   6.114   6.209   4.431 -1.1375 -0.6686 -0.2056
20036TIP3    H281600   6.074   6.147   4.563  1.0283 -0.2313  0.6745
20037TIP3   OH281601   2.692   3.631   3.428  0.1072  0.4976  0.0608
20037TIP3    H181602   2.770   3.673   3.392  0.6075 -0.6880 -0.2867
20037TIP3    H281603   2.623   3.650   3.364  0.7699 -0.7791 -1.0787
20038TIP3   OH281604   6.272   0.152  16.953 -0.1924 -0.1987 -0.6281
20038TIP3    H181605   6.265   0.247  16.947 -1.9664 -0.3663 -1.4612
20038TIP3    H281606   6.255   0.132  17.045 -1.0450  0.1942 -0.7010
20039TIP3   OH281607   5.291   3.057   4.665  0.4486 -0.4614  0.7483
20039TIP3    H181608   5.198   3.072   4.646  0.5137  2.3391  2.3539
20039TIP3    H281609   5.335   3.134   4.629  2.2109 -1.9003 -0.2584
20040TIP3   OH281610   5.459   5.873  13.675 -0.4423 -0.1802 -0.0095
20040TIP3    H181611   5.400   5.856  13.602 -1.0565 -1.7375  0.8341
20040TIP3    H281612   5.494   5.787  13.699  0.4344  0.4300  0.9664
20041TIP3   OH281613   5.917   6.167  11.541 -0.2463 -0.1966  0.2733
20041TIP3    H181614   5.868   6.205  11.468  3.2347  2.7348 -0.6791
20041TIP3    H281615   5.871   6.199  11.619 -0.6359  1.4466 -0.5992
20042TIP3   OH281616   3.829   1.235   5.330  0.6950 -0.0799  0.2620
20042TIP3    H181617   3.811   1.233   5.424 -0.7272 -0.3949  0.0022
20042TIP3    H281618   3.757   1.287   5.293  0.9718 -0.3658 -0.6989
20043TIP3   OH281619   2.860   6.030  13.263 -0.3817  0.1254 -0.1317
20043TIP3    H181620   2.875   5.966  13.193 -0.2000 -0.3151  0.3095
20043TIP3    H281621   2.948   6.057  13.289 -0.4509  0.2929 -0.0720
20044TIP3   OH281622   5.292   3.246   0.641  0.4626  0.1454  0.0983
20044TIP3    H181623   5.224   3.296   0.596  1.0939  1.8488  1.0151
20044TIP3    H281624   5.247   3.166   0.670 -0.6770  0.3983 -0.9358
20045TIP3   OH281625   3.995   1.494   5.202  0.2985 -0.2349 -0.2168
20045TIP3    H181626   3.959   1.406   5.193 -0.7738  0.2086 -0.2543
20045TIP3    H281627   3.998   1.510   5.297  0.8986 -0.4700 -0.1906
20046TIP3   OH281628   5.710   5.016   2.715 -0.1189 -0.5679  0.1746
20046TIP3    H181629   5.798   5.036   2.749 -0.1645  1.2483 -0.7084
20046TIP3    H281630   5.651   5.043   2.784 -0.0330 -0.7596  0.3240
20047TIP3   OH281631   5.528   1.916  11.771  0.2983  0.2585  0.3178
20047TIP3    H181632   5.524   1.968  11.851  0.8944  0.5264  0.1804
20047TIP3    H281633   5.500   1.828  11.798  2.0076 -0.0524  1.1806
20048TIP3   OH281634   6.158   3.074   2.084  0.2765  0.4883  0.1129
20048TIP3    H181635   6.100   3.067   2.160  3.0801  1.2939  2.4420
20048TIP3    H281636   6.196   2.987   2.074  0.2768  0.5076 -0.0626
20049TIP3   OH281637   0.664   1.665  13.969  0.3836  0.2372  0.3446
20049TIP3    H181638   0.645   1.577  14.002  1.1260  0.2733  0.8805
20049TIP3    H281639   0.585   1.715  13.992  0.0084 -0.2523  0.1476
20050TIP3   OH281640   3.978   0.724  15.518  0.2764  0.0507  0.3452
20050TIP3    H181641   3.906   0.733  15.581  0.4408 -1.0928  0.7063
20050TIP3    H281642   4.005   0.814  15.500 -2.4342  0.6210 -1.2034
20051TIP3   OH281643   1.009   3.630   5.015  0.6968 -0.0298  0.4791
20051TIP3    H181644   0.941   3.684   5.055 -0.0171  0.6130 -1.5772
20051TIP3    H281645   0.984   3.540   5.037 -0.7630  0.2034 -0.1696
20052TIP3   OH281646   4.286   6.794  14.479 -0.2409  0.2690  0.4019
20052TIP3    H181647   4.375   6.828  14.471 -0.8723  2.1625  1.2770
20052TIP3    H281648   4.263   6.808  14.570 -2.5582  2.6498 -0.4939
20053TIP3   OH281649   5.782   2.366   6.720 -0.2270  0.8237 -0.1512
20053TIP3    H181650   5.735   2.419   6.784  2.1875  2.6571  0.1856
20053TIP3    H281651   5.870   2.358   6.756 -0.3628 -3.0348 -0.4659
20054TIP3   OH281652   6.571   2.838  12.598  0.1401 -0.0844 -0.1850
20054TIP3    H181653   6.641   2.793  12.550 -0.8080 -0.9837 -0.7442
20054TIP3    H281654   6.508   2.864  12.530 -2.3830 -3.4587  0.7486
20055TIP3   OH281655   4.143   2.546  11.629 -0.0684 -0.0989 -0.1546
20055TIP3    H181656   4.120   2.638  11.640  0.1289  0.0607 -1.0186
20055TIP3    H281657   4.201   2.526  11.702  1.1516  0.8960 -0.8317
20056TIP3   OH281658   3.220   2.124  15.310  0.2345  0.0994  0.1524
20056TIP3    H181659   3.281   2.197  15.308  0.2989  0.0975  1.5195
20056TIP3    H281660   3.222   2.093  15.401 -1.0124 -0.5610 -0.0280
20057TIP3   OH281661   3.387   5.660   5.175  0.4271 -0.0537  0.6439
20057TIP3    H181662   3.297   5.686   5.198  0.3331 -0.7607  1.0856
20057TIP3    H281663   3.388   5.663   5.080  0.1941  0.8218  0.6598
20058TIP3   OH281664   2.907   0.110  12.846 -0.3545  0.5959  0.2739
20058TIP3    H181665   2.960   0.188  12.832 -0.2032  0.1450 -1.8817
20058TIP3    H281666   2.821   0.133  12.810 -0.3895 -0.1386 -0.1126
20059TIP3   OH281667   3.895   2.871  13.054  0.1105  0.6009  0.3343
20059TIP3    H181668   3.879   2.876  12.960 -0.3928  2.9690  0.5160
20059TIP3    H281669   3.941   2.788  13.066  1.5559  0.9789 -2.2116
20060TIP3   OH281670   2.697   2.503  12.429  0.7655  0.0581 -0.1334
20060TIP3    H181671   2.789   2.492  12.453  0.5300 -1.6247  0.0125
20060TIP3    H281672   2.697   2.578  12.368  2.5265 -1.3069 -1.8707
20061TIP3   OH281673   1.447   1.348   2.726  0.7505 -0.2087 -0.2162
20061TIP3    H181674   1.412   1.295   2.797  1.0259 -2.2956 -1.5909
20061TIP3    H281675   1.501   1.414   2.770  0.2874 -0.9580  1.5328
20062TIP3   OH281676   2.905   3.103  11.256  0.2729  0.3584 -0.3356
20062TIP3    H181677   2.833   3.052  11.220  1.8392 -2.7301  0.7127
20062TIP3    H281678   2.965   3.116  11.182  1.1091 -1.6416 -0.0364
20063TIP3   OH281679   0.088   1.949   5.058  0.2808  0.1669  0.0374
20063TIP3    H181680   0.034   2.004   5.003 -0.7410 -0.2191  0.6351
20063TIP3    H281681   0.101   1.869   5.007  0.1865  0.2183 -0.0663
20064TIP3   OH281682   3.304   4.879  12.865  1.6045  0.1456  0.4883
20064TIP3    H181683   3.301   4.922  12.779  0.8572 -0.7400  0.0603
20064TIP3    H281684   3.239   4.809  12.859  4.7713 -2.8775  0.2082
20065TIP3   OH281685   4.892   6.540  15.027  0.9787  1.2956 -0.1060
20065TIP3    H181686   4.820   6.602  15.042  0.3094  0.8617 -1.3778
20065TIP3    H281687   4.962   6.594  14.991  0.5471  1.3967 -0.8112
20066TIP3   OH281688   6.239   0.157   4.332  0.2161 -0.1376 -0.0138
20066TIP3    H181689   6.199   0.217   4.395 -1.4126 -0.0396 -1.1282
20066TIP3    H281690   6.183   0.080   4.331  1.7690 -1.3099  0.6869
20067TIP3   OH281691   2.084   2.412   5.349  0.2503 -0.2911 -0.2937
20067TIP3    H181692   2.112   2.492   5.392 -0.7714  0.8392 -1.6948
20067TIP3    H281693   2.153   2.392   5.286  0.9136 -0.9876  0.6499
20068TIP3   OH281694   5.908   1.667   2.900  0.2876  0.3600  0.4512
20068TIP3    H181695   5.948   1.592   2.855  0.1861  0.3668  0.3508
20068TIP3    H281696   5.814   1.650   2.898  0.3633 -0.3975  2.0019
20069TIP3   OH281697   1.661   1.701  11.327  0.5374  0.4102 -0.2071
20069TIP3    H181698   1.634   1.785  11.290  1.0430  0.7067  0.0935
20069TIP3    H281699   1.721   1.724  11.398  2.5456 -0.2700 -1.6537
20070TIP3   OH281700   4.426   3.152   0.313  0.1390 -0.1438  0.3816
20070TIP3    H181701   4.479   3.228   0.336  0.0814  0.0346 -0.0733
20070TIP3    H281702   4.360   3.186   0.252  1.0567 -0.8409 -1.0278
20071TIP3   OH281703   1.278   4.918   3.291  0.2953 -0.9426  0.2911
20071TIP3    H181704   1.253   4.985   3.354 -0.1557 -2.6884  2.0013
20071TIP3    H281705   1.208   4.919   3.226  1.0742  1.2848 -0.5794
20072TIP3   OH281706   1.277   1.988  16.209  0.3810 -0.4452  0.6956
20072TIP3    H181707   1.357   1.989  16.155  0.8616 -1.0998  1.3780
20072TIP3    H281708   1.229   1.910  16.179  0.5977 -0.7498  1.1306
20073TIP3   OH281709   4.516   5.626   1.615 -0.5273 -0.2612 -0.1852
20073TIP3    H181710   4.588   5.639   1.555  2.2286  4.1323  3.7346
20073TIP3    H281711   4.534   5.541   1.657  0.9269 -0.4037 -1.0909
20074TIP3   OH281712   1.444   6.733   5.004  0.2087  0.5813  0.2405
20074TIP3    H181713   1.436   6.825   4.976 -0.4684 -0.3942 -2.9520
20074TIP3    H281714   1.379   6.687   4.951  0.2422 -1.6949  2.1391
20075TIP3   OH281715   3.553   3.504   3.679 -0.1604 -0.2206  0.3412
20075TIP3    H181716   3.590   3.462   3.757 -2.0765 -0.9634  0.8821
20075TIP3    H281717   3.464   3.527   3.704 -0.3834  0.6870 -1.2333
20076TIP3   OH281718   3.777   0.827   4.756  0.0243 -0.0459  0.3958
20076TIP3    H181719   3.751   0.906   4.804  3.2038  1.0908  0.3567
20076TIP3    H281720   3.865   0.847   4.724  0.2457 -3.0305 -0.9570
20077TIP3   OH281721   5.364   1.090   3.744  0.1449  0.1045 -0.5836
20077TIP3    H181722   5.440   1.034   3.727 -0.3720 -0.5788 -0.6727
20077TIP3    H281723   5.307   1.037   3.800 -0.0165  0.8204 -0.0579
20078TIP3   OH281724   3.550   2.829   2.226 -0.5949 -0.1608 -0.0960
20078TIP3    H181725   3.548   2.925   2.225 -0.0800 -0.1533 -1.2068
20078TIP3    H281726   3.517   2.804   2.140 -0.4402 -0.9832  0.0818
20079TIP3   OH281727   0.978   5.141  15.532  0.1444  0.2530 -0.0585
20079TIP3    H181728   1.074   5.143  15.535  0.1293  2.5774 -0.4187
20079TIP3    H281729   0.958   5.151  15.439 -0.4746  2.0338  0.2600
20080TIP3   OH281730   5.735   3.692   3.358  0.1168 -0.0590 -0.4737
20080TIP3    H181731   5.784   3.650   3.428  1.1864  0.7116 -0.7405
20080TIP3    H281732   5.701   3.773   3.397  0.5840  0.2947 -0.7926
20081TIP3   OH281733   5.453   2.574  14.951 -0.6202 -0.2742  0.6946
20081TIP3    H181734   5.377   2.517  14.940 -0.2203 -0.6674 -0.1112
20081TIP3    H281735   5.505   2.559  14.872  0.5989 -0.4808  1.5276
20082TIP3   OH281736   0.299   0.486  13.677  0.0321 -0.0605 -0.4053
20082TIP3    H181737   0.207   0.514  13.672  0.2212  0.4778 -0.9511
20082TIP3    H281738   0.336   0.541  13.746  0.3575  0.9073 -1.3491
20083TIP3   OH281739   3.697   6.715  13.684  0.0188 -0.6818 -0.3586
20083TIP3    H181740   3.686   6.665  13.604 -0.3036  0.8550 -1.2948
20083TIP3    H281741   3.760   6.783  13.662 -0.6671  0.2372  0.4587
20084TIP3   OH281742   3.783   0.889   0.914  0.2671 -0.0290 -0.7498
20084TIP3    H181743   3.755   0.918   1.001 -1.1524 -1.8723 -0.5519
20084TIP3    H281744   3.860   0.941   0.894  1.9523 -1.1417  2.5839
20085TIP3   OH281745   3.477   5.504   3.265  0.5842 -0.3000  0.6708
20085TIP3    H181746   3.465   5.474   3.355 -1.1590  0.6503  0.7775
20085TIP3    H281747   3.388   5.522   3.234  1.0784 -1.3775 -1.5075
20086TIP3   OH281748   2.175   1.504  10.820 -0.1994  0.5907  0.3122
20086TIP3    H181749   2.095   1.556  10.818 -0.3083  0.3956 -1.9957
20086TIP3    H281750   2.233   1.545  10.756  0.0045 -1.6148 -0.9969
20087TIP3   OH281751   5.026   5.693   3.113 -0.8917  0.1450  0.5481
20087TIP3    H181752   4.990   5.763   3.168 -1.2960 -1.0033  1.7772
20087TIP3    H281753   5.092   5.736   3.059 -1.4691  1.5646  0.9452
20088TIP3   OH281754   2.776   6.306   1.259  0.5308 -0.8658  0.2891
20088TIP3    H181755   2.854   6.348   1.294 -0.9311  1.3409  1.0335
20088TIP3    H281756   2.763   6.229   1.314  0.4875  0.4204  2.1115
20089TIP3   OH281757   6.715   4.213   4.831 -0.3500 -0.1892  0.1797
20089TIP3    H181758   6.693   4.304   4.850  0.1137 -0.1283  0.4420
20089TIP3    H281759   6.643   4.162   4.868  0.7229 -0.0986  2.5241
20090TIP3   OH281760   2.886   3.644   0.004 -0.6711 -0.3979 -0.6891
20090TIP3    H181761   2.873   3.630  -0.089  3.2763  0.8637 -1.5103
20090TIP3    H281762   2.903   3.556   0.039 -0.1577 -0.6352 -1.5150
20091TIP3   OH281763   0.881   4.136  13.653  0.3297 -0.2787  0.4420
20091TIP3    H181764   0.808   4.089  13.614  0.4193  1.5950 -2.0758
20091TIP3    H281765   0.841   4.210  13.699  0.5831  0.3496 -0.3429
20092TIP3   OH281766   0.558   1.999  11.806 -0.1683 -0.2546 -0.5355
20092TIP3    H181767   0.608   1.959  11.735 -0.9247 -0.0694 -1.1795
20092TIP3    H281768   0.522   2.079  11.767  1.2838  1.0583  0.7053
20093TIP3   OH281769   6.157   5.066  10.609  0.0783 -0.2969  0.2564
20093TIP3    H181770   6.174   4.998  10.674 -0.9530  0.4068  1.2814
20093TIP3    H281771   6.220   5.048  10.539  0.5690 -1.6292  1.0130
20094TIP3   OH281772   1.921   5.249   3.902  0.0603  0.2742  0.5593
20094TIP3    H181773   1.946   5.227   3.992 -1.0851 -1.4179  0.4948
20094TIP3    H281774   1.993   5.215   3.848 -0.3204 -0.7624  0.6855
20095TIP3   OH281775   0.614   3.220  11.424 -0.2197 -0.2802  0.1075
20095TIP3    H181776   0.578   3.146  11.375  1.6640  0.3550 -2.3153
20095TIP3    H281777   0.556   3.293  11.404  0.1406 -0.1903 -0.6066
20096TIP3   OH281778   4.000   5.639  15.754 -0.0240 -0.0225 -0.0935
20096TIP3    H181779   4.095   5.633  15.745 -0.0990  0.2065 -1.0507
20096TIP3    H281780   3.968   5.656  15.666 -0.7114  3.2866  0.7226
20097TIP3   OH281781   6.552   4.879   5.966  0.0213  0.0280  0.2277
20097TIP3    H181782   6.474   4.930   5.988  0.7927  2.0272 -1.4010
20097TIP3    H281783   6.518   4.793   5.940 -1.5794  0.6625  0.1470
20098TIP3   OH281784   2.461   6.770   0.458 -0.2080 -0.2330 -0.4183
20098TIP3    H181785   2.412   6.689   0.467 -0.8057  0.3789  2.0055
20098TIP3    H281786   2.423   6.813   0.381 -1.4597 -1.1402 -0.3106
20099TIP3   OH281787   2.204   3.875   3.413 -0.7684 -0.0545 -0.1474
20099TIP3    H181788   2.114   3.907   3.414 -0.8707 -0.3523 -0.1020
20099TIP3    H281789   2.198   3.786   3.378 -0.7199 -0.7969  1.7288
20100TIP3   OH281790   3.899   0.738   3.987  0.5059 -0.1386 -0.3976
20100TIP3    H181791   3.931   0.818   3.945 -1.6800  0.9148 -0.1261
20100TIP3    H281792   3.973   0.706   4.039  2.0863  0.5236 -2.1782
20101TIP3   OH281793   0.907   5.082   1.101  1.0023  0.4923  0.2740
20101TIP3    H181794   0.839   5.145   1.128  0.7232  1.4837 -2.5558
20101TIP3    H281795   0.868   4.997   1.119 -0.4917  1.0684 -0.0754
20102TIP3   OH281796   3.295   2.944  17.076  0.0833 -0.2057  0.5943
20102TIP3    H181797   3.343   2.881  17.023  0.9218  2.7082 -2.2857
20102TIP3    H281798   3.203   2.933  17.050  0.0464 -1.1461  1.1097
20103TIP3   OH281799   0.177   0.228   3.316 -0.0704 -0.0924 -1.1605
20103TIP3    H181800   0.249   0.190   3.366  0.8165  2.1818 -0.6755
20103TIP3    H281801   0.103   0.229   3.377  0.3500  0.4314 -0.6483
20104TIP3   OH281802   5.142   5.138   3.953 -0.6627  0.5233 -0.0384
20104TIP3    H181803   5.118   5.094   3.871 -2.6218  0.7957  0.3663
20104TIP3    H281804   5.102   5.084   4.021  0.1613  0.8330  0.6925
20105TIP3   OH281805   6.525   2.713   4.381 -0.2585 -0.0606  0.4223
20105TIP3    H181806   6.451   2.723   4.320 -0.1501  1.7452  0.5554
20105TIP3    H281807   6.495   2.753   4.462  0.1951 -1.0112  1.0669
20106TIP3   OH281808   0.131   5.146  14.137 -0.0013  0.4361  0.5361
20106TIP3    H181809   0.216   5.182  14.161  0.8767 -2.1068  1.3316
20106TIP3    H281810   0.147   5.053  14.123 -2.5496  0.0222  0.1547
20107TIP3   OH281811   2.880   0.792   3.165 -0.1279 -0.0848 -0.1409
20107TIP3    H181812   2.904   0.778   3.073 -0.9282 -1.2697 -0.1753
20107TIP3    H281813   2.964   0.790   3.212  0.3494  1.1363 -0.9088
20108TIP3   OH281814   2.843   0.634   4.004  0.2765 -0.4305  0.1621
20108TIP3    H181815   2.784   0.710   4.007 -1.5459 -1.8325  0.6120
20108TIP3    H281816   2.926   0.667   4.041  0.6297  2.2556 -2.8149
20109TIP3   OH281817   5.868   4.382  13.038  0.0889 -0.2605  0.4461
20109TIP3    H181818   5.929   4.308  13.037  0.1377 -0.2078 -0.7981
20109TIP3    H281819   5.920   4.456  13.070 -0.6796 -1.3527  4.4460
20110TIP3   OH281820   3.004   3.010   3.105 -0.7320 -0.0311 -0.5145
20110TIP3    H181821   2.971   3.028   3.017 -1.3294 -0.5735 -0.4052
20110TIP3    H281822   2.925   2.996   3.157 -0.4067  0.8643  0.2396
20111TIP3   OH281823   3.768   4.611  16.911  0.1072 -0.2889  0.1289
20111TIP3    H181824   3.804   4.524  16.892 -0.4016 -0.1720 -1.4400
20111TIP3    H281825   3.844   4.669  16.911  0.4669 -0.7315  1.3020
20112TIP3   OH281826   3.527   2.122   5.711  0.4386 -0.3128 -0.0312
20112TIP3    H181827   3.595   2.150   5.650  0.3313  2.2866  0.9860
20112TIP3    H281828   3.575   2.079   5.782  0.8145 -0.6098 -0.4625
20113TIP3   OH281829   3.671   2.856   4.046  0.5534 -0.0186  0.5205
20113TIP3    H181830   3.689   2.762   4.050 -1.0627 -0.2860  2.2285
20113TIP3    H281831   3.758   2.897   4.040  1.4159 -1.5270  2.2411
20114TIP3   OH281832   3.646   2.943   5.878 -0.3298 -0.4227 -0.1863
20114TIP3    H181833   3.603   2.976   5.799  0.1040 -0.4916 -0.4556
20114TIP3    H281834   3.663   2.851   5.860  0.9922 -0.1140 -0.5601
20115TIP3   OH281835   2.877   4.328   0.610 -0.2232  0.7962  0.1652
20115TIP3    H181836   2.898   4.239   0.582 -0.9353  0.4485  0.7124
20115TIP3    H281837   2.845   4.371   0.531  0.0432  0.5347 -0.0828
20116TIP3   OH281838   4.119   5.546   5.149  0.0897 -0.4645  0.6439
20116TIP3    H181839   4.136   5.454   5.129  0.2345 -0.1306 -0.8104
20116TIP3    H281840   4.180   5.566   5.220  0.6378 -1.2669  0.4124
20117TIP3   OH281841   6.698   3.028  13.752  0.4947 -0.5902 -0.4614
20117TIP3    H181842   6.703   2.933  13.754  0.4823 -0.6698 -2.6395
20117TIP3    H281843   6.617   3.046  13.703  0.6216  0.5383 -0.2677
20118TIP3   OH281844   5.456   1.305   1.202 -0.6579  0.1274  0.3653
20118TIP3    H181845   5.436   1.397   1.185 -0.3171  0.0127 -0.6566
20118TIP3    H281846   5.511   1.307   1.280 -0.2853  0.8291  0.0927
20119TIP3   OH281847   6.224   3.729   0.624 -0.4053  0.7886 -0.0135
20119TIP3    H181848   6.289   3.798   0.637  0.6608 -0.4934  1.7404
20119TIP3    H281849   6.276   3.651   0.602 -1.3233 -0.2181  1.2773
20120TIP3   OH281850   4.641   2.800  12.030  0.0943 -0.3115  0.1329
20120TIP3    H181851   4.678   2.864  12.091  0.1475 -0.0365 -0.1909
20120TIP3    H281852   4.717   2.754  11.995  0.2976  1.5901 -2.0388
20121TIP3   OH281853   5.440   4.562  14.201  0.1146 -0.6321 -0.1010
20121TIP3    H181854   5.500   4.636  14.194 -0.3284 -0.4787 -2.5960
20121TIP3    H281855   5.363   4.597  14.244  1.0191 -0.3529  1.3211
20122TIP3   OH281856   4.603   0.164   4.197 -0.5520 -0.9380  0.1958
20122TIP3    H181857   4.565   0.116   4.123 -0.5570  0.2257 -0.5597
20122TIP3    H281858   4.665   0.102   4.235 -0.3828 -1.4790 -0.9173
20123TIP3   OH281859   2.538   0.987  12.597 -0.3101  0.4195 -0.1079
20123TIP3    H181860   2.481   0.915  12.623 -0.2535 -0.0223 -1.1974
20123TIP3    H281861   2.487   1.066  12.616 -1.1936  0.0385 -0.8781
20124TIP3   OH281862   6.583   2.327  13.104  0.5878 -0.2866 -0.3086
20124TIP3    H181863   6.541   2.403  13.063  1.0825  0.7417  1.0279
20124TIP3    H281864   6.540   2.251  13.064 -1.0979  0.7200 -0.4672
20125TIP3   OH281865   2.352   2.744  15.170 -0.0118 -0.5893  0.3982
20125TIP3    H181866   2.305   2.668  15.204  0.6944 -1.5158 -0.6481
20125TIP3    H281867   2.286   2.813  15.166 -1.1384 -1.6810 -0.3877
20126TIP3   OH281868   6.625   1.477   4.047  0.7380  0.2781  0.1721
20126TIP3    H181869   6.606   1.462   4.139  2.2510  1.6966  0.7385
20126TIP3    H281870   6.719   1.495   4.044  0.5321  1.1833 -1.5100
20127TIP3   OH281871   5.345   2.937  12.556  0.0821  0.0922  0.4865
20127TIP3    H181872   5.420   2.897  12.511  0.0944  0.3951  0.2420
20127TIP3    H281873   5.384   2.985  12.629 -0.0187 -1.3058  1.4891
20128TIP3   OH281874   1.334   6.546  11.832  0.2245  0.7700 -0.8218
20128TIP3    H181875   1.267   6.614  11.832  0.3264  0.8741 -0.3881
20128TIP3    H281876   1.367   6.544  11.742 -1.0958 -0.0203 -1.3024
20129TIP3   OH281877   5.367   5.576  12.165 -0.1352  0.0241  0.1321
20129TIP3    H181878   5.273   5.564  12.170 -0.3701  2.1394  1.5281
20129TIP3    H281879   5.403   5.488  12.163 -2.1477 -0.7998 -0.7685
20130TIP3   OH281880   2.167   6.705  14.845  0.4774 -0.1823  0.1499
20130TIP3    H181881   2.115   6.785  14.841  1.3001  0.2720 -1.9527
20130TIP3    H281882   2.166   6.680  14.938 -1.2140  1.2944  0.5461
20131TIP3   OH281883   4.996   6.191   1.242 -0.1020 -0.3026 -0.1313
20131TIP3    H181884   5.035   6.120   1.293  0.7551  0.3773  0.1712
20131TIP3    H281885   4.946   6.146   1.174  1.4505 -1.2160 -0.7078
20132TIP3   OH281886   5.080   2.872  12.566 -0.5316 -0.5281  0.2020
20132TIP3    H181887   5.166   2.882  12.526  0.0718  0.3226  1.6750
20132TIP3    H281888   5.076   2.780  12.591 -0.8522 -1.0320 -1.6166
20133TIP3   OH281889   6.123   2.344  13.839  0.0691  0.0330  0.5113
20133TIP3    H181890   6.172   2.266  13.865  0.3880 -0.8515 -2.5900
20133TIP3    H281891   6.186   2.416  13.850  1.2094 -0.7399 -0.8244
20134TIP3   OH281892   3.795   3.884  12.152  0.6304  0.4426  0.5495
20134TIP3    H181893   3.871   3.892  12.210 -0.8088 -1.5320  2.8241
20134TIP3    H281894   3.761   3.796  12.170 -0.3141  0.0587 -2.8099
20135TIP3   OH281895   0.186   5.427   4.892 -0.4738 -0.4876  0.6271
20135TIP3    H181896   0.126   5.380   4.950 -0.8527 -0.1547  0.5014
20135TIP3    H281897   0.252   5.464   4.950 -0.4309 -0.7852  0.7715
20136TIP3   OH281898   3.567   0.064   4.990 -0.0737 -0.1507 -0.0464
20136TIP3    H181899   3.553   0.020   5.074 -0.5022  3.5284  1.9124
20136TIP3    H281900   3.640   0.124   5.006  0.6140 -0.2078 -2.6822
20137TIP3   OH281901   4.522   1.950   1.198 -0.0710 -0.2728 -0.0380
20137TIP3    H181902   4.515   1.855   1.186  0.7829 -0.6367  2.1793
20137TIP3    H281903   4.546   1.961   1.290  1.9451  2.0231 -0.7970
20138TIP3   OH281904   5.472   2.148  13.540 -0.1930 -0.4739  0.1832
20138TIP3    H181905   5.490   2.069  13.489 -0.8088 -1.7603  1.9256
20138TIP3    H281906   5.546   2.156  13.600 -1.5734 -1.4440  2.0682
20139TIP3   OH281907   2.935   4.537  16.608 -0.0648 -0.0740  0.2674
20139TIP3    H181908   2.970   4.485  16.680  3.4036 -2.0479 -2.6269
20139TIP3    H281909   2.869   4.594  16.648  0.2838 -2.4920  4.5701
20140TIP3   OH281910   3.028   5.577   0.684  0.3384  0.7385  0.4215
20140TIP3    H181911   3.115   5.604   0.711  0.2426 -0.6190  2.1354
20140TIP3    H281912   3.035   5.566   0.589  2.2613 -0.2300  0.6598
20141TIP3   OH281913   3.306   0.594   2.545 -0.6203 -0.3378  0.3587
20141TIP3    H181914   3.351   0.642   2.475 -1.8436  0.2948 -0.0312
20141TIP3    H281915   3.375   0.553   2.596  0.4157  1.1274  0.1560
20142TIP3   OH281916   1.513   6.282  16.446 -0.4739  0.3060  0.6109
20142TIP3    H181917   1.599   6.284  16.487 -0.7665 -0.3166  1.2789
20142TIP3    H281918   1.517   6.209  16.384 -1.1324 -1.0355  2.0867
20143TIP3   OH281919   5.238   5.396  10.418 -0.2946 -0.1990 -0.1117
20143TIP3    H181920   5.274   5.342  10.488 -2.1883 -1.4623 -0.0551
20143TIP3    H281921   5.177   5.338  10.373 -1.2978  1.4727 -0.9559
20144TIP3   OH281922   2.482   2.381   4.343 -0.2192 -0.1250  0.3541
20144TIP3    H181923   2.467   2.355   4.252 -2.0110  0.2226  0.5455
20144TIP3    H281924   2.456   2.473   4.347 -0.3081 -0.1861  1.2624
20145TIP3   OH281925   6.280   3.840   5.443  0.3588  0.2178  0.2469
20145TIP3    H181926   6.249   3.849   5.353 -0.0606  0.0257  0.3672
20145TIP3    H281927   6.257   3.924   5.484 -0.6786 -0.1898  0.5285
20146TIP3   OH281928   4.548   2.875  11.597 -0.2024  0.0992 -0.2364
20146TIP3    H181929   4.601   2.797  11.578  0.2869  0.3330  0.1647
20146TIP3    H281930   4.559   2.890  11.691 -1.2612 -0.0508 -0.0756
20147TIP3   OH281931   0.767   2.247  16.056 -0.4597  0.1972  0.0319
20147TIP3    H181932   0.707   2.174  16.070  0.4572 -0.9892 -1.9348
20147TIP3    H281933   0.735   2.316  16.114 -1.3347 -1.7539  1.9653
20148TIP3   OH281934   2.796   4.369   5.501 -0.7150  0.0175  0.3039
20148TIP3    H181935   2.842   4.297   5.544  1.9561  2.6379  2.0308
20148TIP3    H281936   2.760   4.421   5.573 -1.3698  1.1947 -0.8394
20149TIP3   OH281937   2.550   5.126  13.119 -0.1192 -0.1922  0.0576
20149TIP3    H181938   2.466   5.128  13.164  0.1497 -0.0831  0.5522
20149TIP3    H281939   2.559   5.213  13.080  0.3048  0.1897  0.9936
20150TIP3   OH281940   1.549   4.797   2.666 -0.6001 -0.9888 -0.0912
20150TIP3    H181941   1.482   4.751   2.616  1.6267 -1.0950 -3.1315
20150TIP3    H281942   1.548   4.886   2.631 -0.5426 -0.4184  1.3091
20151TIP3   OH281943   3.987   5.918   1.969  0.0212  0.3642 -0.4171
20151TIP3    H181944   3.967   5.868   1.889 -0.2689  1.3526 -0.9682
20151TIP3    H281945   3.911   5.975   1.980  0.3326  0.6465  0.2413
20152TIP3   OH281946   4.962   1.052  15.944  0.2169  0.2676  0.5201
20152TIP3    H181947   5.040   1.078  15.894 -0.8912 -0.5980 -1.7472
20152TIP3    H281948   4.964   0.956  15.941 -1.3659  0.2552 -0.2510
20153TIP3   OH281949   1.897   0.901  13.090  0.2276  1.2978 -0.3973
20153TIP3    H181950   1.831   0.961  13.128 -0.6054  1.7261 -2.4702
20153TIP3    H281951   1.851   0.859  13.018  1.7713  0.3955 -0.8499
20154TIP3   OH281952   3.464   5.108   4.033  0.2932  0.2760  0.2970
20154TIP3    H181953   3.457   5.022   3.992 -0.9663  0.1597  0.7235
20154TIP3    H281954   3.529   5.154   3.980  1.1393 -1.0047  0.1992
20155TIP3   OH281955   5.980   2.094   6.025  0.4410 -0.4166  0.4361
20155TIP3    H181956   5.962   2.186   6.044  1.0216 -0.2081 -0.0048
20155TIP3    H281957   5.956   2.048   6.105 -0.9885 -0.0147  0.2482
20156TIP3   OH281958   2.219   3.866  15.674  0.1594  0.4492 -0.3020
20156TIP3    H181959   2.132   3.857  15.714  0.5625 -1.0861  0.2262
20156TIP3    H281960   2.201   3.875  15.581 -0.6281  1.2871 -0.0805
20157TIP3   OH281961   1.211   3.360  10.783  0.0489 -0.1193  0.1035
20157TIP3    H181962   1.223   3.354  10.688 -0.5473 -1.4082  0.1000
20157TIP3    H281963   1.243   3.276  10.816 -0.2680  0.1070  0.9971
20158TIP3   OH281964   5.769   4.486  14.023 -0.3582  0.3766 -0.1984
20158TIP3    H181965   5.788   4.557  14.084  2.9447  0.7929 -1.6101
20158TIP3    H281966   5.825   4.414  14.053 -2.7714 -1.2949  0.4892
20159TIP3   OH281967   6.555   5.027   3.136 -0.1935  0.5744 -0.6522
20159TIP3    H181968   6.587   5.108   3.096 -0.7665  1.3774  0.4842
20159TIP3    H281969   6.566   4.961   3.067  1.2411  1.3926 -1.2443
20160TIP3   OH281970   4.205   3.828   1.629  0.3007 -0.4347  0.4561
20160TIP3    H181971   4.144   3.845   1.702  1.3770  0.6901  1.1017
20160TIP3    H281972   4.212   3.732   1.627 -0.5268 -0.5235  1.1820
20161TIP3   OH281973   2.477   5.175  15.196 -0.4569 -0.3013  0.0833
20161TIP3    H181974   2.427   5.247  15.156 -1.8533 -1.2274  0.0990
20161TIP3    H281975   2.410   5.119  15.236  0.7419 -0.7151  1.5592
20162TIP3   OH281976   4.317   5.148  15.737 -0.0546  0.0064 -0.2203
20162TIP3    H181977   4.228   5.184  15.747  0.7953  1.8439  1.0850
20162TIP3    H281978   4.372   5.225  15.723  1.1189 -1.2794 -2.7516
20163TIP3   OH281979   3.049   1.728  10.673  0.0737 -1.1534 -0.2448
20163TIP3    H181980   3.129   1.742  10.723  0.9764 -1.5326 -1.5377
20163TIP3    H281981   3.038   1.808  10.621 -1.6284 -0.1759  1.5611
20164TIP3   OH281982   5.577   3.080  13.361  0.0547  0.1794  0.0951
20164TIP3    H181983   5.489   3.055  13.333  0.4204 -1.6877  0.5817
20164TIP3    H281984   5.563   3.150  13.425 -1.1246 -0.5610  0.6577
20165TIP3   OH281985   4.661   3.301   0.979 -0.5767 -0.1641 -0.0766
20165TIP3    H181986   4.577   3.261   1.001 -0.4245 -0.3587  0.1496
20165TIP3    H281987   4.704   3.236   0.922 -1.5498  0.9221 -2.0945
20166TIP3   OH281988   2.440   6.105   0.732  0.6492 -0.4937 -0.1196
20166TIP3    H181989   2.464   6.194   0.761  0.6363 -0.5291 -0.0015
20166TIP3    H281990   2.465   6.049   0.804  0.4328 -0.5599 -0.0972
20167TIP3   OH281991   0.577   0.818   4.375  0.7833 -0.0013  0.1788
20167TIP3    H181992   0.629   0.788   4.449  0.5131 -0.7998  0.0516
20167TIP3    H281993   0.639   0.868   4.322  1.4622 -1.0258 -0.0242
20168TIP3   OH281994   5.589   6.723   4.813  0.1459 -0.0093 -0.1799
20168TIP3    H181995   5.596   6.712   4.719  1.0519 -0.3451 -0.0841
20168TIP3    H281996   5.671   6.688   4.847 -1.1451 -2.1468  0.9033
20169TIP3   OH281997   3.235   6.302   0.117 -0.1214 -0.0768  0.0699
20169TIP3    H181998   3.225   6.214   0.153 -0.0494 -0.2953 -0.4362
20169TIP3    H281999   3.165   6.310   0.052 -0.1789  0.2692  0.1737
20170TIP3   OH282000   1.652   2.616   1.293  0.5783 -0.1643  0.1085
20170TIP3    H182001   1.602   2.675   1.349 -0.8445 -1.5872  0.3912
20170TIP3    H282002   1.626   2.639   1.204  0.2922 -0.1169  0.2030
20171TIP3   OH282003   6.212   2.234  15.418  0.3078  0.0923  0.1588
20171TIP3    H182004   6.165   2.314  15.397  1.2199  0.2730 -1.2375
20171TIP3    H282005   6.143   2.169  15.433 -0.4341  0.2999 -2.1144
20172TIP3   OH282006   3.317   3.023   2.146 -0.3870 -1.1170  0.4751
20172TIP3    H182007   3.222   3.035   2.154 -0.2694  0.7657 -0.8168
20172TIP3    H282008   3.353   3.111   2.150  1.2459 -1.7488 -0.0722
20173TIP3   OH282009   6.301   2.641  10.750 -0.4448  0.6027 -0.2711
20173TIP3    H182010   6.279   2.558  10.793 -0.2914 -0.3896 -2.0597
20173TIP3    H282011   6.397   2.644  10.752 -0.4964  1.5186  1.2166
20174TIP3   OH282012   5.654   0.280  14.567 -0.0442 -0.7611 -0.3501
20174TIP3    H182013   5.710   0.335  14.514 -1.2178 -0.1597 -0.9857
20174TIP3    H282014   5.596   0.341  14.614 -0.4856 -1.3829 -0.0690
20175TIP3   OH282015   5.201   5.843  11.883 -0.1047  0.0281  0.6918
20175TIP3    H182016   5.173   5.766  11.933  0.0417  0.9888  2.2710
20175TIP3    H282017   5.296   5.836  11.880 -0.1810 -0.6969 -0.5707
20176TIP3   OH282018   1.542   3.588   5.633 -0.1785  1.0774  0.2382
20176TIP3    H182019   1.516   3.625   5.549 -1.5822 -1.2245 -0.3987
20176TIP3    H282020   1.533   3.660   5.695  1.5200  2.9899 -1.6778
20177TIP3   OH282021   2.011   5.559   0.204 -0.0827  0.3713 -0.2880
20177TIP3    H182022   1.926   5.588   0.237  0.3177  1.0609  0.1647
20177TIP3    H282023   2.052   5.516   0.279  1.5016  3.3979  0.6640
20178TIP3   OH282024   6.518   3.650   0.240 -0.4269  0.3111  0.2239
20178TIP3    H182025   6.500   3.661   0.147 -0.3526 -1.6987 -0.0597
20178TIP3    H282026   6.432   3.633   0.279 -0.2327 -0.8447  0.1863
20179TIP3   OH282027   1.488   1.272  10.733  0.3793  0.0668 -0.1022
20179TIP3    H182028   1.577   1.243  10.714  0.4246 -0.3351  0.6811
20179TIP3    H282029   1.453   1.301  10.649  1.0848 -0.2262 -0.4978
20180TIP3   OH282030   4.350   0.531   5.519 -0.5073 -0.5373 -0.0582
20180TIP3    H182031   4.405   0.489   5.586 -1.2680  0.4874  1.2203
20180TIP3    H282032   4.263   0.495   5.534 -0.6233 -0.5351 -0.7152
20181TIP3   OH282033   4.574   5.783  17.140  0.4230  0.0906  0.0978
20181TIP3    H182034   4.570   5.757  17.232 -0.2928  0.1002  0.0645
20181TIP3    H282035   4.486   5.814  17.119  0.1565 -1.3391 -1.0124
20182TIP3   OH282036   1.131   0.500   0.253 -0.2905  0.0154  0.3636
20182TIP3    H182037   1.198   0.439   0.223  1.6175  1.2366  2.0777
20182TIP3    H282038   1.155   0.584   0.216  0.3451  0.8959  2.7146
20183TIP3   OH282039   0.749   2.730   5.301  0.4638  0.3009 -0.2587
20183TIP3    H182040   0.778   2.658   5.245  0.2180  0.1845 -0.2369
20183TIP3    H282041   0.795   2.807   5.268  1.8569 -0.1327  0.6295
20184TIP3   OH282042   1.504   2.870  12.432  0.0509 -0.2549  0.6044
20184TIP3    H182043   1.572   2.934  12.415 -0.2225  0.4528  2.0818
20184TIP3    H282044   1.532   2.792  12.384  0.3015  0.9917 -1.3362
20185TIP3   OH282045   4.827   4.551  16.620  0.1403  0.2593 -0.1774
20185TIP3    H182046   4.732   4.548  16.614  0.1510  0.9163 -0.6886
20185TIP3    H282047   4.845   4.545  16.714 -0.4568  1.4764  0.0200
20186TIP3   OH282048   2.458   5.162  16.461 -0.1109  0.3958 -0.0120
20186TIP3    H182049   2.507   5.192  16.385  0.7307  0.5922  0.6119
20186TIP3    H282050   2.378   5.215  16.460  0.3183  1.0358 -0.2259
20187TIP3   OH282051   2.896   0.269   4.569  0.0243 -0.3989 -0.0779
20187TIP3    H182052   2.904   0.290   4.662  2.5887  1.1700 -0.6147
20187TIP3    H282053   2.962   0.201   4.554  0.5675  0.3338 -1.0369
20188TIP3   OH282054   0.203   5.798   3.883  0.1591 -1.0751  0.3925
20188TIP3    H182055   0.213   5.801   3.788 -0.0405 -3.2888  0.2843
20188TIP3    H282056   0.115   5.765   3.897 -0.2301  0.3674  1.3573
20189TIP3   OH282057   6.756   0.842  14.874  0.0717 -0.4325  0.7021
20189TIP3    H182058   6.711   0.823  14.957  0.8269 -1.6551  0.8388
20189TIP3    H282059   6.845   0.812  14.888 -0.0363 -1.5835 -0.9017
20190TIP3   OH282060   0.890   5.241   0.028 -0.6011 -0.4007  0.1858
20190TIP3    H182061   0.892   5.167   0.088 -0.7373  0.1705  0.8903
20190TIP3    H282062   0.798   5.267   0.025 -0.8642 -1.4407 -1.5170
20191TIP3   OH282063   1.864   3.133   5.001  0.5405  0.2509  0.2164
20191TIP3    H182064   1.842   3.058   5.057  2.1106 -0.6540 -0.3213
20191TIP3    H282065   1.819   3.115   4.918 -0.1415  0.5686  0.5144
20192TIP3   OH282066   0.799   4.154  11.826 -0.1151 -0.0090  0.6101
20192TIP3    H182067   0.826   4.065  11.849 -0.0869  0.2423  1.5799
20192TIP3    H282068   0.716   4.143  11.780 -0.9231 -0.4341  2.1403
20193TIP3   OH282069   5.180   4.139   3.092 -0.0379  0.8433 -0.2708
20193TIP3    H182070   5.153   4.049   3.109 -1.7716  1.6121  1.1392
20193TIP3    H282071   5.138   4.161   3.008 -1.0314  0.8928  0.2299
20194TIP3   OH282072   0.467   2.745  16.167  0.4157 -0.4326  0.1905
20194TIP3    H182073   0.464   2.820  16.107  1.6764  0.3151  1.0385
20194TIP3    H282074   0.376   2.719  16.178 -0.2445  2.4212  1.6943
20195TIP3   OH282075   5.757   4.095  17.290 -0.1133 -0.0187  0.0416
20195TIP3    H182076   5.736   4.063  17.378 -2.0189  2.2427  0.4862
20195TIP3    H282077   5.704   4.041  17.232  0.6318 -1.0801  0.3573
20196TIP3   OH282078   2.005   3.207  16.408  0.4171 -0.5071  1.3292
20196TIP3    H182079   2.015   3.224  16.502 -0.5045 -2.0552  1.7224
20196TIP3    H282080   1.955   3.125  16.404  0.6426 -0.5602 -0.5113
20197TIP3   OH282081   5.466   2.701   3.416 -0.3780 -0.0328  0.2017
20197TIP3    H182082   5.390   2.742   3.456 -1.3866 -1.3259 -0.3461
20197TIP3    H282083   5.482   2.623   3.469  0.4338  0.1154  0.1834
20198TIP3   OH282084   6.234   0.868   3.517  0.3937  0.2843 -0.4631
20198TIP3    H182085   6.215   0.894   3.608  1.6377  2.0456 -0.6853
20198TIP3    H282086   6.327   0.848   3.517  0.5229  0.8686 -1.4857
20199TIP3   OH282087   4.542   2.149   4.397 -0.2606 -0.0398  0.3414
20199TIP3    H182088   4.522   2.159   4.490  3.2306 -1.1007  1.3192
20199TIP3    H282089   4.556   2.238   4.366 -4.6572  0.5907 -0.0342
20200TIP3   OH282090   0.814   5.593  17.195 -0.1796 -0.3964  0.6476
20200TIP3    H182091   0.731   5.585  17.241 -0.8427 -0.8655 -0.5978
20200TIP3    H282092   0.797   5.555  17.108  1.0757  0.3271  0.0699
20201TIP3   OH282093   0.693   5.983   5.917  0.5422 -0.2119 -0.4524
20201TIP3    H182094   0.776   5.957   5.958  0.0684  1.3070  1.5551
20201TIP3    H282095   0.698   6.079   5.913 -0.9350 -0.1401 -0.7065
20202TIP3   OH282096   0.998   5.881  12.068  0.1554  0.3005  0.0820
20202TIP3    H182097   0.997   5.946  11.998 -0.6341  0.5149  0.2865
20202TIP3    H282098   0.912   5.840  12.063 -0.0644  0.6074  1.1963
20203TIP3   OH282099   2.709   0.383  13.090  0.3017  0.0233 -0.4304
20203TIP3    H182100   2.801   0.412  13.089  0.2617  0.1491 -0.4901
20203TIP3    H282101   2.684   0.389  13.182 -0.3771  2.3312 -0.7262
20204TIP3   OH282102   0.244   6.475  12.512 -0.0374  0.5557 -0.2413
20204TIP3    H182103   0.241   6.381  12.531 -1.5330  0.2765 -1.7975
20204TIP3    H282104   0.321   6.486  12.456  0.5133  0.3825  0.4628
20205TIP3   OH282105   5.035   2.983   4.550 -0.2603 -0.5888 -0.4430
20205TIP3    H182106   4.960   3.027   4.592 -1.6055 -1.6606 -1.6664
20205TIP3    H282107   5.019   2.890   4.567  0.5800 -0.8455 -1.0915
20206TIP3   OH282108   2.944   5.140  13.469  0.0319 -0.0777  0.1894
20206TIP3    H182109   2.954   5.083  13.545  2.3876 -0.2326 -0.2024
20206TIP3    H282110   2.901   5.218  13.503  1.1431 -0.1076  1.7288
20207TIP3   OH282111   1.933   2.130  12.884 -0.3221 -0.5338  0.1524
20207TIP3    H182112   1.919   2.040  12.855 -0.5888 -0.5883  0.4528
20207TIP3    H282113   2.028   2.144  12.873 -0.1871 -1.0407  0.6622
20208TIP3   OH282114   5.885   3.725   0.315  0.2118  0.0479 -0.3925
20208TIP3    H182115   5.950   3.766   0.373  0.9886 -1.6277 -0.0457
20208TIP3    H282116   5.807   3.780   0.324  1.6284  2.2304 -0.9837
20209TIP3   OH282117   4.319   4.616   1.968 -0.5695  0.2841 -0.8332
20209TIP3    H182118   4.233   4.584   1.940 -0.1346 -1.8164  0.1639
20209TIP3    H282119   4.376   4.599   1.894 -0.0322 -2.6751  0.1865
20210TIP3   OH282120   1.421   2.252  15.800  0.1927 -0.3965  0.0109
20210TIP3    H182121   1.455   2.186  15.739 -0.6006 -1.1081  0.3295
20210TIP3    H282122   1.436   2.335  15.755 -0.2236 -0.8982 -1.1006
20211TIP3   OH282123   6.128   2.584   6.030  0.0250  0.3481  0.2110
20211TIP3    H182124   6.099   2.604   5.941  0.2881  0.5561  0.1686
20211TIP3    H282125   6.080   2.505   6.055 -1.1146  1.0983  0.4125
20212TIP3   OH282126   5.275   3.063  16.758 -0.1799  0.0934  0.5279
20212TIP3    H182127   5.261   3.038  16.849 -0.2572 -1.8213  0.0099
20212TIP3    H282128   5.194   3.039  16.714  0.2561  0.0345 -0.2489
20213TIP3   OH282129   0.484   5.385   0.303  0.1760 -0.3614  0.0910
20213TIP3    H182130   0.577   5.378   0.322  0.1070  0.7115  0.8357
20213TIP3    H282131   0.440   5.367   0.386 -0.2765 -0.6046 -0.1937
20214TIP3   OH282132   4.566   4.290   0.406 -0.0446  0.1245 -0.3335
20214TIP3    H182133   4.617   4.369   0.420  0.4683 -0.2040 -0.3313
20214TIP3    H282134   4.503   4.289   0.479  1.3461 -0.5689  0.8878
20215TIP3   OH282135   2.851   5.447  11.374  0.3712  0.5800  0.6529
20215TIP3    H182136   2.902   5.402  11.306  0.0601  1.1439  0.0442
20215TIP3    H282137   2.817   5.376  11.428  0.9500  0.1446  0.4622
20216TIP3   OH282138   2.212   3.295  11.298 -0.5895 -0.1392 -0.0479
20216TIP3    H182139   2.174   3.254  11.377  0.2737 -0.6645  0.1029
20216TIP3    H282140   2.168   3.252  11.225 -0.0019 -1.0391  0.1202
20217TIP3   OH282141   1.582   2.631  15.590  0.3169  0.3081 -0.1261
20217TIP3    H182142   1.563   2.643  15.497  0.6518 -0.0044 -0.2365
20217TIP3    H282143   1.600   2.720  15.623  0.8664  0.3448 -0.5087
20218TIP3   OH282144   4.413   3.559   5.301 -0.0420 -0.1961  0.8683
20218TIP3    H182145   4.347   3.572   5.369 -1.0004  0.2639 -0.1422
20218TIP3    H282146   4.497   3.569   5.347 -0.6810  1.0794  1.7974
20219TIP3   OH282147   6.301   6.092  13.996 -1.0574  0.6703  0.9103
20219TIP3    H182148   6.348   6.111  13.915 -2.8630 -1.8660 -0.7864
20219TIP3    H282149   6.359   6.125  14.065  2.5565 -0.9695 -1.1812
20220TIP3   OH282150   4.689   1.328   1.719  0.0997 -0.5943 -0.6012
20220TIP3    H182151   4.773   1.303   1.680 -0.0013 -0.5031 -0.8815
20220TIP3    H282152   4.672   1.416   1.687  0.7481  0.0802  0.8880
20221TIP3   OH282153   5.625   4.224   1.498 -0.0478 -1.0017  0.2965
20221TIP3    H182154   5.666   4.156   1.551 -0.1273 -1.2822  0.0021
20221TIP3    H282155   5.668   4.217   1.413  0.8940  0.2105  0.6640
20222TIP3   OH282156   6.005   5.270  16.643 -0.0282  0.3399  0.7045
20222TIP3    H182157   6.047   5.334  16.701  0.1966 -0.0556  0.9745
20222TIP3    H282158   6.078   5.225  16.599 -0.1778 -0.0283  0.8302
20223TIP3   OH282159   3.006   4.475  13.962  0.1232 -0.1639  0.4443
20223TIP3    H182160   3.071   4.540  13.987 -1.4325  0.9317  1.7381
20223TIP3    H282161   2.923   4.523  13.957 -0.4780 -1.3536 -2.0477
20224TIP3   OH282162   1.174   3.046  15.697  0.0598  0.1260 -0.0374
20224TIP3    H182163   1.168   3.085  15.610  0.8579 -0.5303 -0.3914
20224TIP3    H282164   1.143   3.114  15.756  1.0083  1.1344 -0.6879
20225TIP3   OH282165   6.604   0.782  13.084  0.5925  0.1216 -0.4966
20225TIP3    H182166   6.559   0.716  13.136 -0.0586 -0.0891 -1.3114
20225TIP3    H282167   6.682   0.738  13.050  1.3029  0.4141  0.7145
20226TIP3   OH282168   1.618   0.096   4.304 -0.0253  0.6997 -0.2023
20226TIP3    H182169   1.704   0.137   4.315  0.2567 -0.1384  0.7537
20226TIP3    H282170   1.636   0.018   4.250  0.1260 -0.4964  1.5353
20227TIP3   OH282171   5.425   1.679  15.709  0.0610 -0.2447 -0.1228
20227TIP3    H182172   5.402   1.714  15.623 -2.5027 -1.0408  0.2084
20227TIP3    H282173   5.447   1.756  15.761 -1.8575  0.5681 -0.4717
20228TIP3   OH282174   0.815   5.666   2.797  0.2588 -0.9658  0.1694
20228TIP3    H182175   0.879   5.655   2.727 -0.4080 -1.5696 -0.3425
20228TIP3    H282176   0.868   5.686   2.875  0.9630  0.2826 -0.6196
20229TIP3   OH282177   3.209   5.399   2.551 -0.4046  0.2409  0.3898
20229TIP3    H182178   3.166   5.313   2.544 -1.4242  0.6596  1.3923
20229TIP3    H282179   3.137   5.461   2.559  0.3394  1.1875 -0.2839
20230TIP3   OH282180   1.878   5.566   0.548 -0.2788  0.4292  0.2372
20230TIP3    H182181   1.912   5.477   0.542 -1.1533  0.0758  0.4185
20230TIP3    H282182   1.912   5.599   0.631 -1.2231 -0.2904  0.9233
20231TIP3   OH282183   4.728   4.565  13.902  0.5867 -0.1701 -0.4117
20231TIP3    H182184   4.739   4.626  13.829  1.1058 -1.5278 -1.4936
20231TIP3    H282185   4.785   4.491  13.881 -1.1099 -1.6859  0.1486
20232TIP3   OH282186   4.904   1.105  13.234  0.0104 -0.4573 -0.4535
20232TIP3    H182187   4.998   1.093  13.219  0.0989  0.5063 -0.7355
20232TIP3    H282188   4.894   1.200  13.244 -0.9992 -0.5160 -0.9158
20233TIP3   OH282189   5.524   6.052  15.433 -0.1825 -0.0586 -0.2124
20233TIP3    H182190   5.608   6.030  15.393 -0.1753  0.9153 -0.7453
20233TIP3    H282191   5.477   5.969  15.438  0.5291 -0.4840 -0.5820
20234TIP3   OH282192   3.093   1.244  10.390 -0.5955 -0.0001  0.3282
20234TIP3    H182193   3.009   1.276  10.423  0.0499  1.2781  0.7728
20234TIP3    H282194   3.131   1.197  10.464 -0.5984  0.0202  0.3423
20235TIP3   OH282195   4.275   3.391  11.706 -0.2453  0.6228 -0.7912
20235TIP3    H182196   4.350   3.430  11.662  0.2733  1.8295  1.0781
20235TIP3    H282197   4.203   3.398  11.643  0.7338  1.2610 -1.8571
20236TIP3   OH282198   0.787   4.932   3.614 -0.1076 -0.8679 -0.0558
20236TIP3    H182199   0.813   4.941   3.523  0.6943 -0.4744  0.2054
20236TIP3    H282200   0.760   4.841   3.622 -1.2900 -0.6007 -0.9625
20237TIP3   OH282201   4.870   1.657   4.506  0.0619 -0.3417  0.1589
20237TIP3    H182202   4.874   1.696   4.418 -1.3035  1.2173  0.7557
20237TIP3    H282203   4.928   1.581   4.501  0.1038 -0.2045 -2.0532
20238TIP3   OH282204   4.123   5.099   6.768 -0.1603 -0.0236 -0.4211
20238TIP3    H182205   4.209   5.117   6.729 -0.4452  0.6528 -0.7327
20238TIP3    H282206   4.111   5.005   6.755 -0.7435  0.3800 -2.9814
20239TIP3   OH282207   3.002   5.064   5.292  0.2436 -0.6839  0.3066
20239TIP3    H182208   2.933   5.022   5.344  0.7997  0.4006  1.9709
20239TIP3    H282209   2.970   5.152   5.275  0.2711 -0.8865 -0.8239
20240TIP3   OH282210   5.415   4.138  15.438 -0.2289  0.2486 -0.0415
20240TIP3    H182211   5.466   4.150  15.518 -1.5953 -1.3945  1.1443
20240TIP3    H282212   5.471   4.085  15.381  0.9399  1.8305 -0.3764
20241TIP3   OH282213   5.886   1.478   2.162 -0.0340 -0.0347  0.4358
20241TIP3    H182214   5.827   1.499   2.089  1.0240 -0.4460 -0.5444
20241TIP3    H282215   5.871   1.385   2.178  0.1543 -0.0797  0.3548
20242TIP3   OH282216   1.681   5.458  13.152  0.0226  0.3457  0.1805
20242TIP3    H182217   1.770   5.492  13.151  0.5591 -1.0211 -0.5172
20242TIP3    H282218   1.689   5.371  13.114 -1.3877 -0.3696  1.4948
20243TIP3   OH282219   1.497   4.015  15.064 -0.4061 -0.1176  0.3454
20243TIP3    H182220   1.528   3.926  15.048 -0.6817 -0.0938 -0.3336
20243TIP3    H282221   1.526   4.065  14.988  0.2432  0.5018  0.9948
20244TIP3   OH282222   0.776   4.649   0.939  0.1169 -0.6023 -0.1305
20244TIP3    H182223   0.808   4.734   0.907 -0.8872  0.0145  0.4942
20244TIP3    H282224   0.742   4.667   1.026 -1.3511 -1.3701 -0.5246
20245TIP3   OH282225   1.727   6.394  14.882  1.0625 -0.2038  0.2349
20245TIP3    H182226   1.812   6.380  14.923  1.2202 -3.1647 -0.9533
20245TIP3    H282227   1.747   6.441  14.801  1.3847  0.5633  0.7586
20246TIP3   OH282228   0.338   3.279  14.086  0.3248  0.5390  0.7882
20246TIP3    H182229   0.425   3.247  14.109  0.3693 -0.1055 -0.2435
20246TIP3    H282230   0.337   3.279  13.991 -1.2434 -0.6997  0.7746
20247TIP3   OH282231   3.150   1.702   5.696  0.1819 -0.2769 -0.4175
20247TIP3    H182232   3.109   1.681   5.780  1.5043  0.2688  0.3640
20247TIP3    H282233   3.223   1.760   5.717 -0.1608  0.7978 -2.0529
20248TIP3   OH282234   2.273   1.941   4.319  0.0305  0.3754  0.0360
20248TIP3    H182235   2.216   1.905   4.252  0.8845  1.1022 -1.1084
20248TIP3    H282236   2.294   1.867   4.376  0.5720 -0.6131 -1.4199
20249TIP3   OH282237   3.129   5.505  16.587 -0.3131 -0.1929 -0.3972
20249TIP3    H182238   3.213   5.494  16.543 -1.4008 -1.1903 -2.2756
20249TIP3    H282239   3.105   5.597  16.571 -0.0659 -0.1885 -0.7513
20250TIP3   OH282240   0.483   2.740   0.279 -0.0991 -0.0515 -0.0353
20250TIP3    H182241   0.489   2.824   0.324  1.1661 -0.0271 -0.2355
20250TIP3    H282242   0.391   2.733   0.253  0.4175  2.7156 -2.8434
20251TIP3   OH282243   1.382   2.714  11.090 -0.0602 -0.0496 -0.5533
20251TIP3    H182244   1.296   2.671  11.088 -0.7057  1.1648  0.1021
20251TIP3    H282245   1.445   2.642  11.080 -1.0705 -1.2910  1.5455
20252TIP3   OH282246   0.391   5.053   3.624  0.3033  0.1930  0.2512
20252TIP3    H182247   0.486   5.066   3.628  0.1745  0.7617  1.7698
20252TIP3    H282248   0.354   5.125   3.675 -0.7732 -1.7398  2.3152
20253TIP3   OH282249   2.498   1.209   2.692 -0.4300  0.0003  0.1826
20253TIP3    H182250   2.537   1.192   2.778 -1.2007 -0.9767  0.3365
20253TIP3    H282251   2.521   1.301   2.674  0.8641 -0.1778  0.8306
20254TIP3   OH282252   1.251   4.388  13.409  0.3645 -0.3833  0.4030
20254TIP3    H182253   1.168   4.342  13.399 -0.5283  1.0417  1.1100
20254TIP3    H282254   1.279   4.369  13.499  1.7703 -2.3855 -0.4095
20255LIG      O82255   5.069   5.239  16.504 -0.5831 -0.0682 -0.0717
20255LIG      N82256   4.719   5.081  16.811  0.0121  0.1037  0.2556
20255LIG     C182257   5.106   5.013  16.576 -0.3528 -0.1602  0.1566
20255LIG     C282258   5.000   5.119  16.531 -0.6910  0.5490  0.6749
20255LIG     C382259   5.212   4.975  16.462 -0.5532 -0.5705  0.7722
20255LIG     C482260   5.178   5.049  16.713 -0.3996  0.3509  0.6610
20255LIG     C582261   4.901   5.157  16.642  0.3645  0.3278  0.2585
20255LIG     C682262   5.292   4.865  16.511 -0.7113  0.1734 -0.1147
20255LIG     C782263   5.278   4.942  16.752  0.1815 -0.1283 -0.1376
20255LIG     C882264   5.366   4.911  16.632 -0.2279 -0.7489  0.4781
20255LIG     C982265   4.810   5.043  16.695 -0.3398 -0.0508  0.2596
20255LIG    C1082266   4.913   5.072  16.402  0.4078  0.3540  0.1450
20255LIG    C1182267   4.606   5.167  16.762  0.8648 -0.2539  0.3561
20255LIG    C1282268   4.778   5.139  16.932  0.0325  0.5637  0.3676
20255LIG    C1382269   4.497   5.181  16.876  0.0131  0.5728 -0.1619
20255LIG    C1482270   4.683   5.121  17.045  0.4429  0.2236 -0.1603
20255LIG    C1582271   4.553   5.202  17.016  0.0143 -0.2139  0.6533
20255LIG    C1682272   4.907   4.942  16.354  0.1755  0.5877 -0.4560
20255LIG    C1782273   4.821   5.168  16.347  0.5136 -0.1973 -1.0491
20255LIG    C1882274   4.818   4.912  16.248 -0.2082  0.1806 -0.2393
20255LIG    C1982275   4.729   5.138  16.249  0.5416  0.6431 -0.2437
20255LIG    C2082276   4.728   5.006  16.196 -0.2997  0.2907  0.3977
20255LIG     H182277   5.044   4.926  16.605  1.2485 -1.4276 -0.1770
20255LIG     H282278   5.270   5.067  16.443  2.7110 -2.6167  0.4151
20255LIG     H382279   5.160   4.941  16.370 -0.5291 -2.6423  1.4935
20255LIG     H482280   5.102   5.067  16.793  2.6691  1.8903  3.3488
20255LIG     H582281   5.234   5.144  16.702  0.6668 -0.3452  0.0729
20255LIG     H682282   4.824   5.226  16.601  0.8215  0.2339 -0.7685
20255LIG     H782283   4.945   5.211  16.728  0.2925  2.5268 -1.0401
20255LIG     H882284   5.371   4.826  16.443 -0.5842  0.2054  0.0145
20255LIG     H982285   5.222   4.780  16.525 -1.2438  0.5855 -0.2910
20255LIG    H1082286   5.213   4.857  16.781 -1.0392  0.4084 -1.2088
20255LIG    H1182287   5.331   4.981  16.841  1.1759 -0.9896 -0.3398
20255LIG    H1282288   5.424   5.001  16.604 -2.8767  1.3158  1.4181
20255LIG    H1382289   5.437   4.831  16.664  0.5550 -0.1774  0.1823
20255LIG    H1482290   4.755   4.994  16.612 -1.8528  0.6247  0.8514
20255LIG    H1582291   4.880   4.967  16.738  0.9934  0.7410 -0.4949
20255LIG    H1682292   4.562   5.126  16.670  2.5277 -0.4112 -0.3931
20255LIG    H1782293   4.645   5.269  16.738 -1.4697  0.5442 -0.1024
20255LIG    H1882294   4.803   5.247  16.935 -0.5630  0.6951  0.6079
20255LIG    H1982295   4.871   5.085  16.960 -0.5427 -0.4526  0.3484
20255LIG    H2082296   5.102   5.255  16.593 -2.5229  1.1632  0.4532
20255LIG    H2182297   4.449   5.082  16.864  0.2704  0.5607 -1.1900
20255LIG    H2282298   4.417   5.254  16.851 -0.0966  0.6828  0.5136
20255LIG    H2382299   4.723   5.166  17.138 -2.6520  1.8845  0.4454
20255LIG    H2482300   4.661   5.012  17.047  0.9899  0.1139  0.1028
20255LIG    H2582301   4.487   5.178  17.102 -0.6701  1.8904  0.7307
20255LIG    H2682302   4.567   5.311  17.024 -1.9244  0.2161 -1.3935
20255LIG    H2782303   4.956   4.857  16.398  0.9889  1.6033  0.6245
20255LIG    H2882304   4.824   5.268  16.386 -0.0400 -0.7749  0.5388
20255LIG    H2982305   4.796   4.812  16.216  2.0950 -0.0122 -1.3182
20255LIG    H3082306   4.675   5.221  16.206  0.4196  0.1745 -1.0012
20255LIG    H3182307   4.653   4.973  16.126 -1.6818 -1.8639  2.8230
   6.82013   6.82013  17.29240
